 Gaussian 16, Revision A.03,
 Gaussian 16:  ES64L-G16RevA.03 25-Dec-2016

 ------------------
 #p CCSD(T)/CEP-31G
 ------------------

 ------------
 H2O_H2O_1106
 ------------
 Symbolic Z-matrix:
 Charge =  0 Multiplicity = 1

                         Standard orientation:
 ---------------------------------------------------------------------
 Center     Atomic      Atomic             Coordinates (Angstroms)
 Number     Number       Type             X           Y           Z
 ---------------------------------------------------------------------
      1          8           0        0.021862   -1.383928    0.000000
      2          1           0       -0.778482   -1.953976    0.000000
      3          1           0        0.820658   -1.956143    0.000000
      4          8           0        0.021862    1.392564    0.000000
      5          1           0        0.543136    2.225498    0.000000
      6          1           0       -0.935107    1.615536    0.000000
 ---------------------------------------------------------------------

 SCF Done:  E(RHF) =  -33.6383763695     A.U. after   11 cycles
 E2 =    -0.2295179190D+00 EUMP2 =    -0.33867894288447D+02
 CCSD(T)
 CCSD(T)= -0.33885299385D+02

 The electronic state is 1-A'.
 Alpha  occ. eigenvalues --   -1.33200  -1.32728  -0.68792  -0.68351  -0.54061
 Alpha  occ. eigenvalues --   -0.49997  -0.47816  -0.46936
 Alpha virt. eigenvalues --    0.21173   0.23554   0.32269   0.32600   0.79467
 Alpha virt. eigenvalues --    0.80892   0.82004   0.87226   0.98767   1.12188
 Alpha virt. eigenvalues --    1.19275   1.21155   1.24107   1.24394   2.58323

 Mulliken charges:
               1
     1  O   -0.708744
     2  H    0.348718
     3  H    0.359210
     4  O   -0.703303
     5  H    0.348889
     6  H    0.355231
 Sum of Mulliken charges =  -0.00000

 Dipole moment (field-independent basis, Debye):
    X=             -0.9605    Y=             -0.2136    Z=              0.0000  Tot=              0.9840
 Quadrupole moment (field-independent basis, Debye-Ang):
   XX=             -8.4916   YY=              1.6687   ZZ=            -14.9876
   XY=             -0.8688   XZ=              0.0000   YZ=              0.0000

 \MP4DQ=-33.8794474\MP4SDQ=-33.8815494\CCSD=-33.8826355\CCSD(T)=-33.885
 Normal termination of Gaussian 16 at Sun Dec 10 06:45:26 2023.
