 Gaussian 16, Revision A.03,
 Gaussian 16:  ES64L-G16RevA.03 25-Dec-2016

 ------------------
 #p CCSD(T)/CEP-31G
 ------------------

 ------------
 H2O_H2O_4238
 ------------
 Symbolic Z-matrix:
 Charge =  0 Multiplicity = 1

                         Standard orientation:
 ---------------------------------------------------------------------
 Center     Atomic      Atomic             Coordinates (Angstroms)
 Number     Number       Type             X           Y           Z
 ---------------------------------------------------------------------
      1          8           0        0.042964   -3.029531    0.000000
      2          1           0       -0.757299   -3.599694    0.000000
      3          1           0        0.841842   -3.601632    0.000000
      4          8           0        0.042964    3.068339    0.000000
      5          1           0        0.141943    4.045943    0.000000
      6          1           0       -0.913902    2.844922    0.000000
 ---------------------------------------------------------------------

 SCF Done:  E(RHF) =  -33.6510529509     A.U. after   11 cycles
 E2 =    -0.2284257173D+00 EUMP2 =    -0.33879478668190D+02
 CCSD(T)
 CCSD(T)= -0.33896500148D+02

 The electronic state is 1-A'.
 Alpha  occ. eigenvalues --   -1.35232  -1.34919  -0.70862  -0.70540  -0.54926
 Alpha  occ. eigenvalues --   -0.54611  -0.49793  -0.49479
 Alpha virt. eigenvalues --    0.20498   0.20818   0.30734   0.31043   0.80760
 Alpha virt. eigenvalues --    0.81070   0.83855   0.84166   0.86940   0.87301
 Alpha virt. eigenvalues --    1.17638   1.17949   1.22102   1.22416   2.57673

 Mulliken charges:
               1
     1  O   -0.738519
     2  H    0.368038
     3  H    0.370481
     4  O   -0.738162
     5  H    0.367065
     6  H    0.371096
 Sum of Mulliken charges =  -0.00000

 Dipole moment (field-independent basis, Debye):
    X=             -1.9823    Y=             -0.9087    Z=              0.0000  Tot=              2.1806
 Quadrupole moment (field-independent basis, Debye-Ang):
   XX=             -9.2361   YY=             15.8779   ZZ=            -14.9875
   XY=             -5.2531   XZ=              0.0000   YZ=              0.0000

 MP4DQ=-33.8908503\MP4SDQ=-33.89288\CCSD=-33.8939365\CCSD(T)=-33.896500
 Normal termination of Gaussian 16 at Sun Dec 10 06:56:23 2023.
