 Gaussian 16, Revision A.03,
 Gaussian 16:  ES64L-G16RevA.03 25-Dec-2016

 ------------------
 #p CCSD(T)/CEP-31G
 ------------------

 ------------
 H2O_H2O_4699
 ------------
 Symbolic Z-matrix:
 Charge =  0 Multiplicity = 1

                         Standard orientation:
 ---------------------------------------------------------------------
 Center     Atomic      Atomic             Coordinates (Angstroms)
 Number     Number       Type             X           Y           Z
 ---------------------------------------------------------------------
      1          8           0        0.057199   -3.227994    0.000000
      2          1           0       -0.743226   -3.797928    0.000000
      3          1           0        0.855914   -3.800322    0.000000
      4          8           0        0.057199    3.342049    0.000000
      5          1           0       -0.512736    4.142474    0.000000
      6          1           0       -0.515129    2.543334    0.000000
 ---------------------------------------------------------------------

 SCF Done:  E(RHF) =  -33.6520955885     A.U. after   11 cycles
 E2 =    -0.2283657193D+00 EUMP2 =    -0.33880461307746D+02
 CCSD(T)
 CCSD(T)= -0.33897452512D+02

 The electronic state is 1-A'.
 Alpha  occ. eigenvalues --   -1.35740  -1.34969  -0.71374  -0.70592  -0.55492
 Alpha  occ. eigenvalues --   -0.54709  -0.50316  -0.49545
 Alpha virt. eigenvalues --    0.20049   0.20841   0.30291   0.31082   0.80235
 Alpha virt. eigenvalues --    0.80995   0.83230   0.84017   0.86353   0.87168
 Alpha virt. eigenvalues --    1.17175   1.17944   1.21630   1.22415   2.57184

 Mulliken charges:
               1
     1  O   -0.742227
     2  H    0.369920
     3  H    0.372307
     4  O   -0.742148
     5  H    0.368027
     6  H    0.374121
 Sum of Mulliken charges =   0.00000

 Dipole moment (field-independent basis, Debye):
    X=             -2.6399    Y=             -2.6651    Z=              0.0000  Tot=              3.7512
 Quadrupole moment (field-independent basis, Debye-Ang):
   XX=            -10.1666   YY=              7.1044   ZZ=            -14.9893
   XY=             -9.0060   XZ=              0.0000   YZ=              0.0000

 9\MP4DQ=-33.8918108\MP4SDQ=-33.8938376\CCSD=-33.8948923\CCSD(T)=-33.89
 Normal termination of Gaussian 16 at Sun Dec 10 07:06:15 2023.
