 Gaussian 16, Revision A.03,
 Gaussian 16:  ES64L-G16RevA.03 25-Dec-2016

 ------------------
 #p CCSD(T)/CEP-31G
 ------------------

 ------------
 H2O_H2O_2829
 ------------
 Symbolic Z-matrix:
 Charge =  0 Multiplicity = 1

                         Standard orientation:
 ---------------------------------------------------------------------
 Center     Atomic      Atomic             Coordinates (Angstroms)
 Number     Number       Type             X           Y           Z
 ---------------------------------------------------------------------
      1          8           0        0.014783   -2.303932    0.000000
      2          1           0       -0.785103   -2.874623    0.000000
      3          1           0        0.814039   -2.875505    0.000000
      4          8           0        0.014783    2.307808    0.000000
      5          1           0        0.639709    3.066078    0.000000
      6          1           0       -0.905174    2.653042    0.000000
 ---------------------------------------------------------------------

 SCF Done:  E(RHF) =  -33.6488492937     A.U. after   11 cycles
 E2 =    -0.2285563457D+00 EUMP2 =    -0.33877405639370D+02
 CCSD(T)
 CCSD(T)= -0.33894490974D+02

 The electronic state is 1-A'.
 Alpha  occ. eigenvalues --   -1.34525  -1.34469  -0.70148  -0.70090  -0.54128
 Alpha  occ. eigenvalues --   -0.53993  -0.49054  -0.48997
 Alpha virt. eigenvalues --    0.21000   0.21227   0.31308   0.31373   0.81418
 Alpha virt. eigenvalues --    0.81631   0.83153   0.86437   0.87702   0.88158
 Alpha virt. eigenvalues --    1.18254   1.18308   1.22729   1.22804   2.58324

 Mulliken charges:
               1
     1  O   -0.730888
     2  H    0.364524
     3  H    0.366366
     4  O   -0.730696
     5  H    0.364171
     6  H    0.366523
 Sum of Mulliken charges =  -0.00000

 Dipole moment (field-independent basis, Debye):
    X=             -0.6787    Y=             -0.0921    Z=              0.0000  Tot=              0.6849
 Quadrupole moment (field-independent basis, Debye-Ang):
   XX=             -8.2068   YY=             12.0504   ZZ=            -14.9852
   XY=             -1.1467   XZ=              0.0000   YZ=              0.0000

 4DQ=-33.8888223\MP4SDQ=-33.8908588\CCSD=-33.8919184\CCSD(T)=-33.894491
 Normal termination of Gaussian 16 at Sun Dec 10 06:30:51 2023.
