 Gaussian 16, Revision A.03,
 Gaussian 16:  ES64L-G16RevA.03 25-Dec-2016

 ------------------
 #p CCSD(T)/CEP-31G
 ------------------

 ------------
 H2O_H2O_2090
 ------------
 Symbolic Z-matrix:
 Charge =  0 Multiplicity = 1

                         Standard orientation:
 ---------------------------------------------------------------------
 Center     Atomic      Atomic             Coordinates (Angstroms)
 Number     Number       Type             X           Y           Z
 ---------------------------------------------------------------------
      1          8           0        0.047542   -1.879698    0.000000
      2          1           0       -0.753253   -2.449113    0.000000
      3          1           0        0.845886   -2.452545    0.000000
      4          8           0        0.047542    1.930260    0.000000
      5          1           0        0.018989    2.912446    0.000000
      6          1           0       -0.872298    1.584717    0.000000
 ---------------------------------------------------------------------

 SCF Done:  E(RHF) =  -33.6496471045     A.U. after   11 cycles
 E2 =    -0.2286891887D+00 EUMP2 =    -0.33878336293223D+02
 CCSD(T)
 CCSD(T)= -0.33895409020D+02

 The electronic state is 1-A'.
 Alpha  occ. eigenvalues --   -1.34958  -1.33856  -0.70589  -0.69432  -0.54589
 Alpha  occ. eigenvalues --   -0.53428  -0.49499  -0.48403
 Alpha virt. eigenvalues --    0.20237   0.22228   0.30880   0.32031   0.77885
 Alpha virt. eigenvalues --    0.80649   0.82537   0.85877   0.87587   0.96573
 Alpha virt. eigenvalues --    1.17845   1.19234   1.22247   1.23686   2.57492

 Mulliken charges:
               1
     1  O   -0.733778
     2  H    0.362165
     3  H    0.371930
     4  O   -0.730410
     5  H    0.357340
     6  H    0.372753
 Sum of Mulliken charges =  -0.00000

 Dipole moment (field-independent basis, Debye):
    X=             -2.1643    Y=             -1.2282    Z=              0.0000  Tot=              2.4885
 Quadrupole moment (field-independent basis, Debye-Ang):
   XX=             -9.5101   YY=              4.7725   ZZ=            -14.9875
   XY=             -3.5397   XZ=              0.0000   YZ=              0.0000

 MP4DQ=-33.8897279\MP4SDQ=-33.8917767\CCSD=-33.8928261\CCSD(T)=-33.8954
 Normal termination of Gaussian 16 at Sun Dec 10 07:05:01 2023.
