 Gaussian 16, Revision A.03,
 Gaussian 16:  ES64L-G16RevA.03 25-Dec-2016

 ------------------
 #p CCSD(T)/CEP-31G
 ------------------

 ------------
 H2O_H2O_4214
 ------------
 Symbolic Z-matrix:
 Charge =  0 Multiplicity = 1

                         Standard orientation:
 ---------------------------------------------------------------------
 Center     Atomic      Atomic             Coordinates (Angstroms)
 Number     Number       Type             X           Y           Z
 ---------------------------------------------------------------------
      1          8           0        0.045340   -3.013104    0.000000
      2          1           0       -0.754965   -3.583208    0.000000
      3          1           0        0.844176   -3.585263    0.000000
      4          8           0        0.045340    3.057677    0.000000
      5          1           0        0.080241    4.039659    0.000000
      6          1           0       -0.894886    2.772226    0.000000
 ---------------------------------------------------------------------

 SCF Done:  E(RHF) =  -33.6511324713     A.U. after   11 cycles
 E2 =    -0.2284224778D+00 EUMP2 =    -0.33879554949046D+02
 CCSD(T)
 CCSD(T)= -0.33896574120D+02

 The electronic state is 1-A'.
 Alpha  occ. eigenvalues --   -1.35272  -1.34908  -0.70902  -0.70529  -0.54970
 Alpha  occ. eigenvalues --   -0.54604  -0.49833  -0.49470
 Alpha virt. eigenvalues --    0.20463   0.20834   0.30699   0.31059   0.80720
 Alpha virt. eigenvalues --    0.81078   0.83807   0.84168   0.86895   0.87311
 Alpha virt. eigenvalues --    1.17602   1.17963   1.22066   1.22429   2.57635

 Mulliken charges:
               1
     1  O   -0.738804
     2  H    0.368103
     3  H    0.370702
     4  O   -0.738418
     5  H    0.367001
     6  H    0.371417
 Sum of Mulliken charges =   0.00000

 Dipole moment (field-independent basis, Debye):
    X=             -2.0918    Y=             -1.0439    Z=              0.0000  Tot=              2.3378
 Quadrupole moment (field-independent basis, Debye-Ang):
   XX=             -9.3723   YY=             15.0571   ZZ=            -14.9877
   XY=             -5.6001   XZ=              0.0000   YZ=              0.0000

 \MP4DQ=-33.8909248\MP4SDQ=-33.8929544\CCSD=-33.8940107\CCSD(T)=-33.896
 Normal termination of Gaussian 16 at Sun Dec 10 06:55:57 2023.
