 Gaussian 16, Revision A.03,
 Gaussian 16:  ES64L-G16RevA.03 25-Dec-2016

 ------------------
 #p CCSD(T)/CEP-31G
 ------------------

 -----------
 H2O_H2O_417
 -----------
 Symbolic Z-matrix:
 Charge =  0 Multiplicity = 1

                         Standard orientation:
 ---------------------------------------------------------------------
 Center     Atomic      Atomic             Coordinates (Angstroms)
 Number     Number       Type             X           Y           Z
 ---------------------------------------------------------------------
      1          8           0        0.051361   -0.981972    0.000000
      2          1           0       -0.750687   -1.549620    0.000000
      3          1           0        0.848440   -1.556577    0.000000
      4          8           0        0.051361    1.045231    0.000000
      5          1           0       -0.103010    2.015630    0.000000
      6          1           0       -0.816525    0.584493    0.000000
 ---------------------------------------------------------------------

 SCF Done:  E(RHF) =  -33.6052771902     A.U. after   11 cycles
 E2 =    -0.2322715734D+00 EUMP2 =    -0.33837548763667D+02
 CCSD(T)
 CCSD(T)= -0.33854665135D+02

 The electronic state is 1-A'.
 Alpha  occ. eigenvalues --   -1.35869  -1.30482  -0.71726  -0.68546  -0.54656
 Alpha  occ. eigenvalues --   -0.50405  -0.46725  -0.44707
 Alpha virt. eigenvalues --    0.19797   0.27530   0.30694   0.34112   0.78927
 Alpha virt. eigenvalues --    0.84788   0.89892   0.96173   0.99486   1.15232
 Alpha virt. eigenvalues --    1.19281   1.23949   1.26349   1.32385   2.60194

 Mulliken charges:
               1
     1  O   -0.773991
     2  H    0.353334
     3  H    0.400146
     4  O   -0.666449
     5  H    0.324477
     6  H    0.362483
 Sum of Mulliken charges =  -0.00000

 Dipole moment (field-independent basis, Debye):
    X=             -2.0309    Y=             -1.5987    Z=              0.0000  Tot=              2.5846
 Quadrupole moment (field-independent basis, Debye-Ang):
   XX=             -9.7808   YY=             -4.7355   ZZ=            -14.9916
   XY=             -1.9713   XZ=              0.0000   YZ=              0.0000

 P4DQ=-33.8484213\MP4SDQ=-33.8507489\CCSD=-33.8516845\CCSD(T)=-33.85466
 Normal termination of Gaussian 16 at Sun Dec 10 06:32:34 2023.
