 Gaussian 16, Revision A.03,
 Gaussian 16:  ES64L-G16RevA.03 25-Dec-2016

 ------------------
 #p CCSD(T)/CEP-31G
 ------------------

 ------------
 H2O_H2O_2468
 ------------
 Symbolic Z-matrix:
 Charge =  0 Multiplicity = 1

                         Standard orientation:
 ---------------------------------------------------------------------
 Center     Atomic      Atomic             Coordinates (Angstroms)
 Number     Number       Type             X           Y           Z
 ---------------------------------------------------------------------
      1          8           0        0.052842   -2.068425    0.000000
      2          1           0       -0.747961   -2.637829    0.000000
      3          1           0        0.851178   -2.641282    0.000000
      4          8           0        0.052842    2.138711    0.000000
      5          1           0       -0.166765    3.096457    0.000000
      6          1           0       -0.781920    1.620367    0.000000
 ---------------------------------------------------------------------

 SCF Done:  E(RHF) =  -33.6511443165     A.U. after   11 cycles
 E2 =    -0.2285305337D+00 EUMP2 =    -0.33879674850223D+02
 CCSD(T)
 CCSD(T)= -0.33896696421D+02

 The electronic state is 1-A'.
 Alpha  occ. eigenvalues --   -1.35354  -1.34107  -0.70987  -0.69690  -0.55052
 Alpha  occ. eigenvalues --   -0.53784  -0.49915  -0.48672
 Alpha virt. eigenvalues --    0.20096   0.21898   0.30575   0.31891   0.80571
 Alpha virt. eigenvalues --    0.80976   0.81924   0.85620   0.86774   0.90966
 Alpha virt. eigenvalues --    1.17517   1.18902   1.21914   1.23512   2.57458

 Mulliken charges:
               1
     1  O   -0.738888
     2  H    0.365441
     3  H    0.373638
     4  O   -0.736749
     5  H    0.360602
     6  H    0.375956
 Sum of Mulliken charges =  -0.00000

 Dipole moment (field-independent basis, Debye):
    X=             -2.4180    Y=             -1.6868    Z=              0.0000  Tot=              2.9482
 Quadrupole moment (field-independent basis, Debye-Ang):
   XX=             -9.8447   YY=              4.8267   ZZ=            -14.9889
   XY=             -4.7314   XZ=              0.0000   YZ=              0.0000

 1\MP4DQ=-33.8910391\MP4SDQ=-33.8930751\CCSD=-33.8941256\CCSD(T)=-33.89
 Normal termination of Gaussian 16 at Sun Dec 10 07:11:48 2023.
