 Gaussian 16, Revision A.03,
 Gaussian 16:  ES64L-G16RevA.03 25-Dec-2016

 ------------------
 #p CCSD(T)/CEP-31G
 ------------------

 ------------
 H2O_H2O_3911
 ------------
 Symbolic Z-matrix:
 Charge =  0 Multiplicity = 1

                         Standard orientation:
 ---------------------------------------------------------------------
 Center     Atomic      Atomic             Coordinates (Angstroms)
 Number     Number       Type             X           Y           Z
 ---------------------------------------------------------------------
      1          8           0        0.037673   -2.862412    0.000000
      2          1           0       -0.762541   -3.432643    0.000000
      3          1           0        0.836600   -3.434445    0.000000
      4          8           0        0.037673    2.890674    0.000000
      5          1           0        0.263327    3.847013    0.000000
      6          1           0       -0.940160    2.793981    0.000000
 ---------------------------------------------------------------------

 SCF Done:  E(RHF) =  -33.6507157629     A.U. after   11 cycles
 E2 =    -0.2284456864D+00 EUMP2 =    -0.33879161449328D+02
 CCSD(T)
 CCSD(T)= -0.33896192675D+02

 The electronic state is 1-A'.
 Alpha  occ. eigenvalues --   -1.35100  -1.34842  -0.70729  -0.70463  -0.54775
 Alpha  occ. eigenvalues --   -0.54516  -0.49656  -0.49398
 Alpha virt. eigenvalues --    0.20612   0.20874   0.30845   0.31098   0.80898
 Alpha virt. eigenvalues --    0.81151   0.84016   0.84290   0.87096   0.87403
 Alpha virt. eigenvalues --    1.17756   1.18011   1.22223   1.22479   2.57799

 Mulliken charges:
               1
     1  O   -0.737337
     2  H    0.367401
     3  H    0.369936
     4  O   -0.736945
     5  H    0.366515
     6  H    0.370430
 Sum of Mulliken charges =  -0.00000

 Dipole moment (field-independent basis, Debye):
    X=             -1.7369    Y=             -0.6631    Z=              0.0000  Tot=              1.8592
 Quadrupole moment (field-independent basis, Debye-Ang):
   XX=             -8.9609   YY=             15.5176   ZZ=            -14.9871
   XY=             -4.1824   XZ=              0.0000   YZ=              0.0000

 \MP4DQ=-33.8905401\MP4SDQ=-33.8925708\CCSD=-33.8936278\CCSD(T)=-33.896
 Normal termination of Gaussian 16 at Sun Dec 10 06:50:27 2023.
