 Gaussian 16, Revision A.03,
 Gaussian 16:  ES64L-G16RevA.03 25-Dec-2016

 ------------------
 #p CCSD(T)/CEP-31G
 ------------------

 ------------
 H2O_H2O_2187
 ------------
 Symbolic Z-matrix:
 Charge =  0 Multiplicity = 1

                         Standard orientation:
 ---------------------------------------------------------------------
 Center     Atomic      Atomic             Coordinates (Angstroms)
 Number     Number       Type             X           Y           Z
 ---------------------------------------------------------------------
      1          8           0        0.040415   -1.942250    0.000000
      2          1           0       -0.760169   -2.511962    0.000000
      3          1           0        0.838971   -2.514800    0.000000
      4          8           0        0.040415    1.975562    0.000000
      5          1           0        0.203666    2.944508    0.000000
      6          1           0       -0.929104    1.815752    0.000000
 ---------------------------------------------------------------------

 SCF Done:  E(RHF) =  -33.6487835323     A.U. after   11 cycles
 E2 =    -0.2286774561D+00 EUMP2 =    -0.33877460988447D+02
 CCSD(T)
 CCSD(T)= -0.33894554302D+02

 The electronic state is 1-A'.
 Alpha  occ. eigenvalues --   -1.34676  -1.33997  -0.70304  -0.69589  -0.54279
 Alpha  occ. eigenvalues --   -0.53502  -0.49206  -0.48529
 Alpha virt. eigenvalues --    0.20590   0.21923   0.31148   0.31820   0.78806
 Alpha virt. eigenvalues --    0.80981   0.82372   0.86043   0.88025   0.94823
 Alpha virt. eigenvalues --    1.18098   1.18864   1.22557   1.23323   2.57953

 Mulliken charges:
               1
     1  O   -0.730833
     2  H    0.361618
     3  H    0.369369
     4  O   -0.728338
     5  H    0.358587
     6  H    0.369597
 Sum of Mulliken charges =  -0.00000

 Dipole moment (field-independent basis, Debye):
    X=             -1.8429    Y=             -0.8059    Z=              0.0000  Tot=              2.0114
 Quadrupole moment (field-independent basis, Debye-Ang):
   XX=             -9.1166   YY=              6.4566   ZZ=            -14.9861
   XY=             -2.8878   XZ=              0.0000   YZ=              0.0000

 MP4DQ=-33.8888729\MP4SDQ=-33.890919\CCSD=-33.8919726\CCSD(T)=-33.89455
 Normal termination of Gaussian 16 at Sun Dec 10 07:06:46 2023.
