 Gaussian 16, Revision A.03,
 Gaussian 16:  ES64L-G16RevA.03 25-Dec-2016

 ------------------
 #p CCSD(T)/CEP-31G
 ------------------

 -----------
 H2O_H2O_247
 -----------
 Symbolic Z-matrix:
 Charge =  0 Multiplicity = 1

                         Standard orientation:
 ---------------------------------------------------------------------
 Center     Atomic      Atomic             Coordinates (Angstroms)
 Number     Number       Type             X           Y           Z
 ---------------------------------------------------------------------
      1          8           0        0.056887   -0.869643    0.000000
      2          1           0       -0.745702   -1.436526    0.000000
      3          1           0        0.853418   -1.445008    0.000000
      4          8           0        0.056887    0.968357    0.000000
      5          1           0       -0.400387    1.838074    0.000000
      6          1           0       -0.617524    0.253741    0.000000
 ---------------------------------------------------------------------

 SCF Done:  E(RHF) =  -33.5418296253     A.U. after   11 cycles
 E2 =    -0.2336088005D+00 EUMP2 =    -0.33775438425798D+02
 CCSD(T)
 CCSD(T)= -0.33791381609D+02

 The electronic state is 1-A'.
 Alpha  occ. eigenvalues --   -1.41096  -1.28538  -0.77747  -0.71920  -0.54215
 Alpha  occ. eigenvalues --   -0.49803  -0.46231  -0.42937
 Alpha virt. eigenvalues --    0.18776   0.28012   0.29949   0.37215   0.78101
 Alpha virt. eigenvalues --    0.84143   0.90354   0.93969   0.98559   1.16681
 Alpha virt. eigenvalues --    1.18623   1.23581   1.32490   1.35061   2.79645

 Mulliken charges:
               1
     1  O   -0.796944
     2  H    0.366186
     3  H    0.445568
     4  O   -0.678001
     5  H    0.291534
     6  H    0.371656
 Sum of Mulliken charges =  -0.00000

 Dipole moment (field-independent basis, Debye):
    X=             -2.1237    Y=             -2.8376    Z=              0.0000  Tot=              3.5443
 Quadrupole moment (field-independent basis, Debye-Ang):
   XX=            -10.0743   YY=             -7.3647   ZZ=            -14.9450
   XY=             -2.4026   XZ=              0.0000   YZ=              0.0000

 4DQ=-33.7848024\MP4SDQ=-33.7873429\CCSD=-33.7880256\CCSD(T)=-33.791381
 Normal termination of Gaussian 16 at Sun Dec 10 06:29:22 2023.
