 Gaussian 16, Revision A.03,
 Gaussian 16:  ES64L-G16RevA.03 25-Dec-2016

 ------------------
 #p CCSD(T)/CEP-31G
 ------------------

 ------------
 H2O_H2O_3258
 ------------
 Symbolic Z-matrix:
 Charge =  0 Multiplicity = 1

                         Standard orientation:
 ---------------------------------------------------------------------
 Center     Atomic      Atomic             Coordinates (Angstroms)
 Number     Number       Type             X           Y           Z
 ---------------------------------------------------------------------
      1          8           0        0.028564   -2.523786    0.000000
      2          1           0       -0.771561   -3.094141    0.000000
      3          1           0        0.827580   -3.095694    0.000000
      4          8           0        0.028564    2.539034    0.000000
      5          1           0        0.436316    3.433038    0.000000
      6          1           0       -0.949358    2.634813    0.000000
 ---------------------------------------------------------------------

 SCF Done:  E(RHF) =  -33.6498618476     A.U. after   11 cycles
 E2 =    -0.2284976163D+00 EUMP2 =    -0.33878359463873D+02
 CCSD(T)
 CCSD(T)= -0.33895415476D+02

 The electronic state is 1-A'.
 Alpha  occ. eigenvalues --   -1.34821  -1.34640  -0.70447  -0.70259  -0.54448
 Alpha  occ. eigenvalues --   -0.54264  -0.49364  -0.49184
 Alpha virt. eigenvalues --    0.20833   0.21038   0.31075   0.31248   0.81185
 Alpha virt. eigenvalues --    0.81369   0.83983   0.84975   0.87429   0.87712
 Alpha virt. eigenvalues --    1.17999   1.18177   1.22474   1.22653   2.58062

 Mulliken charges:
               1
     1  O   -0.734380
     2  H    0.365815
     3  H    0.368566
     4  O   -0.733936
     5  H    0.365051
     6  H    0.368884
 Sum of Mulliken charges =   0.00000

 Dipole moment (field-independent basis, Debye):
    X=             -1.3141    Y=             -0.3600    Z=              0.0000  Tot=              1.3625
 Quadrupole moment (field-independent basis, Debye-Ang):
   XX=             -8.5786   YY=             13.4517   ZZ=            -14.9862
   XY=             -2.6062   XZ=              0.0000   YZ=              0.0000

 \MP4DQ=-33.8897558\MP4SDQ=-33.891789\CCSD=-33.8928472\CCSD(T)=-33.8954
 Normal termination of Gaussian 16 at Sun Dec 10 06:38:30 2023.
