 Gaussian 16, Revision A.03,
 Gaussian 16:  ES64L-G16RevA.03 25-Dec-2016

 ------------------
 #p CCSD(T)/CEP-31G
 ------------------

 ------------
 H2O_H2O_2582
 ------------
 Symbolic Z-matrix:
 Charge =  0 Multiplicity = 1

                         Standard orientation:
 ---------------------------------------------------------------------
 Center     Atomic      Atomic             Coordinates (Angstroms)
 Number     Number       Type             X           Y           Z
 ---------------------------------------------------------------------
      1          8           0        0.025266   -2.166707    0.000000
      2          1           0       -0.774876   -2.737038    0.000000
      3          1           0        0.824265   -2.738639    0.000000
      4          8           0        0.025266    2.178436    0.000000
      5          1           0        0.490641    3.043845    0.000000
      6          1           0       -0.944293    2.337998    0.000000
 ---------------------------------------------------------------------

 SCF Done:  E(RHF) =  -33.6486283404     A.U. after   11 cycles
 E2 =    -0.2285923873D+00 EUMP2 =    -0.33877220727654D+02
 CCSD(T)
 CCSD(T)= -0.33894313116D+02

 The electronic state is 1-A'.
 Alpha  occ. eigenvalues --   -1.34514  -1.34323  -0.70137  -0.69937  -0.54106
 Alpha  occ. eigenvalues --   -0.53827  -0.49040  -0.48849
 Alpha virt. eigenvalues --    0.20949   0.21407   0.31315   0.31494   0.81369
 Alpha virt. eigenvalues --    0.81838   0.81976   0.86629   0.87918   0.89538
 Alpha virt. eigenvalues --    1.18257   1.18445   1.22744   1.22939   2.58294

 Mulliken charges:
               1
     1  O   -0.730181
     2  H    0.363254
     3  H    0.366943
     4  O   -0.729477
     5  H    0.362330
     6  H    0.367131
 Sum of Mulliken charges =  -0.00000

 Dipole moment (field-independent basis, Debye):
    X=             -1.1577    Y=             -0.2803    Z=              0.0000  Tot=              1.1911
 Quadrupole moment (field-independent basis, Debye-Ang):
   XX=             -8.4802   YY=             10.0741   ZZ=            -14.9852
   XY=             -1.8732   XZ=              0.0000   YZ=              0.0000

 MP4DQ=-33.8886407\MP4SDQ=-33.8906794\CCSD=-33.891738\CCSD(T)=-33.89431
 Normal termination of Gaussian 16 at Sun Dec 10 06:26:15 2023.
