 Gaussian 16, Revision A.03,
 Gaussian 16:  ES64L-G16RevA.03 25-Dec-2016

 ------------------
 #p CCSD(T)/CEP-31G
 ------------------

 -----------
 H2O_H2O_768
 -----------
 Symbolic Z-matrix:
 Charge =  0 Multiplicity = 1

                         Standard orientation:
 ---------------------------------------------------------------------
 Center     Atomic      Atomic             Coordinates (Angstroms)
 Number     Number       Type             X           Y           Z
 ---------------------------------------------------------------------
      1          8           0        0.052899   -1.164393    0.000000
      2          1           0       -0.748829   -1.732493    0.000000
      3          1           0        0.850301   -1.738549    0.000000
      4          8           0        0.052899    1.234506    0.000000
      5          1           0       -0.165148    2.192610    0.000000
      6          1           0       -0.782705    0.717523    0.000000
 ---------------------------------------------------------------------

 SCF Done:  E(RHF) =  -33.6389764295     A.U. after   11 cycles
 E2 =    -0.2305195644D+00 EUMP2 =    -0.33869495993848D+02
 CCSD(T)
 CCSD(T)= -0.33886687965D+02

 The electronic state is 1-A'.
 Alpha  occ. eigenvalues --   -1.35311  -1.31539  -0.70996  -0.67940  -0.54639
 Alpha  occ. eigenvalues --   -0.50362  -0.49912  -0.45964
 Alpha virt. eigenvalues --    0.19658   0.26171   0.30669   0.34106   0.77788
 Alpha virt. eigenvalues --    0.83872   0.88791   0.92274   0.95045   1.14930
 Alpha virt. eigenvalues --    1.19255   1.21213   1.23781   1.30675   2.64935

 Mulliken charges:
               1
     1  O   -0.755582
     2  H    0.356176
     3  H    0.391776
     4  O   -0.699432
     5  H    0.333745
     6  H    0.373316
 Sum of Mulliken charges =  -0.00000

 Dipole moment (field-independent basis, Debye):
    X=             -2.2344    Y=             -1.7846    Z=              0.0000  Tot=              2.8596
 Quadrupole moment (field-independent basis, Debye-Ang):
   XX=             -9.8529   YY=             -2.7169   ZZ=            -14.9975
   XY=             -2.5963   XZ=              0.0000   YZ=              0.0000

 P4DQ=-33.8806956\MP4SDQ=-33.8828894\CCSD=-33.883909\CCSD(T)=-33.886688
 Normal termination of Gaussian 16 at Sun Dec 10 06:39:06 2023.
