 Gaussian 16, Revision A.03,
 Gaussian 16:  ES64L-G16RevA.03 25-Dec-2016

 ------------------
 #p CCSD(T)/CEP-31G
 ------------------

 -----------
 H2O_H2O_898
 -----------
 Symbolic Z-matrix:
 Charge =  0 Multiplicity = 1

                         Standard orientation:
 ---------------------------------------------------------------------
 Center     Atomic      Atomic             Coordinates (Angstroms)
 Number     Number       Type             X           Y           Z
 ---------------------------------------------------------------------
      1          8           0        0.057198   -1.211214    0.000000
      2          1           0       -0.744583   -1.779239    0.000000
      3          1           0        0.854547   -1.785444    0.000000
      4          8           0        0.057198    1.317526    0.000000
      5          1           0       -0.457173    2.154742    0.000000
      6          1           0       -0.567953    0.559441    0.000000
 ---------------------------------------------------------------------

 SCF Done:  E(RHF) =  -33.6487812685     A.U. after   11 cycles
 E2 =    -0.2299959707D+00 EUMP2 =    -0.33878777239167D+02
 CCSD(T)
 CCSD(T)= -0.33895586191D+02

 The electronic state is 1-A'.
 Alpha  occ. eigenvalues --   -1.36971  -1.31221  -0.72639  -0.68243  -0.55615
 Alpha  occ. eigenvalues --   -0.51565  -0.51125  -0.45786
 Alpha virt. eigenvalues --    0.18855   0.26724   0.29382   0.36764   0.76661
 Alpha virt. eigenvalues --    0.81217   0.88147   0.88397   0.97309   1.11796
 Alpha virt. eigenvalues --    1.18450   1.19849   1.24299   1.31257   2.64067

 Mulliken charges:
               1
     1  O   -0.774722
     2  H    0.368327
     3  H    0.408899
     4  O   -0.730439
     5  H    0.332986
     6  H    0.394948
 Sum of Mulliken charges =  -0.00000

 Dipole moment (field-independent basis, Debye):
    X=             -2.4509    Y=             -2.8121    Z=              0.0000  Tot=              3.7303
 Quadrupole moment (field-independent basis, Debye-Ang):
   XX=            -10.1119   YY=             -3.9497   ZZ=            -15.0067
   XY=             -3.5905   XZ=              0.0000   YZ=              0.0000

 \MP4DQ=-33.8896401\MP4SDQ=-33.89182\CCSD=-33.8927917\CCSD(T)=-33.89558
 Normal termination of Gaussian 16 at Sun Dec 10 06:41:33 2023.
