 Gaussian 16, Revision A.03,
 Gaussian 16:  ES64L-G16RevA.03 25-Dec-2016

 ------------------
 #p CCSD(T)/CEP-31G
 ------------------

 ------------
 H2O_H2O_3794
 ------------
 Symbolic Z-matrix:
 Charge =  0 Multiplicity = 1

                         Standard orientation:
 ---------------------------------------------------------------------
 Center     Atomic      Atomic             Coordinates (Angstroms)
 Number     Number       Type             X           Y           Z
 ---------------------------------------------------------------------
      1          8           0        0.054146   -2.769284    0.000000
      2          1           0       -0.746370   -3.339089    0.000000
      3          1           0        0.852769   -3.341741    0.000000
      4          8           0        0.054146    2.846614    0.000000
      5          1           0       -0.228102    3.787805    0.000000
      6          1           0       -0.744639    2.274384    0.000000
 ---------------------------------------------------------------------

 SCF Done:  E(RHF) =  -33.6516047759     A.U. after   11 cycles
 E2 =    -0.2284064087D+00 EUMP2 =    -0.33880011184534D+02
 CCSD(T)
 CCSD(T)= -0.33897016585D+02

 The electronic state is 1-A'.
 Alpha  occ. eigenvalues --   -1.35496  -1.34757  -0.71129  -0.70371  -0.55222
 Alpha  occ. eigenvalues --   -0.54473  -0.50065  -0.49326
 Alpha virt. eigenvalues --    0.20262   0.21027   0.30504   0.31250   0.80488
 Alpha virt. eigenvalues --    0.81214   0.83516   0.84279   0.86634   0.87463
 Alpha virt. eigenvalues --    1.17398   1.18132   1.21857   1.22606   2.57417

 Mulliken charges:
               1
     1  O   -0.740502
     2  H    0.368382
     3  H    0.372121
     4  O   -0.739973
     5  H    0.366178
     6  H    0.373794
 Sum of Mulliken charges =   0.00000

 Dipole moment (field-independent basis, Debye):
    X=             -2.4955    Y=             -1.8170    Z=              0.0000  Tot=              3.0869
 Quadrupole moment (field-independent basis, Debye-Ang):
   XX=             -9.9409   YY=              9.2560   ZZ=            -14.9886
   XY=             -6.6987   XZ=              0.0000   YZ=              0.0000

 \MP4DQ=-33.8913709\MP4SDQ=-33.8933992\CCSD=-33.8944543\CCSD(T)=-33.897
 Normal termination of Gaussian 16 at Sun Dec 10 06:48:17 2023.
