 Gaussian 16, Revision A.03,
 Gaussian 16:  ES64L-G16RevA.03 25-Dec-2016

 ------------------
 #p CCSD(T)/CEP-31G
 ------------------

 ------------
 H2O_H2O_3576
 ------------
 Symbolic Z-matrix:
 Charge =  0 Multiplicity = 1

                         Standard orientation:
 ---------------------------------------------------------------------
 Center     Atomic      Atomic             Coordinates (Angstroms)
 Number     Number       Type             X           Y           Z
 ---------------------------------------------------------------------
      1          8           0        0.003735   -2.704782    0.000000
      2          1           0       -0.795904   -3.275819    0.000000
      3          1           0        0.803238   -3.276009    0.000000
      4          8           0        0.003735    2.705025    0.000000
      5          1           0        0.764315    3.327138    0.000000
      6          1           0       -0.831416    3.222739    0.000000
 ---------------------------------------------------------------------

 SCF Done:  E(RHF) =  -33.6498782077     A.U. after   10 cycles
 E2 =    -0.2284840840D+00 EUMP2 =    -0.33878362291694D+02
 CCSD(T)
 CCSD(T)= -0.33895417580D+02

 The electronic state is 1-A'.
 Alpha  occ. eigenvalues --   -1.34773  -1.34771  -0.70398  -0.70396  -0.54406
 Alpha  occ. eigenvalues --   -0.54390  -0.49316  -0.49313
 Alpha virt. eigenvalues --    0.20880   0.20910   0.31120   0.31126   0.81230
 Alpha virt. eigenvalues --    0.81247   0.84255   0.84662   0.87465   0.87503
 Alpha virt. eigenvalues --    1.18048   1.18050   1.22520   1.22527   2.58103

 Mulliken charges:
               1
     1  O   -0.734385
     2  H    0.367042
     3  H    0.367343
     4  O   -0.734380
     5  H    0.366990
     6  H    0.367390
 Sum of Mulliken charges =   0.00000

 Dipole moment (field-independent basis, Debye):
    X=             -0.1721    Y=             -0.0057    Z=              0.0000  Tot=              0.1722
 Quadrupole moment (field-independent basis, Debye-Ang):
   XX=             -8.0587   YY=             16.6240   ZZ=            -14.9860
   XY=             -0.3521   XZ=              0.0000   YZ=              0.0000

 MP4DQ=-33.8897584\MP4SDQ=-33.8917912\CCSD=-33.8928499\CCSD(T)=-33.8954
 Normal termination of Gaussian 16 at Sun Dec 10 06:44:16 2023.
