 Gaussian 16, Revision A.03,
 Gaussian 16:  ES64L-G16RevA.03 25-Dec-2016

 ------------------
 #p CCSD(T)/CEP-31G
 ------------------

 ------------
 H2O_H2O_2593
 ------------
 Symbolic Z-matrix:
 Charge =  0 Multiplicity = 1

                         Standard orientation:
 ---------------------------------------------------------------------
 Center     Atomic      Atomic             Coordinates (Angstroms)
 Number     Number       Type             X           Y           Z
 ---------------------------------------------------------------------
      1          8           0        0.052839   -2.134901    0.000000
      2          1           0       -0.747925   -2.704358    0.000000
      3          1           0        0.851213   -2.707705    0.000000
      4          8           0        0.052839    2.205194    0.000000
      5          1           0       -0.166830    3.162927    0.000000
      6          1           0       -0.781888    1.686795    0.000000
 ---------------------------------------------------------------------

 SCF Done:  E(RHF) =  -33.6511857793     A.U. after   11 cycles
 E2 =    -0.2285053412D+00 EUMP2 =    -0.33879691120480D+02
 CCSD(T)
 CCSD(T)= -0.33896710406D+02

 The electronic state is 1-A'.
 Alpha  occ. eigenvalues --   -1.35361  -1.34196  -0.70994  -0.69784  -0.55063
 Alpha  occ. eigenvalues --   -0.53878  -0.49923  -0.48762
 Alpha virt. eigenvalues --    0.20161   0.21750   0.30581   0.31796   0.80595
 Alpha virt. eigenvalues --    0.81711   0.81804   0.85493   0.86764   0.89905
 Alpha virt. eigenvalues --    1.17513   1.18762   1.21925   1.23336   2.57522

 Mulliken charges:
               1
     1  O   -0.739059
     2  H    0.365830
     3  H    0.373357
     4  O   -0.737181
     5  H    0.361439
     6  H    0.375615
 Sum of Mulliken charges =   0.00000

 Dipole moment (field-independent basis, Debye):
    X=             -2.4208    Y=             -1.6811    Z=              0.0000  Tot=              2.9472
 Quadrupole moment (field-independent basis, Debye-Ang):
   XX=             -9.8452   YY=              5.3288   ZZ=            -14.9888
   XY=             -4.8891   XZ=              0.0000   YZ=              0.0000

 4\MP4DQ=-33.8910561\MP4SDQ=-33.8930899\CCSD=-33.8941416\CCSD(T)=-33.89
 Normal termination of Gaussian 16 at Sun Dec 10 06:26:27 2023.
