 Gaussian 16, Revision A.03,
 Gaussian 16:  ES64L-G16RevA.03 25-Dec-2016

 ------------------
 #p CCSD(T)/CEP-31G
 ------------------

 -----------
 H2O_H2O_158
 -----------
 Symbolic Z-matrix:
 Charge =  0 Multiplicity = 1

                         Standard orientation:
 ---------------------------------------------------------------------
 Center     Atomic      Atomic             Coordinates (Angstroms)
 Number     Number       Type             X           Y           Z
 ---------------------------------------------------------------------
      1          8           0        0.028578   -0.875147    0.000000
      2          1           0       -0.772581   -1.444050    0.000000
      3          1           0        0.826555   -1.448503    0.000000
      4          8           0        0.028578    0.890291    0.000000
      5          1           0        0.437951    1.783555    0.000000
      6          1           0       -0.949169    0.987844    0.000000
 ---------------------------------------------------------------------

 SCF Done:  E(RHF) =  -33.5380967910     A.U. after   11 cycles
 E2 =    -0.2355014730D+00 EUMP2 =    -0.33773598264075D+02
 CCSD(T)
 CCSD(T)= -0.33790424573D+02

 The electronic state is 1-A'.
 Alpha  occ. eigenvalues --   -1.35702  -1.29413  -0.70517  -0.67157  -0.61062
 Alpha  occ. eigenvalues --   -0.50462  -0.43066  -0.36577
 Alpha virt. eigenvalues --    0.20889   0.27807   0.31840   0.33552   0.81641
 Alpha virt. eigenvalues --    0.82614   0.89595   0.92237   1.01230   1.19639
 Alpha virt. eigenvalues --    1.22118   1.24045   1.27190   1.34940   2.51186

 Mulliken charges:
               1
     1  O   -0.722060
     2  H    0.336175
     3  H    0.375520
     4  O   -0.675830
     5  H    0.344471
     6  H    0.341724
 Sum of Mulliken charges =   0.00000

 Dipole moment (field-independent basis, Debye):
    X=             -1.0535    Y=             -0.3917    Z=              0.0000  Tot=              1.1240
 Quadrupole moment (field-independent basis, Debye-Ang):
   XX=             -8.8739   YY=             -6.2945   ZZ=            -15.0076
   XY=             -0.6741   XZ=              0.0000   YZ=              0.0000

 P4DQ=-33.7838255\MP4SDQ=-33.7863923\CCSD=-33.7871592\CCSD(T)=-33.79042
 Normal termination of Gaussian 16 at Sun Dec 10 06:27:42 2023.
