 Gaussian 16, Revision A.03,
 Gaussian 16:  ES64L-G16RevA.03 25-Dec-2016

 ------------------
 #p CCSD(T)/CEP-31G
 ------------------

 ------------
 H2O_H2O_2216
 ------------
 Symbolic Z-matrix:
 Charge =  0 Multiplicity = 1

                         Standard orientation:
 ---------------------------------------------------------------------
 Center     Atomic      Atomic             Coordinates (Angstroms)
 Number     Number       Type             X           Y           Z
 ---------------------------------------------------------------------
      1          8           0        0.049523   -1.942735    0.000000
      2          1           0       -0.751280   -2.512139    0.000000
      3          1           0        0.847858   -2.515593    0.000000
      4          8           0        0.049523    1.999635    0.000000
      5          1           0       -0.043193    2.977852    0.000000
      6          1           0       -0.845754    1.594685    0.000000
 ---------------------------------------------------------------------

 SCF Done:  E(RHF) =  -33.6502293986     A.U. after   11 cycles
 E2 =    -0.2286274743D+00 EUMP2 =    -0.33878856872864D+02
 CCSD(T)
 CCSD(T)= -0.33895908861D+02

 The electronic state is 1-A'.
 Alpha  occ. eigenvalues --   -1.35102  -1.33946  -0.70734  -0.69524  -0.54754
 Alpha  occ. eigenvalues --   -0.53565  -0.49651  -0.48501
 Alpha virt. eigenvalues --    0.20185   0.22108   0.30766   0.31985   0.78979
 Alpha virt. eigenvalues --    0.80660   0.82273   0.85860   0.87212   0.94366
 Alpha virt. eigenvalues --    1.17727   1.19110   1.22118   1.23632   2.57486

 Mulliken charges:
               1
     1  O   -0.735741
     2  H    0.363382
     3  H    0.372633
     4  O   -0.732791
     5  H    0.358535
     6  H    0.373982
 Sum of Mulliken charges =   0.00000

 Dipole moment (field-independent basis, Debye):
    X=             -2.2590    Y=             -1.3757    Z=              0.0000  Tot=              2.6449
 Quadrupole moment (field-independent basis, Debye-Ang):
   XX=             -9.6297   YY=              4.8673   ZZ=            -14.9880
   XY=             -3.9312   XZ=              0.0000   YZ=              0.0000

 2\MP4DQ=-33.8902378\MP4SDQ=-33.8922812\CCSD=-33.8933309\CCSD(T)=-33.89
 Normal termination of Gaussian 16 at Sun Dec 10 07:07:17 2023.
