 Gaussian 16, Revision A.03,
 Gaussian 16:  ES64L-G16RevA.03 25-Dec-2016

 ------------------
 #p CCSD(T)/CEP-31G
 ------------------

 ------------
 H2O_H2O_2129
 ------------
 Symbolic Z-matrix:
 Charge =  0 Multiplicity = 1

                         Standard orientation:
 ---------------------------------------------------------------------
 Center     Atomic      Atomic             Coordinates (Angstroms)
 Number     Number       Type             X           Y           Z
 ---------------------------------------------------------------------
      1          8           0        0.014783   -1.931648    0.000000
      2          1           0       -0.785163   -2.502253    0.000000
      3          1           0        0.813978   -2.503306    0.000000
      4          8           0        0.014783    1.935520    0.000000
      5          1           0        0.639789    2.693725    0.000000
      6          1           0       -0.905137    2.280853    0.000000
 ---------------------------------------------------------------------

 SCF Done:  E(RHF) =  -33.6468690260     A.U. after   11 cycles
 E2 =    -0.2287293447D+00 EUMP2 =    -0.33875598370757D+02
 CCSD(T)
 CCSD(T)= -0.33892746156D+02

 The electronic state is 1-A'.
 Alpha  occ. eigenvalues --   -1.34118  -1.34036  -0.69739  -0.69651  -0.53801
 Alpha  occ. eigenvalues --   -0.53224  -0.48635  -0.48520
 Alpha virt. eigenvalues --    0.21040   0.21811   0.31567   0.31749   0.78941
 Alpha virt. eigenvalues --    0.81284   0.82648   0.86652   0.89640   0.94028
 Alpha virt. eigenvalues --    1.18584   1.18668   1.23013   1.23279   2.58241

 Mulliken charges:
               1
     1  O   -0.724285
     2  H    0.360675
     3  H    0.363633
     4  O   -0.723875
     5  H    0.360141
     6  H    0.363711
 Sum of Mulliken charges =  -0.00000

 Dipole moment (field-independent basis, Debye):
    X=             -0.6745    Y=             -0.0941    Z=              0.0000  Tot=              0.6810
 Quadrupole moment (field-independent basis, Debye-Ang):
   XX=             -8.2369   YY=              8.0554   ZZ=            -14.9840
   XY=             -0.9067   XZ=              0.0000   YZ=              0.0000

 P4DQ=-33.8870491\MP4SDQ=-33.8890997\CCSD=-33.8901587\CCSD(T)=-33.89274
 Normal termination of Gaussian 16 at Sun Dec 10 07:05:43 2023.
