 Gaussian 16, Revision A.03,
 Gaussian 16:  ES64L-G16RevA.03 25-Dec-2016

 ------------------
 #p CCSD(T)/CEP-31G
 ------------------

 ------------
 H2O_H2O_3663
 ------------
 Symbolic Z-matrix:
 Charge =  0 Multiplicity = 1

                         Standard orientation:
 ---------------------------------------------------------------------
 Center     Atomic      Atomic             Coordinates (Angstroms)
 Number     Number       Type             X           Y           Z
 ---------------------------------------------------------------------
      1          8           0        0.042966   -2.723732    0.000000
      2          1           0       -0.757374   -3.293786    0.000000
      3          1           0        0.841767   -3.295940    0.000000
      4          8           0        0.042966    2.762527    0.000000
      5          1           0        0.142078    3.740118    0.000000
      6          1           0       -0.913930    2.539241    0.000000
 ---------------------------------------------------------------------

 SCF Done:  E(RHF) =  -33.6507734835     A.U. after   11 cycles
 E2 =    -0.2284490699D+00 EUMP2 =    -0.33879222553370D+02
 CCSD(T)
 CCSD(T)= -0.33896252162D+02

 The electronic state is 1-A'.
 Alpha  occ. eigenvalues --   -1.35147  -1.34757  -0.70776  -0.70374  -0.54825
 Alpha  occ. eigenvalues --   -0.54433  -0.49703  -0.49314
 Alpha virt. eigenvalues --    0.20566   0.20967   0.30802   0.31185   0.80850
 Alpha virt. eigenvalues --    0.81233   0.83935   0.84390   0.87043   0.87513
 Alpha virt. eigenvalues --    1.17711   1.18098   1.22178   1.22567   2.57752

 Mulliken charges:
               1
     1  O   -0.737564
     2  H    0.367143
     3  H    0.370422
     4  O   -0.736976
     5  H    0.365842
     6  H    0.371134
 Sum of Mulliken charges =   0.00000

 Dipole moment (field-independent basis, Debye):
    X=             -1.9795    Y=             -0.9121    Z=              0.0000  Tot=              2.1796
 Quadrupole moment (field-independent basis, Debye-Ang):
   XX=             -9.2377   YY=             13.1536   ZZ=            -14.9873
   XY=             -4.6552   XZ=              0.0000   YZ=              0.0000

 \MP4DQ=-33.8905999\MP4SDQ=-33.8926305\CCSD=-33.8936872\CCSD(T)=-33.896
 Normal termination of Gaussian 16 at Sun Dec 10 06:45:52 2023.
