 Gaussian 16, Revision A.03,
 Gaussian 16:  ES64L-G16RevA.03 25-Dec-2016

 ------------------
 #p CCSD(T)/CEP-31G
 ------------------

 ------------
 H2O_H2O_2188
 ------------
 Symbolic Z-matrix:
 Charge =  0 Multiplicity = 1

                         Standard orientation:
 ---------------------------------------------------------------------
 Center     Atomic      Atomic             Coordinates (Angstroms)
 Number     Number       Type             X           Y           Z
 ---------------------------------------------------------------------
      1          8           0        0.042977   -1.939297    0.000000
      2          1           0       -0.757671   -2.508919    0.000000
      3          1           0        0.841468   -2.511937    0.000000
      4          8           0        0.042977    1.978046    0.000000
      5          1           0        0.142616    2.955583    0.000000
      6          1           0       -0.914039    1.755276    0.000000
 ---------------------------------------------------------------------

 SCF Done:  E(RHF) =  -33.6491058541     A.U. after   11 cycles
 E2 =    -0.2286688118D+00 EUMP2 =    -0.33877774665826D+02
 CCSD(T)
 CCSD(T)= -0.33894858910D+02

 The electronic state is 1-A'.
 Alpha  occ. eigenvalues --   -1.34773  -1.33982  -0.70401  -0.69570  -0.54383
 Alpha  occ. eigenvalues --   -0.53516  -0.49307  -0.48519
 Alpha virt. eigenvalues --    0.20496   0.21970   0.31060   0.31859   0.78762
 Alpha virt. eigenvalues --    0.80907   0.82355   0.85981   0.87832   0.94884
 Alpha virt. eigenvalues --    1.18014   1.18924   1.22453   1.23378   2.57855

 Mulliken charges:
               1
     1  O   -0.731934
     2  H    0.361942
     3  H    0.370173
     4  O   -0.729221
     5  H    0.358470
     6  H    0.370570
 Sum of Mulliken charges =  -0.00000

 Dipole moment (field-independent basis, Debye):
    X=             -1.9596    Y=             -0.9374    Z=              0.0000  Tot=              2.1722
 Quadrupole moment (field-independent basis, Debye-Ang):
   XX=             -9.2503   YY=              6.0801   ZZ=            -14.9866
   XY=             -3.1431   XZ=              0.0000   YZ=              0.0000

 MP4DQ=-33.8891797\MP4SDQ=-33.8912254\CCSD=-33.892278\CCSD(T)=-33.89485
 Normal termination of Gaussian 16 at Sun Dec 10 07:06:47 2023.
