 Gaussian 16, Revision A.03,
 Gaussian 16:  ES64L-G16RevA.03 25-Dec-2016

 ------------------
 #p CCSD(T)/CEP-31G
 ------------------

 ------------
 H2O_H2O_1726
 ------------
 Symbolic Z-matrix:
 Charge =  0 Multiplicity = 1

                         Standard orientation:
 ---------------------------------------------------------------------
 Center     Atomic      Atomic             Coordinates (Angstroms)
 Number     Number       Type             X           Y           Z
 ---------------------------------------------------------------------
      1          8           0        0.003735   -1.720884    0.000000
      2          1           0       -0.795942   -2.291867    0.000000
      3          1           0        0.803200   -2.292166    0.000000
      4          8           0        0.003735    1.721128    0.000000
      5          1           0        0.764358    2.343190    0.000000
      6          1           0       -0.831381    2.238899    0.000000
 ---------------------------------------------------------------------

 SCF Done:  E(RHF) =  -33.6444212455     A.U. after   11 cycles
 E2 =    -0.2289171113D+00 EUMP2 =    -0.33873338356823D+02
 CCSD(T)
 CCSD(T)= -0.33890574299D+02

 The electronic state is 1-A'.
 Alpha  occ. eigenvalues --   -1.33714  -1.33659  -0.69332  -0.69276  -0.53623
 Alpha  occ. eigenvalues --   -0.52333  -0.48259  -0.48051
 Alpha virt. eigenvalues --    0.21139   0.22294   0.31764   0.32110   0.76794
 Alpha virt. eigenvalues --    0.80820   0.83965   0.85155   0.92726   1.00525
 Alpha virt. eigenvalues --    1.18901   1.18981   1.23242   1.23778   2.58444

 Mulliken charges:
               1
     1  O   -0.716885
     2  H    0.357933
     3  H    0.358954
     4  O   -0.716840
     5  H    0.357855
     6  H    0.358983
 Sum of Mulliken charges =   0.00000

 Dipole moment (field-independent basis, Debye):
    X=             -0.1694    Y=             -0.0060    Z=              0.0000  Tot=              0.1695
 Quadrupole moment (field-independent basis, Debye-Ang):
   XX=             -8.1426   YY=              5.8941   ZZ=            -14.9833
   XY=             -0.1917   XZ=              0.0000   YZ=              0.0000

 \MP4DQ=-33.8848343\MP4SDQ=-33.8869036\CCSD=-33.8879669\CCSD(T)=-33.890
 Normal termination of Gaussian 16 at Sun Dec 10 06:56:58 2023.
