 Gaussian 16, Revision A.03,
 Gaussian 16:  ES64L-G16RevA.03 25-Dec-2016

 ------------------
 #p CCSD(T)/CEP-31G
 ------------------

 ------------
 H2O_H2O_3589
 ------------
 Symbolic Z-matrix:
 Charge =  0 Multiplicity = 1

                         Standard orientation:
 ---------------------------------------------------------------------
 Center     Atomic      Atomic             Coordinates (Angstroms)
 Number     Number       Type             X           Y           Z
 ---------------------------------------------------------------------
      1          8           0        0.045343   -2.680714    0.000000
      2          1           0       -0.755051   -3.250691    0.000000
      3          1           0        0.844089   -3.252999    0.000000
      4          8           0        0.045343    2.725273    0.000000
      5          1           0        0.080399    3.707248    0.000000
      6          1           0       -0.894928    2.439969    0.000000
 ---------------------------------------------------------------------

 SCF Done:  E(RHF) =  -33.6508560133     A.U. after   11 cycles
 E2 =    -0.2284475110D+00 EUMP2 =    -0.33879303524315D+02
 CCSD(T)
 CCSD(T)= -0.33896330769D+02

 The electronic state is 1-A'.
 Alpha  occ. eigenvalues --   -1.35188  -1.34725  -0.70817  -0.70341  -0.54871
 Alpha  occ. eigenvalues --   -0.54405  -0.49745  -0.49284
 Alpha virt. eigenvalues --    0.20529   0.21006   0.30767   0.31222   0.80808
 Alpha virt. eigenvalues --    0.81262   0.83871   0.84421   0.86996   0.87553
 Alpha virt. eigenvalues --    1.17674   1.18132   1.22140   1.22602   2.57712

 Mulliken charges:
               1
     1  O   -0.737864
     2  H    0.367136
     3  H    0.370728
     4  O   -0.737197
     5  H    0.365614
     6  H    0.371582
 Sum of Mulliken charges =  -0.00000

 Dipole moment (field-independent basis, Debye):
    X=             -2.0885    Y=             -1.0484    Z=              0.0000  Tot=              2.3369
 Quadrupole moment (field-independent basis, Debye-Ang):
   XX=             -9.3734   YY=             12.1845   ZZ=            -14.9875
   XY=             -4.9141   XZ=              0.0000   YZ=              0.0000

 MP4DQ=-33.8906791\MP4SDQ=-33.8927096\CCSD=-33.893766\CCSD(T)=-33.89633
 Normal termination of Gaussian 16 at Sun Dec 10 06:44:30 2023.
