 Gaussian 16, Revision A.03,
 Gaussian 16:  ES64L-G16RevA.03 25-Dec-2016

 ------------------
 #p CCSD(T)/CEP-31G
 ------------------

 -----------
 H2O_H2O_899
 -----------
 Symbolic Z-matrix:
 Charge =  0 Multiplicity = 1

                         Standard orientation:
 ---------------------------------------------------------------------
 Center     Atomic      Atomic             Coordinates (Angstroms)
 Number     Number       Type             X           Y           Z
 ---------------------------------------------------------------------
      1          8           0        0.057335   -1.207158    0.000000
      2          1           0       -0.744451   -1.775176    0.000000
      3          1           0        0.854678   -1.781396    0.000000
      4          8           0        0.057335    1.320939    0.000000
      5          1           0       -0.510683    2.122727    0.000000
      6          1           0       -0.516903    0.523596    0.000000
 ---------------------------------------------------------------------

 SCF Done:  E(RHF) =  -33.6499271796     A.U. after   11 cycles
 E2 =    -0.2299156895D+00 EUMP2 =    -0.33879842869088D+02
 CCSD(T)
 CCSD(T)= -0.33896536499D+02

 The electronic state is 1-A'.
 Alpha  occ. eigenvalues --   -1.37370  -1.31051  -0.73024  -0.68398  -0.55921
 Alpha  occ. eigenvalues --   -0.51969  -0.50958  -0.45623
 Alpha virt. eigenvalues --    0.18684   0.26915   0.29097   0.37733   0.76399
 Alpha virt. eigenvalues --    0.80750   0.88186   0.88238   0.97838   1.10748
 Alpha virt. eigenvalues --    1.17957   1.19786   1.24581   1.31764   2.63175

 Mulliken charges:
               1
     1  O   -0.780585
     2  H    0.371515
     3  H    0.413748
     4  O   -0.736038
     5  H    0.332586
     6  H    0.398774
 Sum of Mulliken charges =  -0.00000

 Dipole moment (field-independent basis, Debye):
    X=             -2.4561    Y=             -3.0381    Z=              0.0000  Tot=              3.9067
 Quadrupole moment (field-independent basis, Debye-Ang):
   XX=            -10.1165   YY=             -4.4087   ZZ=            -15.0090
   XY=             -3.7277   XZ=              0.0000   YZ=              0.0000

 \MP4DQ=-33.89059\MP4SDQ=-33.8927701\CCSD=-33.8937259\CCSD(T)=-33.89653
 Normal termination of Gaussian 16 at Sun Dec 10 06:41:34 2023.
