 Gaussian 16, Revision A.03,
 Gaussian 16:  ES64L-G16RevA.03 25-Dec-2016

 ------------------
 #p CCSD(T)/CEP-31G
 ------------------

 ------------
 H2O_H2O_1281
 ------------
 Symbolic Z-matrix:
 Charge =  0 Multiplicity = 1

                         Standard orientation:
 ---------------------------------------------------------------------
 Center     Atomic      Atomic             Coordinates (Angstroms)
 Number     Number       Type             X           Y           Z
 ---------------------------------------------------------------------
      1          8           0        0.021862   -1.476998    0.000000
      2          1           0       -0.778434   -2.047113    0.000000
      3          1           0        0.820707   -2.049145    0.000000
      4          8           0        0.021862    1.485637    0.000000
      5          1           0        0.543065    2.318616    0.000000
      6          1           0       -0.935126    1.708528    0.000000
 ---------------------------------------------------------------------

 SCF Done:  E(RHF) =  -33.6410217557     A.U. after   11 cycles
 E2 =    -0.2292885182D+00 EUMP2 =    -0.33870310273873D+02
 CCSD(T)
 CCSD(T)= -0.33887668497D+02

 The electronic state is 1-A'.
 Alpha  occ. eigenvalues --   -1.33405  -1.33047  -0.69013  -0.68656  -0.53830
 Alpha  occ. eigenvalues --   -0.50931  -0.47975  -0.47346
 Alpha virt. eigenvalues --    0.21103   0.23150   0.32101   0.32428   0.78437
 Alpha virt. eigenvalues --    0.79778   0.82494   0.86168   0.96383   1.10649
 Alpha virt. eigenvalues --    1.19107   1.20254   1.23866   1.24055   2.59366

 Mulliken charges:
               1
     1  O   -0.711253
     2  H    0.351041
     3  H    0.359883
     4  O   -0.707602
     5  H    0.350301
     6  H    0.357631
 Sum of Mulliken charges =  -0.00000

 Dipole moment (field-independent basis, Debye):
    X=             -0.9728    Y=             -0.2153    Z=              0.0000  Tot=              0.9964
 Quadrupole moment (field-independent basis, Debye-Ang):
   XX=             -8.4703   YY=              2.7823   ZZ=            -14.9853
   XY=             -0.9552   XZ=              0.0000   YZ=              0.0000

 P4DQ=-33.881855\MP4SDQ=-33.8839492\CCSD=-33.8850266\CCSD(T)=-33.887668
 Normal termination of Gaussian 16 at Sun Dec 10 06:48:42 2023.
