 Gaussian 16, Revision A.03,
 Gaussian 16:  ES64L-G16RevA.03 25-Dec-2016

 ------------------
 #p CCSD(T)/CEP-31G
 ------------------

 -----------
 H2O_H2O_329
 -----------
 Symbolic Z-matrix:
 Charge =  0 Multiplicity = 1

                         Standard orientation:
 ---------------------------------------------------------------------
 Center     Atomic      Atomic             Coordinates (Angstroms)
 Number     Number       Type             X           Y           Z
 ---------------------------------------------------------------------
      1          8           0        0.014785   -0.974352    0.000000
      2          1           0       -0.785530   -1.544441    0.000000
      3          1           0        0.813610   -1.546526    0.000000
      4          8           0        0.014785    0.978206    0.000000
      5          1           0        0.640280    1.736007    0.000000
      6          1           0       -0.904912    1.324132    0.000000
 ---------------------------------------------------------------------

 SCF Done:  E(RHF) =  -33.5827445254     A.U. after   11 cycles
 E2 =    -0.2329886633D+00 EUMP2 =    -0.33815733188652D+02
 CCSD(T)
 CCSD(T)= -0.33832810515D+02

 The electronic state is 1-A'.
 Alpha  occ. eigenvalues --   -1.33571  -1.30180  -0.68588  -0.66291  -0.59614
 Alpha  occ. eigenvalues --   -0.48533  -0.43773  -0.40065
 Alpha virt. eigenvalues --    0.21425   0.26452   0.32638   0.33484   0.79162
 Alpha virt. eigenvalues --    0.81092   0.90186   0.94035   1.04540   1.20143
 Alpha virt. eigenvalues --    1.21455   1.22868   1.27118   1.28233   2.48420

 Mulliken charges:
               1
     1  O   -0.704311
     2  H    0.341887
     3  H    0.359561
     4  O   -0.693324
     5  H    0.351403
     6  H    0.344784
 Sum of Mulliken charges =  -0.00000

 Dipole moment (field-independent basis, Debye):
    X=             -0.5662    Y=             -0.0924    Z=              0.0000  Tot=              0.5737
 Quadrupole moment (field-independent basis, Debye-Ang):
   XX=             -8.4848   YY=             -4.3270   ZZ=            -15.0273
   XY=             -0.3261   XZ=              0.0000   YZ=              0.0000

 P4DQ=-33.8265175\MP4SDQ=-33.8288388\CCSD=-33.8297901\CCSD(T)=-33.83281
 Normal termination of Gaussian 16 at Sun Dec 10 06:30:55 2023.
