 Gaussian 16, Revision A.03,
 Gaussian 16:  ES64L-G16RevA.03 25-Dec-2016

 ------------------
 #p CCSD(T)/CEP-31G
 ------------------

 -----------
 H2O_H2O_978
 -----------
 Symbolic Z-matrix:
 Charge =  0 Multiplicity = 1

                         Standard orientation:
 ---------------------------------------------------------------------
 Center     Atomic      Atomic             Coordinates (Angstroms)
 Number     Number       Type             X           Y           Z
 ---------------------------------------------------------------------
      1          8           0        0.011143   -1.320956    0.000000
      2          1           0       -0.788842   -1.891508    0.000000
      3          1           0        0.810300   -1.892668    0.000000
      4          8           0        0.011143    1.323135    0.000000
      5          1           0        0.684447    2.038792    0.000000
      6          1           0       -0.884194    1.727953    0.000000
 ---------------------------------------------------------------------

 SCF Done:  E(RHF) =  -33.6346167868     A.U. after   11 cycles
 E2 =    -0.2297175479D+00 EUMP2 =    -0.33864334334647D+02
 CCSD(T)
 CCSD(T)= -0.33881765093D+02

 The electronic state is 1-A'.
 Alpha  occ. eigenvalues --   -1.32909  -1.32411  -0.68465  -0.68068  -0.54304
 Alpha  occ. eigenvalues --   -0.48883  -0.47577  -0.46499
 Alpha virt. eigenvalues --    0.21412   0.23787   0.32486   0.32790   0.79471
 Alpha virt. eigenvalues --    0.80030   0.85103   0.88057   1.02942   1.09723
 Alpha virt. eigenvalues --    1.19536   1.21044   1.24324   1.24795   2.57213

 Mulliken charges:
               1
     1  O   -0.702813
     2  H    0.348122
     3  H    0.354322
     4  O   -0.700899
     5  H    0.349578
     6  H    0.351690
 Sum of Mulliken charges =  -0.00000

 Dipole moment (field-independent basis, Debye):
    X=             -0.4835    Y=             -0.0532    Z=              0.0000  Tot=              0.4864
 Quadrupole moment (field-independent basis, Debye-Ang):
   XX=             -8.3008   YY=              1.0138   ZZ=            -14.9908
   XY=             -0.3900   XZ=              0.0000   YZ=              0.0000

 MP4DQ=-33.8758824\MP4SDQ=-33.8779829\CCSD=-33.8790767\CCSD(T)=-33.8817
 Normal termination of Gaussian 16 at Sun Dec 10 06:43:03 2023.
