 Gaussian 16, Revision A.03,
 Gaussian 16:  ES64L-G16RevA.03 25-Dec-2016

 ------------------
 #p CCSD(T)/CEP-31G
 ------------------

 ------------
 H2O_H2O_2405
 ------------
 Symbolic Z-matrix:
 Charge =  0 Multiplicity = 1

                         Standard orientation:
 ---------------------------------------------------------------------
 Center     Atomic      Atomic             Coordinates (Angstroms)
 Number     Number       Type             X           Y           Z
 ---------------------------------------------------------------------
      1          8           0        0.018361   -2.076729    0.000000
      2          1           0       -0.781644   -2.647253    0.000000
      3          1           0        0.817497   -2.648468    0.000000
      4          8           0        0.018361    2.082763    0.000000
      5          1           0        0.592521    2.880162    0.000000
      6          1           0       -0.922145    2.367286    0.000000
 ---------------------------------------------------------------------

 SCF Done:  E(RHF) =  -33.6479262739     A.U. after   11 cycles
 E2 =    -0.2286392857D+00 EUMP2 =    -0.33876565559629D+02
 CCSD(T)
 CCSD(T)= -0.33893678874D+02

 The electronic state is 1-A'.
 Alpha  occ. eigenvalues --   -1.34334  -1.34226  -0.69956  -0.69843  -0.53951
 Alpha  occ. eigenvalues --   -0.53617  -0.48853  -0.48739
 Alpha virt. eigenvalues --    0.21012   0.21543   0.31442   0.31572   0.80938
 Alpha virt. eigenvalues --    0.81401   0.82099   0.86985   0.88485   0.90703
 Alpha virt. eigenvalues --    1.18408   1.18514   1.22880   1.23044   2.58320

 Mulliken charges:
               1
     1  O   -0.727782
     2  H    0.362388
     3  H    0.365409
     4  O   -0.727321
     5  H    0.361769
     6  H    0.365536
 Sum of Mulliken charges =   0.00000

 Dipole moment (field-independent basis, Debye):
    X=             -0.8401    Y=             -0.1450    Z=              0.0000  Tot=              0.8525
 Quadrupole moment (field-independent basis, Debye-Ang):
   XX=             -8.2969   YY=              9.4909   ZZ=            -14.9846
   XY=             -1.2541   XZ=              0.0000   YZ=              0.0000

 \MP4DQ=-33.8879983\MP4SDQ=-33.8900406\CCSD=-33.8910997\CCSD(T)=-33.893
 Normal termination of Gaussian 16 at Sun Dec 10 07:10:41 2023.
