 Gaussian 16, Revision A.03,
 Gaussian 16:  ES64L-G16RevA.03 25-Dec-2016

 ------------------
 #p CCSD(T)/CEP-31G
 ------------------

 ------------
 H2O_H2O_2134
 ------------
 Symbolic Z-matrix:
 Charge =  0 Multiplicity = 1

                         Standard orientation:
 ---------------------------------------------------------------------
 Center     Atomic      Atomic             Coordinates (Angstroms)
 Number     Number       Type             X           Y           Z
 ---------------------------------------------------------------------
      1          8           0        0.031744   -1.923344    0.000000
      2          1           0       -0.768633   -2.493346    0.000000
      3          1           0        0.830507   -2.495605    0.000000
      4          8           0        0.031744    1.942505    0.000000
      5          1           0        0.380557    2.861110    0.000000
      6          1           0       -0.950335    1.974554    0.000000
 ---------------------------------------------------------------------

 SCF Done:  E(RHF) =  -33.6477943660     A.U. after   11 cycles
 E2 =    -0.2287158441D+00 EUMP2 =    -0.33876510210093D+02
 CCSD(T)
 CCSD(T)= -0.33893632671D+02

 The electronic state is 1-A'.
 Alpha  occ. eigenvalues --   -1.34396  -1.33997  -0.70021  -0.69598  -0.54008
 Alpha  occ. eigenvalues --   -0.53372  -0.48914  -0.48511
 Alpha virt. eigenvalues --    0.20815   0.21880   0.31393   0.31763   0.78590
 Alpha virt. eigenvalues --    0.81119   0.82545   0.86220   0.88741   0.95202
 Alpha virt. eigenvalues --    1.18340   1.18776   1.22847   1.23261   2.58131

 Mulliken charges:
               1
     1  O   -0.727464
     2  H    0.360617
     3  H    0.366950
     4  O   -0.725692
     5  H    0.358670
     6  H    0.366919
 Sum of Mulliken charges =  -0.00000

 Dipole moment (field-independent basis, Debye):
    X=             -1.4471    Y=             -0.4649    Z=              0.0000  Tot=              1.5199
 Quadrupole moment (field-independent basis, Debye-Ang):
   XX=             -8.7278   YY=              7.1261   ZZ=            -14.9851
   XY=             -2.0936   XZ=              0.0000   YZ=              0.0000

 \MP4DQ=-33.887942\MP4SDQ=-33.8899914\CCSD=-33.8910473\CCSD(T)=-33.8936
 Normal termination of Gaussian 16 at Sun Dec 10 07:05:49 2023.
