 Gaussian 16, Revision A.03,
 Gaussian 16:  ES64L-G16RevA.03 25-Dec-2016

 ------------------
 #p CCSD(T)/CEP-31G
 ------------------

 ------------
 H2O_H2O_3670
 ------------
 Symbolic Z-matrix:
 Charge =  0 Multiplicity = 1

                         Standard orientation:
 ---------------------------------------------------------------------
 Center     Atomic      Atomic             Coordinates (Angstroms)
 Number     Number       Type             X           Y           Z
 ---------------------------------------------------------------------
      1          8           0        0.055240   -2.698926    0.000000
      2          1           0       -0.745319   -3.268672    0.000000
      3          1           0        0.853821   -3.271442    0.000000
      4          8           0        0.055240    2.783397    0.000000
      5          1           0       -0.287892    3.704140    0.000000
      6          1           0       -0.704455    2.160205    0.000000
 ---------------------------------------------------------------------

 SCF Done:  E(RHF) =  -33.6517451033     A.U. after   11 cycles
 E2 =    -0.2284019685D+00 EUMP2 =    -0.33880147071826D+02
 CCSD(T)
 CCSD(T)= -0.33897148388D+02

 The electronic state is 1-A'.
 Alpha  occ. eigenvalues --   -1.35555  -1.34706  -0.71188  -0.70319  -0.55288
 Alpha  occ. eigenvalues --   -0.54427  -0.50125  -0.49277
 Alpha virt. eigenvalues --    0.20207   0.21094   0.30453   0.31314   0.80428
 Alpha virt. eigenvalues --    0.81260   0.83431   0.84326   0.86564   0.87514
 Alpha virt. eigenvalues --    1.17345   1.18188   1.21803   1.22667   2.57358

 Mulliken charges:
               1
     1  O   -0.741003
     2  H    0.368481
     3  H    0.372524
     4  O   -0.740462
     5  H    0.365920
     6  H    0.374540
 Sum of Mulliken charges =  -0.00000

 Dipole moment (field-independent basis, Debye):
    X=             -2.5450    Y=             -1.9872    Z=              0.0000  Tot=              3.2289
 Quadrupole moment (field-independent basis, Debye-Ang):
   XX=            -10.0183   YY=              7.9197   ZZ=            -14.9889
   XY=             -6.7929   XZ=              0.0000   YZ=              0.0000

 8\MP4DQ=-33.8915037\MP4SDQ=-33.8935317\CCSD=-33.8945864\CCSD(T)=-33.89
 Normal termination of Gaussian 16 at Sun Dec 10 06:46:00 2023.
