 Gaussian 16, Revision A.03,
 Gaussian 16:  ES64L-G16RevA.03 25-Dec-2016

 ------------------
 #p CCSD(T)/CEP-31G
 ------------------

 -----------
 H2O_H2O_897
 -----------
 Symbolic Z-matrix:
 Charge =  0 Multiplicity = 1

                         Standard orientation:
 ---------------------------------------------------------------------
 Center     Atomic      Atomic             Coordinates (Angstroms)
 Number     Number       Type             X           Y           Z
 ---------------------------------------------------------------------
      1          8           0        0.056816   -1.215251    0.000000
      2          1           0       -0.744951   -1.783297    0.000000
      3          1           0        0.854179   -1.789460    0.000000
      4          8           0        0.056816    1.314130    0.000000
      5          1           0       -0.401719    2.183182    0.000000
      6          1           0       -0.616559    0.598537    0.000000
 ---------------------------------------------------------------------

 SCF Done:  E(RHF) =  -33.6476647901     A.U. after   11 cycles
 E2 =    -0.2300569643D+00 EUMP2 =    -0.33877721754401D+02
 CCSD(T)
 CCSD(T)= -0.33894634674D+02

 The electronic state is 1-A'.
 Alpha  occ. eigenvalues --   -1.36587  -1.31378  -0.72263  -0.68124  -0.55345
 Alpha  occ. eigenvalues --   -0.51229  -0.51178  -0.45932
 Alpha virt. eigenvalues --    0.19022   0.26525   0.29664   0.35951   0.76913
 Alpha virt. eigenvalues --    0.81630   0.88119   0.88624   0.96630   1.12778
 Alpha virt. eigenvalues --    1.18979   1.19869   1.23955   1.30825   2.65119

 Mulliken charges:
               1
     1  O   -0.769110
     2  H    0.365437
     3  H    0.404203
     4  O   -0.725047
     5  H    0.333525
     6  H    0.390992
 Sum of Mulliken charges =   0.00000

 Dipole moment (field-independent basis, Debye):
    X=             -2.4354    Y=             -2.5917    Z=              0.0000  Tot=              3.5564
 Quadrupole moment (field-independent basis, Debye-Ang):
   XX=            -10.0901   YY=             -3.5160   ZZ=            -15.0044
   XY=             -3.4404   XZ=              0.0000   YZ=              0.0000

 P4DQ=-33.88869\MP4SDQ=-33.8908688\CCSD=-33.8918552\CCSD(T)=-33.8946347
 Normal termination of Gaussian 16 at Sun Dec 10 06:41:32 2023.
