 Gaussian 16, Revision A.03,
 Gaussian 16:  ES64L-G16RevA.03 25-Dec-2016

 ------------------
 #p CCSD(T)/CEP-31G
 ------------------

 ------------
 H2O_H2O_3890
 ------------
 Symbolic Z-matrix:
 Charge =  0 Multiplicity = 1

                         Standard orientation:
 ---------------------------------------------------------------------
 Center     Atomic      Atomic             Coordinates (Angstroms)
 Number     Number       Type             X           Y           Z
 ---------------------------------------------------------------------
      1          8           0        0.047524   -2.836968    0.000000
      2          1           0       -0.752862   -3.406957    0.000000
      3          1           0        0.846279   -3.409241    0.000000
      4          8           0        0.047524    2.887598    0.000000
      5          1           0        0.018266    3.869764    0.000000
      6          1           0       -0.872068    2.541396    0.000000
 ---------------------------------------------------------------------

 SCF Done:  E(RHF) =  -33.6511167160     A.U. after   11 cycles
 E2 =    -0.2284286436D+00 EUMP2 =    -0.33879545359510D+02
 CCSD(T)
 CCSD(T)= -0.33896564980D+02

 The electronic state is 1-A'.
 Alpha  occ. eigenvalues --   -1.35281  -1.34815  -0.70912  -0.70433  -0.54979
 Alpha  occ. eigenvalues --   -0.54509  -0.49843  -0.49377
 Alpha virt. eigenvalues --    0.20452   0.20930   0.30689   0.31151   0.80710
 Alpha virt. eigenvalues --    0.81169   0.83792   0.84267   0.86885   0.87424
 Alpha virt. eigenvalues --    1.17592   1.18054   1.22056   1.22523   2.57625

 Mulliken charges:
               1
     1  O   -0.738766
     2  H    0.367785
     3  H    0.370981
     4  O   -0.738238
     5  H    0.366341
     6  H    0.371897
 Sum of Mulliken charges =   0.00000

 Dipole moment (field-independent basis, Debye):
    X=             -2.1909    Y=             -1.1884    Z=              0.0000  Tot=              2.4925
 Quadrupole moment (field-independent basis, Debye-Ang):
   XX=             -9.5041   YY=             12.8638   ZZ=            -14.9878
   XY=             -5.5877   XZ=              0.0000   YZ=              0.0000

 \MP4DQ=-33.8909155\MP4SDQ=-33.8929451\CCSD=-33.8940013\CCSD(T)=-33.896
 Normal termination of Gaussian 16 at Sun Dec 10 06:50:04 2023.
