 Gaussian 16, Revision A.03,
 Gaussian 16:  ES64L-G16RevA.03 25-Dec-2016

 ------------------
 #p CCSD(T)/CEP-31G
 ------------------

 ------------
 H2O_H2O_1235
 ------------
 Symbolic Z-matrix:
 Charge =  0 Multiplicity = 1

                         Standard orientation:
 ---------------------------------------------------------------------
 Center     Atomic      Atomic             Coordinates (Angstroms)
 Number     Number       Type             X           Y           Z
 ---------------------------------------------------------------------
      1          8           0        0.034793   -1.442355    0.000000
      2          1           0       -0.765952   -2.011840    0.000000
      3          1           0        0.833186   -2.015131    0.000000
      4          8           0        0.034793    1.465816    0.000000
      5          1           0        0.323386    2.405082    0.000000
      6          1           0       -0.947301    1.434199    0.000000
 ---------------------------------------------------------------------

 SCF Done:  E(RHF) =  -33.6423981076     A.U. after   11 cycles
 E2 =    -0.2293814056D+00 EUMP2 =    -0.33871779513138D+02
 CCSD(T)
 CCSD(T)= -0.33889118252D+02

 The electronic state is 1-A'.
 Alpha  occ. eigenvalues --   -1.33774  -1.32921  -0.69394  -0.68510  -0.54048
 Alpha  occ. eigenvalues --   -0.51138  -0.48317  -0.47298
 Alpha virt. eigenvalues --    0.20729   0.23491   0.31841   0.32513   0.78534
 Alpha virt. eigenvalues --    0.79409   0.82973   0.86318   0.94495   1.13661
 Alpha virt. eigenvalues --    1.18778   1.21727   1.23519   1.24476   2.59272

 Mulliken charges:
               1
     1  O   -0.717669
     2  H    0.351143
     3  H    0.365630
     4  O   -0.707960
     5  H    0.347770
     6  H    0.361085
 Sum of Mulliken charges =  -0.00000

 Dipole moment (field-independent basis, Debye):
    X=             -1.5411    Y=             -0.5847    Z=              0.0000  Tot=              1.6483
 Quadrupole moment (field-independent basis, Debye-Ang):
   XX=             -8.9095   YY=              1.9015   ZZ=            -14.9866
   XY=             -1.6284   XZ=              0.0000   YZ=              0.0000

 MP4DQ=-33.883297\MP4SDQ=-33.885402\CCSD=-33.8864735\CCSD(T)=-33.889118
 Normal termination of Gaussian 16 at Sun Dec 10 06:47:50 2023.
