 Gaussian 16, Revision A.03,
 Gaussian 16:  ES64L-G16RevA.03 25-Dec-2016

 ------------------
 #p CCSD(T)/CEP-31G
 ------------------

 ------------
 H2O_H2O_3544
 ------------
 Symbolic Z-matrix:
 Charge =  0 Multiplicity = 1

                         Standard orientation:
 ---------------------------------------------------------------------
 Center     Atomic      Atomic             Coordinates (Angstroms)
 Number     Number       Type             X           Y           Z
 ---------------------------------------------------------------------
      1          8           0        0.054150   -2.636329    0.000000
      2          1           0       -0.746414   -3.206069    0.000000
      3          1           0        0.852725   -3.208852    0.000000
      4          8           0        0.054150    2.713651    0.000000
      5          1           0       -0.228022    3.654866    0.000000
      6          1           0       -0.744683    2.141486    0.000000
 ---------------------------------------------------------------------

 SCF Done:  E(RHF) =  -33.6515820556     A.U. after   11 cycles
 E2 =    -0.2284141565D+00 EUMP2 =    -0.33879996212013D+02
 CCSD(T)
 CCSD(T)= -0.33897002332D+02

 The electronic state is 1-A'.
 Alpha  occ. eigenvalues --   -1.35488  -1.34669  -0.71120  -0.70280  -0.55212
 Alpha  occ. eigenvalues --   -0.54382  -0.50056  -0.49238
 Alpha virt. eigenvalues --    0.20263   0.21122   0.30510   0.31337   0.80498
 Alpha virt. eigenvalues --    0.81300   0.83496   0.84394   0.86643   0.87579
 Alpha virt. eigenvalues --    1.17405   1.18219   1.21863   1.22697   2.57421

 Mulliken charges:
               1
     1  O   -0.740434
     2  H    0.368077
     3  H    0.372361
     4  O   -0.739765
     5  H    0.365531
     6  H    0.374231
 Sum of Mulliken charges =   0.00000

 Dipole moment (field-independent basis, Debye):
    X=             -2.4938    Y=             -1.8210    Z=              0.0000  Tot=              3.0879
 Quadrupole moment (field-independent basis, Debye-Ang):
   XX=             -9.9401   YY=              8.3094   ZZ=            -14.9887
   XY=             -6.3706   XZ=              0.0000   YZ=              0.0000

 MP4DQ=-33.8913562\MP4SDQ=-33.8933848\CCSD=-33.8944396\CCSD(T)=-33.8970
 Normal termination of Gaussian 16 at Sun Dec 10 06:43:41 2023.
