 Gaussian 16, Revision A.03,
 Gaussian 16:  ES64L-G16RevA.03 25-Dec-2016

 ------------------
 #p CCSD(T)/CEP-31G
 ------------------

 -----------
 H2O_H2O_293
 -----------
 Symbolic Z-matrix:
 Charge =  0 Multiplicity = 1

                         Standard orientation:
 ---------------------------------------------------------------------
 Center     Atomic      Atomic             Coordinates (Angstroms)
 Number     Number       Type             X           Y           Z
 ---------------------------------------------------------------------
      1          8           0        0.052934   -0.911827    0.000000
      2          1           0       -0.749368   -1.479116    0.000000
      3          1           0        0.849756   -1.486788    0.000000
      4          8           0        0.052934    0.981833    0.000000
      5          1           0       -0.164145    1.940156    0.000000
      6          1           0       -0.783192    0.465694    0.000000
 ---------------------------------------------------------------------

 SCF Done:  E(RHF) =  -33.5759078031     A.U. after   11 cycles
 E2 =    -0.2333865054D+00 EUMP2 =    -0.33809294308561D+02
 CCSD(T)
 CCSD(T)= -0.33826201926D+02

 The electronic state is 1-A'.
 Alpha  occ. eigenvalues --   -1.37356  -1.29779  -0.73491  -0.69488  -0.53847
 Alpha  occ. eigenvalues --   -0.51540  -0.45191  -0.44051
 Alpha virt. eigenvalues --    0.19595   0.28477   0.30150   0.34455   0.79259
 Alpha virt. eigenvalues --    0.84420   0.89901   0.95682   0.99005   1.16626
 Alpha virt. eigenvalues --    1.20211   1.25023   1.28835   1.33357   2.63231

 Mulliken charges:
               1
     1  O   -0.786669
     2  H    0.354456
     3  H    0.410833
     4  O   -0.654718
     5  H    0.312717
     6  H    0.363382
 Sum of Mulliken charges =   0.00000

 Dipole moment (field-independent basis, Debye):
    X=             -2.0208    Y=             -1.8095    Z=              0.0000  Tot=              2.7125
 Quadrupole moment (field-independent basis, Debye-Ang):
   XX=             -9.8722   YY=             -5.9562   ZZ=            -14.9765
   XY=             -1.9383   XZ=              0.0000   YZ=              0.0000

 MP4DQ=-33.819786\MP4SDQ=-33.8222243\CCSD=-33.8230642\CCSD(T)=-33.82620
 Normal termination of Gaussian 16 at Sun Dec 10 06:30:14 2023.
