 Gaussian 16, Revision A.03,
 Gaussian 16:  ES64L-G16RevA.03 25-Dec-2016

 ------------------
 #p CCSD(T)/CEP-31G
 ------------------

 ------------
 H2O_H2O_4927
 ------------
 Symbolic Z-matrix:
 Charge =  0 Multiplicity = 1

                         Standard orientation:
 ---------------------------------------------------------------------
 Center     Atomic      Atomic             Coordinates (Angstroms)
 Number     Number       Type             X           Y           Z
 ---------------------------------------------------------------------
      1          8           0        0.007455   -3.422364    0.000000
      2          1           0       -0.792223   -3.993346    0.000000
      3          1           0        0.806919   -3.993646    0.000000
      4          8           0        0.007455    3.423338    0.000000
      5          1           0        0.725764    4.093815    0.000000
      6          1           0       -0.859738    3.885382    0.000000
 ---------------------------------------------------------------------

 SCF Done:  E(RHF) =  -33.6508699681     A.U. after   10 cycles
 E2 =    -0.2284253571D+00 EUMP2 =    -0.33879295325222D+02
 CCSD(T)
 CCSD(T)= -0.33896322185D+02

 The electronic state is 1-A'.
 Alpha  occ. eigenvalues --   -1.35088  -1.35082  -0.70716  -0.70710  -0.54772
 Alpha  occ. eigenvalues --   -0.54766  -0.49645  -0.49639
 Alpha virt. eigenvalues --    0.20633   0.20639   0.30865   0.30871   0.80908
 Alpha virt. eigenvalues --    0.80914   0.84021   0.84027   0.87101   0.87108
 Alpha virt. eigenvalues --    1.17774   1.17781   1.22240   1.22246   2.57814

 Mulliken charges:
               1
     1  O   -0.737834
     2  H    0.368760
     3  H    0.369073
     4  O   -0.737826
     5  H    0.368689
     6  H    0.369136
 Sum of Mulliken charges =  -0.00000

 Dipole moment (field-independent basis, Debye):
    X=             -0.3444    Y=             -0.0227    Z=              0.0000  Tot=              0.3451
 Quadrupole moment (field-independent basis, Debye-Ang):
   XX=             -8.0704   YY=             24.2074   ZZ=            -14.9870
   XY=             -0.9475   XZ=              0.0000   YZ=              0.0000

 =-33.8906709\MP4SDQ=-33.892701\CCSD=-33.8937582\CCSD(T)=-33.8963222\RM
 Normal termination of Gaussian 16 at Sun Dec 10 07:10:30 2023.
