 Gaussian 16, Revision A.03,
 Gaussian 16:  ES64L-G16RevA.03 25-Dec-2016

 ------------------
 #p CCSD(T)/CEP-31G
 ------------------

 ------------
 H2O_H2O_1009
 ------------
 Symbolic Z-matrix:
 Charge =  0 Multiplicity = 1

                         Standard orientation:
 ---------------------------------------------------------------------
 Center     Atomic      Atomic             Coordinates (Angstroms)
 Number     Number       Type             X           Y           Z
 ---------------------------------------------------------------------
      1          8           0        0.031750   -1.325049    0.000000
      2          1           0       -0.768988   -1.894543    0.000000
      3          1           0        0.830150   -1.897816    0.000000
      4          8           0        0.031750    1.344170    0.000000
      5          1           0        0.381145    2.262553    0.000000
      6          1           0       -0.950308    1.376841    0.000000
 ---------------------------------------------------------------------

 SCF Done:  E(RHF) =  -33.6381482329     A.U. after   11 cycles
 E2 =    -0.2297186718D+00 EUMP2 =    -0.33867866904724D+02
 CCSD(T)
 CCSD(T)= -0.33885272450D+02

 The electronic state is 1-A'.
 Alpha  occ. eigenvalues --   -1.33404  -1.32519  -0.69005  -0.68144  -0.54348
 Alpha  occ. eigenvalues --   -0.49772  -0.48019  -0.46754
 Alpha virt. eigenvalues --    0.20909   0.24001   0.32135   0.32693   0.79136
 Alpha virt. eigenvalues --    0.81615   0.83449   0.87723   0.97743   1.14422
 Alpha virt. eigenvalues --    1.19112   1.22418   1.23888   1.25749   2.57596

 Mulliken charges:
               1
     1  O   -0.714700
     2  H    0.347937
     3  H    0.364396
     4  O   -0.700744
     5  H    0.346686
     6  H    0.356425
 Sum of Mulliken charges =  -0.00000

 Dipole moment (field-independent basis, Debye):
    X=             -1.3817    Y=             -0.4719    Z=              0.0000  Tot=              1.4601
 Quadrupole moment (field-independent basis, Debye-Ang):
   XX=             -8.8140   YY=              0.6869   ZZ=            -14.9895
   XY=             -1.2855   XZ=              0.0000   YZ=              0.0000

 MP4DQ=-33.879394\MP4SDQ=-33.8815116\CCSD=-33.8825947\CCSD(T)=-33.88527
 Normal termination of Gaussian 16 at Sun Dec 10 06:43:37 2023.
