 Gaussian 16, Revision A.03,
 Gaussian 16:  ES64L-G16RevA.03 25-Dec-2016

 ------------------
 #p CCSD(T)/CEP-31G
 ------------------

 ------------
 H2O_H2O_1903
 ------------
 Symbolic Z-matrix:
 Charge =  0 Multiplicity = 1

                         Standard orientation:
 ---------------------------------------------------------------------
 Center     Atomic      Atomic             Coordinates (Angstroms)
 Number     Number       Type             X           Y           Z
 ---------------------------------------------------------------------
      1          8           0        0.011143   -1.812902    0.000000
      2          1           0       -0.788730   -2.383611    0.000000
      3          1           0        0.810412   -2.384457    0.000000
      4          8           0        0.011143    1.815085    0.000000
      5          1           0        0.684306    2.530876    0.000000
      6          1           0       -0.884273    2.219728    0.000000
 ---------------------------------------------------------------------

 SCF Done:  E(RHF) =  -33.6456853599     A.U. after   11 cycles
 E2 =    -0.2288264072D+00 EUMP2 =    -0.33874511767027D+02
 CCSD(T)
 CCSD(T)= -0.33891701774D+02

 The electronic state is 1-A'.
 Alpha  occ. eigenvalues --   -1.33907  -1.33846  -0.69527  -0.69461  -0.53693
 Alpha  occ. eigenvalues --   -0.52786  -0.48436  -0.48287
 Alpha virt. eigenvalues --    0.21076   0.22070   0.31673   0.31934   0.77443
 Alpha virt. eigenvalues --    0.81066   0.83299   0.85967   0.91074   0.97606
 Alpha virt. eigenvalues --    1.18751   1.18824   1.23130   1.23532   2.58229

 Mulliken charges:
               1
     1  O   -0.720578
     2  H    0.358976
     3  H    0.361620
     4  O   -0.720266
     5  H    0.358584
     6  H    0.361664
 Sum of Mulliken charges =  -0.00000

 Dipole moment (field-independent basis, Debye):
    X=             -0.5068    Y=             -0.0537    Z=              0.0000  Tot=              0.5097
 Quadrupole moment (field-independent basis, Debye-Ang):
   XX=             -8.1944   YY=              6.8393   ZZ=            -14.9836
   XY=             -0.6213   XZ=              0.0000   YZ=              0.0000

 \MP4DQ=-33.8859837\MP4SDQ=-33.8880443\CCSD=-33.8891044\CCSD(T)=-33.891
 Normal termination of Gaussian 16 at Sun Dec 10 07:00:19 2023.
