 Gaussian 16, Revision A.03,
 Gaussian 16:  ES64L-G16RevA.03 25-Dec-2016

 ------------------
 #p CCSD(T)/CEP-31G
 ------------------

 -----------
 H2O_H2O_873
 -----------
 Symbolic Z-matrix:
 Charge =  0 Multiplicity = 1

                         Standard orientation:
 ---------------------------------------------------------------------
 Center     Atomic      Atomic             Coordinates (Angstroms)
 Number     Number       Type             X           Y           Z
 ---------------------------------------------------------------------
      1          8           0        0.057200   -1.197921    0.000000
      2          1           0       -0.744605   -1.765913    0.000000
      3          1           0        0.854525   -1.772184    0.000000
      4          8           0        0.057200    1.304229    0.000000
      5          1           0       -0.457136    2.141465    0.000000
      6          1           0       -0.567982    0.546168    0.000000
 ---------------------------------------------------------------------

 SCF Done:  E(RHF) =  -33.6479332800     A.U. after   11 cycles
 E2 =    -0.2300585757D+00 EUMP2 =    -0.33877991855691D+02
 CCSD(T)
 CCSD(T)= -0.33894778382D+02

 The electronic state is 1-A'.
 Alpha  occ. eigenvalues --   -1.37026  -1.31138  -0.72698  -0.68311  -0.55510
 Alpha  occ. eigenvalues --   -0.51615  -0.51053  -0.45698
 Alpha virt. eigenvalues --    0.18846   0.26826   0.29349   0.36855   0.76627
 Alpha virt. eigenvalues --    0.81585   0.88299   0.88599   0.97550   1.11828
 Alpha virt. eigenvalues --    1.18524   1.19797   1.24574   1.31295   2.65110

 Mulliken charges:
               1
     1  O   -0.776076
     2  H    0.368502
     3  H    0.410201
     4  O   -0.729061
     5  H    0.332009
     6  H    0.394425
 Sum of Mulliken charges =  -0.00000

 Dipole moment (field-independent basis, Debye):
    X=             -2.4432    Y=             -2.8194    Z=              0.0000  Tot=              3.7307
 Quadrupole moment (field-independent basis, Debye-Ang):
   XX=            -10.1113   YY=             -4.0587   ZZ=            -15.0069
   XY=             -3.5537   XZ=              0.0000   YZ=              0.0000

 MP4DQ=-33.8888202\MP4SDQ=-33.8910062\CCSD=-33.8919726\CCSD(T)=-33.8947
 Normal termination of Gaussian 16 at Sun Dec 10 06:41:05 2023.
