 Gaussian 16, Revision A.03,
 Gaussian 16:  ES64L-G16RevA.03 25-Dec-2016

 ------------------
 #p CCSD(T)/CEP-31G
 ------------------

 ------------
 H2O_H2O_2847
 ------------
 Symbolic Z-matrix:
 Charge =  0 Multiplicity = 1

                         Standard orientation:
 ---------------------------------------------------------------------
 Center     Atomic      Atomic             Coordinates (Angstroms)
 Number     Number       Type             X           Y           Z
 ---------------------------------------------------------------------
      1          8           0        0.056730   -2.252229    0.000000
      2          1           0       -0.744049   -2.821666    0.000000
      3          1           0        0.855089   -2.825053    0.000000
      4          8           0        0.056730    2.351306    0.000000
      5          1           0       -0.403314    3.219561    0.000000
      6          1           0       -0.615401    1.634544    0.000000
 ---------------------------------------------------------------------

 SCF Done:  E(RHF) =  -33.6523405959     A.U. after   11 cycles
 E2 =    -0.2284227853D+00 EUMP2 =    -0.33880763381200D+02
 CCSD(T)
 CCSD(T)= -0.33897747995D+02

 The electronic state is 1-A'.
 Alpha  occ. eigenvalues --   -1.35742  -1.34292  -0.71378  -0.69885  -0.55511
 Alpha  occ. eigenvalues --   -0.54025  -0.50320  -0.48871
 Alpha virt. eigenvalues --    0.19888   0.21691   0.30279   0.31801   0.80233
 Alpha virt. eigenvalues --    0.81653   0.82618   0.85074   0.86288   0.88326
 Alpha virt. eigenvalues --    1.17182   1.18702   1.21603   1.23389   2.57190

 Mulliken charges:
               1
     1  O   -0.743014
     2  H    0.368272
     3  H    0.374878
     4  O   -0.742138
     5  H    0.363163
     6  H    0.378839
 Sum of Mulliken charges =  -0.00000

 Dipole moment (field-independent basis, Debye):
    X=             -2.6041    Y=             -2.3598    Z=              0.0000  Tot=              3.5143
 Quadrupole moment (field-independent basis, Debye-Ang):
   XX=            -10.1212   YY=              3.4152   ZZ=            -14.9904
   XY=             -6.1082   XZ=              0.0000   YZ=              0.0000

 P4DQ=-33.8921036\MP4SDQ=-33.8941337\CCSD=-33.8951839\CCSD(T)=-33.89774
 Normal termination of Gaussian 16 at Sun Dec 10 06:31:12 2023.
