 Gaussian 16, Revision A.03,
 Gaussian 16:  ES64L-G16RevA.03 25-Dec-2016

 ------------------
 #p CCSD(T)/CEP-31G
 ------------------

 ------------
 H2O_H2O_2071
 ------------
 Symbolic Z-matrix:
 Charge =  0 Multiplicity = 1

                         Standard orientation:
 ---------------------------------------------------------------------
 Center     Atomic      Atomic             Coordinates (Angstroms)
 Number     Number       Type             X           Y           Z
 ---------------------------------------------------------------------
      1          8           0        0.056133   -1.844084    0.000000
      2          1           0       -0.744893   -2.413174    0.000000
      3          1           0        0.854244   -2.417254    0.000000
      4          8           0        0.056133    1.935740    0.000000
      5          1           0       -0.345750    2.832398    0.000000
      6          1           0       -0.661728    1.264784    0.000000
 ---------------------------------------------------------------------

 SCF Done:  E(RHF) =  -33.6524457055     A.U. after   11 cycles
 E2 =    -0.2286225279D+00 EUMP2 =    -0.33881068233424D+02
 CCSD(T)
 CCSD(T)= -0.33898068242D+02

 The electronic state is 1-A'.
 Alpha  occ. eigenvalues --   -1.35743  -1.33666  -0.71383  -0.69226  -0.55515
 Alpha  occ. eigenvalues --   -0.53388  -0.50323  -0.48250
 Alpha virt. eigenvalues --    0.19455   0.22778   0.30208   0.32570   0.78698
 Alpha virt. eigenvalues --    0.79949   0.82556   0.85829   0.86489   0.95426
 Alpha virt. eigenvalues --    1.17153   1.19775   1.21563   1.25484   2.55965

 Mulliken charges:
               1
     1  O   -0.742988
     2  H    0.366199
     3  H    0.377637
     4  O   -0.740810
     5  H    0.357381
     6  H    0.382580
 Sum of Mulliken charges =  -0.00000

 Dipole moment (field-independent basis, Debye):
    X=             -2.5567    Y=             -2.2374    Z=              0.0000  Tot=              3.3974
 Quadrupole moment (field-independent basis, Debye-Ang):
   XX=            -10.0681   YY=              1.4885   ZZ=            -14.9916
   XY=             -4.8693   XZ=              0.0000   YZ=              0.0000

 1\MP4DQ=-33.8923944\MP4SDQ=-33.8944449\CCSD=-33.8954858\CCSD(T)=-33.89
 Normal termination of Gaussian 16 at Sun Dec 10 07:04:40 2023.
