 Gaussian 16, Revision A.03,
 Gaussian 16:  ES64L-G16RevA.03 25-Dec-2016

 ------------------
 #p CCSD(T)/CEP-31G
 ------------------

 ------------
 H2O_H2O_2605
 ------------
 Symbolic Z-matrix:
 Charge =  0 Multiplicity = 1

                         Standard orientation:
 ---------------------------------------------------------------------
 Center     Atomic      Atomic             Coordinates (Angstroms)
 Number     Number       Type             X           Y           Z
 ---------------------------------------------------------------------
      1          8           0        0.018361   -2.183095    0.000000
      2          1           0       -0.781623   -2.753649    0.000000
      3          1           0        0.817518   -2.754805    0.000000
      4          8           0        0.018361    2.189131    0.000000
      5          1           0        0.592491    2.986552    0.000000
      6          1           0       -0.922156    2.473619    0.000000
 ---------------------------------------------------------------------

 SCF Done:  E(RHF) =  -33.6484465611     A.U. after   11 cycles
 E2 =    -0.2285930343D+00 EUMP2 =    -0.33877039595380D+02
 CCSD(T)
 CCSD(T)= -0.33894136969D+02

 The electronic state is 1-A'.
 Alpha  occ. eigenvalues --   -1.34444  -1.34347  -0.70067  -0.69965  -0.54046
 Alpha  occ. eigenvalues --   -0.53820  -0.48968  -0.48869
 Alpha virt. eigenvalues --    0.21005   0.21379   0.31366   0.31472   0.81424
 Alpha virt. eigenvalues --    0.81835   0.82160   0.86930   0.87991   0.89076
 Alpha virt. eigenvalues --    1.18318   1.18413   1.22796   1.22920   2.58339

 Mulliken charges:
               1
     1  O   -0.729534
     2  H    0.363450
     3  H    0.366091
     4  O   -0.729162
     5  H    0.362904
     6  H    0.366250
 Sum of Mulliken charges =  -0.00000

 Dipole moment (field-independent basis, Debye):
    X=             -0.8416    Y=             -0.1442    Z=              0.0000  Tot=              0.8538
 Quadrupole moment (field-independent basis, Debye-Ang):
   XX=             -8.2892   YY=             10.6202   ZZ=            -14.9849
   XY=             -1.3396   XZ=              0.0000   YZ=              0.0000

 DQ=-33.8884635\MP4SDQ=-33.8905023\CCSD=-33.8915616\CCSD(T)=-33.894137\
 Normal termination of Gaussian 16 at Sun Dec 10 06:26:41 2023.
