 Gaussian 16, Revision A.03,
 Gaussian 16:  ES64L-G16RevA.03 25-Dec-2016

 ------------------
 #p CCSD(T)/CEP-31G
 ------------------

 -----------
 H2O_H2O_236
 -----------
 Symbolic Z-matrix:
 Charge =  0 Multiplicity = 1

                         Standard orientation:
 ---------------------------------------------------------------------
 Center     Atomic      Atomic             Coordinates (Angstroms)
 Number     Number       Type             X           Y           Z
 ---------------------------------------------------------------------
      1          8           0        0.037707   -0.908007    0.000000
      2          1           0       -0.763867   -1.476325    0.000000
      3          1           0        0.835265   -1.481946    0.000000
      4          8           0        0.037707    0.936088    0.000000
      5          1           0        0.265645    1.891887    0.000000
      6          1           0       -0.940355    0.841732    0.000000
 ---------------------------------------------------------------------

 SCF Done:  E(RHF) =  -33.5659098814     A.U. after   11 cycles
 E2 =    -0.2340111455D+00 EUMP2 =    -0.33799921026893D+02
 CCSD(T)
 CCSD(T)= -0.33816994315D+02

 The electronic state is 1-A'.
 Alpha  occ. eigenvalues --   -1.35355  -1.29852  -0.70685  -0.67564  -0.58720
 Alpha  occ. eigenvalues --   -0.50088  -0.43659  -0.40059
 Alpha virt. eigenvalues --    0.20608   0.27552   0.31680   0.33445   0.80928
 Alpha virt. eigenvalues --    0.84073   0.89808   0.95318   0.99072   1.19425
 Alpha virt. eigenvalues --    1.19966   1.25269   1.26848   1.33278   2.52222

 Mulliken charges:
               1
     1  O   -0.743507
     2  H    0.340891
     3  H    0.383669
     4  O   -0.664943
     5  H    0.339866
     6  H    0.344024
 Sum of Mulliken charges =  -0.00000

 Dipole moment (field-independent basis, Debye):
    X=             -1.4212    Y=             -0.6950    Z=              0.0000  Tot=              1.5820
 Quadrupole moment (field-independent basis, Debye-Ang):
   XX=             -9.1651   YY=             -5.5331   ZZ=            -14.9966
   XY=             -1.0034   XZ=              0.0000   YZ=              0.0000

 P4DQ=-33.8105543\MP4SDQ=-33.8130074\CCSD=-33.8138702\CCSD(T)=-33.81699
 Normal termination of Gaussian 16 at Sun Dec 10 06:29:10 2023.
