 Gaussian 16, Revision A.03,
 Gaussian 16:  ES64L-G16RevA.03 25-Dec-2016

 ------------------
 #p CCSD(T)/CEP-31G
 ------------------

 ------------
 H2O_H2O_2267
 ------------
 Symbolic Z-matrix:
 Charge =  0 Multiplicity = 1

                         Standard orientation:
 ---------------------------------------------------------------------
 Center     Atomic      Atomic             Coordinates (Angstroms)
 Number     Number       Type             X           Y           Z
 ---------------------------------------------------------------------
      1          8           0        0.051293   -1.965754    0.000000
      2          1           0       -0.749536   -2.535119    0.000000
      3          1           0        0.849602   -2.538650    0.000000
      4          8           0        0.051293    2.029233    0.000000
      5          1           0       -0.105157    2.999300    0.000000
      6          1           0       -0.815604    1.566637    0.000000
 ---------------------------------------------------------------------

 SCF Done:  E(RHF) =  -33.6506664184     A.U. after   11 cycles
 E2 =    -0.2285979909D+00 EUMP2 =    -0.33879264409357D+02
 CCSD(T)
 CCSD(T)= -0.33896302886D+02

 The electronic state is 1-A'.
 Alpha  occ. eigenvalues --   -1.35225  -1.33968  -0.70858  -0.69545  -0.54898
 Alpha  occ. eigenvalues --   -0.53614  -0.49779  -0.48528
 Alpha virt. eigenvalues --    0.20096   0.22103   0.30664   0.32001   0.79449
 Alpha virt. eigenvalues --    0.80592   0.82184   0.85809   0.86991   0.93490
 Alpha virt. eigenvalues --    1.17622   1.19111   1.22007   1.23696   2.57391

 Mulliken charges:
               1
     1  O   -0.737220
     2  H    0.364148
     3  H    0.373356
     4  O   -0.734466
     5  H    0.358989
     6  H    0.375193
 Sum of Mulliken charges =   0.00000

 Dipole moment (field-independent basis, Debye):
    X=             -2.3415    Y=             -1.5326    Z=              0.0000  Tot=              2.7985
 Quadrupole moment (field-independent basis, Debye-Ang):
   XX=             -9.7419   YY=              4.5694   ZZ=            -14.9885
   XY=             -4.2385   XZ=              0.0000   YZ=              0.0000

 \MP4DQ=-33.8906364\MP4SDQ=-33.8926778\CCSD=-33.893727\CCSD(T)=-33.8963
 Normal termination of Gaussian 16 at Sun Dec 10 07:08:12 2023.
