 Gaussian 16, Revision A.03,
 Gaussian 16:  ES64L-G16RevA.03 25-Dec-2016

 ------------------
 #p CCSD(T)/CEP-31G
 ------------------

 -----------
 H2O_H2O_254
 -----------
 Symbolic Z-matrix:
 Charge =  0 Multiplicity = 1

                         Standard orientation:
 ---------------------------------------------------------------------
 Center     Atomic      Atomic             Coordinates (Angstroms)
 Number     Number       Type             X           Y           Z
 ---------------------------------------------------------------------
      1          8           0        0.014785   -0.934465    0.000000
      2          1           0       -0.785562   -1.504510    0.000000
      3          1           0        0.813579   -1.506683    0.000000
      4          8           0        0.014785    0.938317    0.000000
      5          1           0        0.640322    1.696083    0.000000
      6          1           0       -0.904893    1.284294    0.000000
 ---------------------------------------------------------------------

 SCF Done:  E(RHF) =  -33.5652693121     A.U. after   11 cycles
 E2 =    -0.2339894091D+00 EUMP2 =    -0.33799258721138D+02
 CCSD(T)
 CCSD(T)= -0.33816205286D+02

 The electronic state is 1-A'.
 Alpha  occ. eigenvalues --   -1.34104  -1.29826  -0.68917  -0.66125  -0.60901
 Alpha  occ. eigenvalues --   -0.49063  -0.43372  -0.38211
 Alpha virt. eigenvalues --    0.21374   0.26933   0.32472   0.33565   0.79479
 Alpha virt. eigenvalues --    0.81481   0.90045   0.92255   1.05304   1.20172
 Alpha virt. eigenvalues --    1.22141   1.23001   1.27803   1.30211   2.48495

 Mulliken charges:
               1
     1  O   -0.704155
     2  H    0.340837
     3  H    0.360413
     4  O   -0.692447
     5  H    0.351042
     6  H    0.344310
 Sum of Mulliken charges =  -0.00000

 Dipole moment (field-independent basis, Debye):
    X=             -0.5559    Y=             -0.0952    Z=              0.0000  Tot=              0.5640
 Quadrupole moment (field-independent basis, Debye-Ang):
   XX=             -8.5135   YY=             -5.1202   ZZ=            -15.0306
   XY=             -0.3175   XZ=              0.0000   YZ=              0.0000

 MP4DQ=-33.8097925\MP4SDQ=-33.812203\CCSD=-33.8130889\CCSD(T)=-33.81620
 Normal termination of Gaussian 16 at Sun Dec 10 06:29:30 2023.
