 Gaussian 16, Revision A.03,
 Gaussian 16:  ES64L-G16RevA.03 25-Dec-2016

 ------------------
 #p CCSD(T)/CEP-31G
 ------------------

 ------------
 H2O_H2O_1238
 ------------
 Symbolic Z-matrix:
 Charge =  0 Multiplicity = 1

                         Standard orientation:
 ---------------------------------------------------------------------
 Center     Atomic      Atomic             Coordinates (Angstroms)
 Number     Number       Type             X           Y           Z
 ---------------------------------------------------------------------
      1          8           0        0.042989   -1.434082    0.000000
      2          1           0       -0.758032   -2.003178    0.000000
      3          1           0        0.841105   -2.007245    0.000000
      4          8           0        0.042989    1.472775    0.000000
      5          1           0        0.143270    2.450246    0.000000
      6          1           0       -0.914173    1.250632    0.000000
 ---------------------------------------------------------------------

 SCF Done:  E(RHF) =  -33.6444614557     A.U. after   11 cycles
 E2 =    -0.2294064200D+00 EUMP2 =    -0.33873867875728D+02
 CCSD(T)
 CCSD(T)= -0.33891162460D+02

 The electronic state is 1-A'.
 Alpha  occ. eigenvalues --   -1.34237  -1.32842  -0.69867  -0.68425  -0.54256
 Alpha  occ. eigenvalues --   -0.51540  -0.48774  -0.47288
 Alpha virt. eigenvalues --    0.20344   0.23785   0.31465   0.32645   0.78232
 Alpha virt. eigenvalues --    0.79117   0.83924   0.86191   0.92571   1.14511
 Alpha virt. eigenvalues --    1.18374   1.22216   1.23041   1.25627   2.60184

 Mulliken charges:
               1
     1  O   -0.724675
     2  H    0.352961
     3  H    0.370725
     4  O   -0.710993
     5  H    0.346294
     6  H    0.365688
 Sum of Mulliken charges =  -0.00000

 Dipole moment (field-independent basis, Debye):
    X=             -1.9023    Y=             -0.9667    Z=              0.0000  Tot=              2.1339
 Quadrupole moment (field-independent basis, Debye-Ang):
   XX=             -9.2863   YY=              1.2501   ZZ=            -14.9878
   XY=             -2.2012   XZ=              0.0000   YZ=              0.0000

 \MP4DQ=-33.885345\MP4SDQ=-33.8874558\CCSD=-33.8885183\CCSD(T)=-33.8911
 Normal termination of Gaussian 16 at Sun Dec 10 06:47:54 2023.
