 Gaussian 16, Revision A.03,
 Gaussian 16:  ES64L-G16RevA.03 25-Dec-2016

 ------------------
 #p CCSD(T)/CEP-31G
 ------------------

 ------------
 H2O_H2O_3072
 ------------
 Symbolic Z-matrix:
 Charge =  0 Multiplicity = 1

                         Standard orientation:
 ---------------------------------------------------------------------
 Center     Atomic      Atomic             Coordinates (Angstroms)
 Number     Number       Type             X           Y           Z
 ---------------------------------------------------------------------
      1          8           0        0.056724   -2.371886    0.000000
      2          1           0       -0.743995   -2.941407    0.000000
      3          1           0        0.855144   -2.944626    0.000000
      4          8           0        0.056724    2.470974    0.000000
      5          1           0       -0.403410    3.339181    0.000000
      6          1           0       -0.615331    1.754143    0.000000
 ---------------------------------------------------------------------

 SCF Done:  E(RHF) =  -33.6522309158     A.U. after   11 cycles
 E2 =    -0.2284049917D+00 EUMP2 =    -0.33880635907576D+02
 CCSD(T)
 CCSD(T)= -0.33897623225D+02

 The electronic state is 1-A'.
 Alpha  occ. eigenvalues --   -1.35719  -1.34422  -0.71354  -0.70022  -0.55482
 Alpha  occ. eigenvalues --   -0.54155  -0.50296  -0.49000
 Alpha virt. eigenvalues --    0.19986   0.21488   0.30307   0.31654   0.80259
 Alpha virt. eigenvalues --    0.81525   0.82972   0.84770   0.86347   0.87915
 Alpha virt. eigenvalues --    1.17201   1.18521   1.21639   1.23096   2.57205

 Mulliken charges:
               1
     1  O   -0.742688
     2  H    0.368506
     3  H    0.374242
     4  O   -0.741973
     5  H    0.364155
     6  H    0.377758
 Sum of Mulliken charges =   0.00000

 Dipole moment (field-independent basis, Debye):
    X=             -2.6072    Y=             -2.3497    Z=              0.0000  Tot=              3.5098
 Quadrupole moment (field-independent basis, Debye-Ang):
   XX=            -10.1228   YY=              4.1489   ZZ=            -14.9901
   XY=             -6.4159   XZ=              0.0000   YZ=              0.0000

 MP4DQ=-33.8919803\MP4SDQ=-33.8940087\CCSD=-33.8950607\CCSD(T)=-33.8976
 Normal termination of Gaussian 16 at Sun Dec 10 06:35:13 2023.
