 Gaussian 16, Revision A.03,
 Gaussian 16:  ES64L-G16RevA.03 25-Dec-2016

 ------------------
 #p CCSD(T)/CEP-31G
 ------------------

 -----------
 H2O_H2O_694
 -----------
 Symbolic Z-matrix:
 Charge =  0 Multiplicity = 1

                         Standard orientation:
 ---------------------------------------------------------------------
 Center     Atomic      Atomic             Coordinates (Angstroms)
 Number     Number       Type             X           Y           Z
 ---------------------------------------------------------------------
      1          8           0        0.054237   -1.120725    0.000000
      2          1           0       -0.747621   -1.688641    0.000000
      3          1           0        0.851508   -1.695063    0.000000
      4          8           0        0.054237    1.197799    0.000000
      5          1           0       -0.225791    2.139653    0.000000
      6          1           0       -0.745895    0.627453    0.000000
 ---------------------------------------------------------------------

 SCF Done:  E(RHF) =  -33.6357546402     A.U. after   11 cycles
 E2 =    -0.2307968108D+00 EUMP2 =    -0.33866551450995D+02
 CCSD(T)
 CCSD(T)= -0.33883643972D+02

 The electronic state is 1-A'.
 Alpha  occ. eigenvalues --   -1.35764  -1.31207  -0.71484  -0.68155  -0.54383
 Alpha  occ. eigenvalues --   -0.50347  -0.50232  -0.45637
 Alpha virt. eigenvalues --    0.19491   0.26686   0.30357   0.34629   0.77636
 Alpha virt. eigenvalues --    0.84190   0.89141   0.93298   0.96634   1.14208
 Alpha virt. eigenvalues --    1.19114   1.21033   1.24780   1.31029   2.67187

 Mulliken charges:
               1
     1  O   -0.765082
     2  H    0.358293
     3  H    0.398618
     4  O   -0.697315
     5  H    0.329854
     6  H    0.375631
 Sum of Mulliken charges =   0.00000

 Dipole moment (field-independent basis, Debye):
    X=             -2.2637    Y=             -1.9830    Z=              0.0000  Tot=              3.0095
 Quadrupole moment (field-independent basis, Debye-Ang):
   XX=             -9.9336   YY=             -3.4428   ZZ=            -14.9994
   XY=             -2.6653   XZ=              0.0000   YZ=              0.0000

 MP4DQ=-33.877604\MP4SDQ=-33.8798234\CCSD=-33.8808169\CCSD(T)=-33.88364
 Normal termination of Gaussian 16 at Sun Dec 10 06:37:42 2023.
