 Gaussian 16, Revision A.03,
 Gaussian 16:  ES64L-G16RevA.03 25-Dec-2016

 ------------------
 #p CCSD(T)/CEP-31G
 ------------------

 ------------
 H2O_H2O_3834
 ------------
 Symbolic Z-matrix:
 Charge =  0 Multiplicity = 1

                         Standard orientation:
 ---------------------------------------------------------------------
 Center     Atomic      Atomic             Coordinates (Angstroms)
 Number     Number       Type             X           Y           Z
 ---------------------------------------------------------------------
      1          8           0        0.031740   -2.827451    0.000000
      2          1           0       -0.768381   -3.397813    0.000000
      3          1           0        0.830760   -3.399353    0.000000
      4          8           0        0.031740    2.846641    0.000000
      5          1           0        0.380139    3.765403    0.000000
      6          1           0       -0.950353    2.878247    0.000000
 ---------------------------------------------------------------------

 SCF Done:  E(RHF) =  -33.6504961854     A.U. after   11 cycles
 E2 =    -0.2284559292D+00 EUMP2 =    -0.33878952114591D+02
 CCSD(T)
 CCSD(T)= -0.33895989668D+02

 The electronic state is 1-A'.
 Alpha  occ. eigenvalues --   -1.35009  -1.34829  -0.70637  -0.70451  -0.54671
 Alpha  occ. eigenvalues --   -0.54491  -0.49561  -0.49382
 Alpha virt. eigenvalues --    0.20690   0.20874   0.30923   0.31098   0.80992
 Alpha virt. eigenvalues --    0.81169   0.84117   0.84347   0.87203   0.87422
 Alpha virt. eigenvalues --    1.17838   1.18016   1.22307   1.22485   2.57886

 Mulliken charges:
               1
     1  O   -0.736560
     2  H    0.367165
     3  H    0.369395
     4  O   -0.736244
     5  H    0.366483
     6  H    0.369761
 Sum of Mulliken charges =   0.00000

 Dipole moment (field-independent basis, Debye):
    X=             -1.4631    Y=             -0.4505    Z=              0.0000  Tot=              1.5309
 Quadrupole moment (field-independent basis, Debye-Ang):
   XX=             -8.6954   YY=             16.1111   ZZ=            -14.9868
   XY=             -3.3741   XZ=              0.0000   YZ=              0.0000

 \MP4DQ=-33.8903353\MP4SDQ=-33.8923666\CCSD=-33.8934241\CCSD(T)=-33.895
 Normal termination of Gaussian 16 at Sun Dec 10 06:49:02 2023.
