 Gaussian 16, Revision A.03,
 Gaussian 16:  ES64L-G16RevA.03 25-Dec-2016

 ------------------
 #p CCSD(T)/CEP-31G
 ------------------

 ------------
 H2O_H2O_1296
 ------------
 Symbolic Z-matrix:
 Charge =  0 Multiplicity = 1

                         Standard orientation:
 ---------------------------------------------------------------------
 Center     Atomic      Atomic             Coordinates (Angstroms)
 Number     Number       Type             X           Y           Z
 ---------------------------------------------------------------------
      1          8           0        0.056166   -1.431953    0.000000
      2          1           0       -0.745265   -2.000473    0.000000
      3          1           0        0.853869   -2.005691    0.000000
      4          8           0        0.056166    1.523529    0.000000
      5          1           0       -0.345079    2.420473    0.000000
      6          1           0       -0.662173    0.853083    0.000000
 ---------------------------------------------------------------------

 SCF Done:  E(RHF) =  -33.6519908429     A.U. after   11 cycles
 E2 =    -0.2292993477D+00 EUMP2 =    -0.33881290190598D+02
 CCSD(T)
 CCSD(T)= -0.33898355057D+02

 The electronic state is 1-A'.
 Alpha  occ. eigenvalues --   -1.35937  -1.32486  -0.71589  -0.68181  -0.55631
 Alpha  occ. eigenvalues --   -0.52213  -0.50525  -0.47071
 Alpha virt. eigenvalues --    0.19225   0.24897   0.30100   0.34206   0.77171
 Alpha virt. eigenvalues --    0.78094   0.85664   0.86839   0.90530   1.11986
 Alpha virt. eigenvalues --    1.17001   1.20389   1.22109   1.28989   2.55912

 Mulliken charges:
               1
     1  O   -0.749597
     2  H    0.363227
     3  H    0.387400
     4  O   -0.734940
     5  H    0.345053
     6  H    0.388857
 Sum of Mulliken charges =  -0.00000

 Dipole moment (field-independent basis, Debye):
    X=             -2.4941    Y=             -2.3247    Z=              0.0000  Tot=              3.4095
 Quadrupole moment (field-independent basis, Debye-Ang):
   XX=            -10.0566   YY=             -1.3890   ZZ=            -14.9966
   XY=             -3.8309   XZ=              0.0000   YZ=              0.0000

 8\MP4DQ=-33.8925549\MP4SDQ=-33.8946677\CCSD=-33.8956972\CCSD(T)=-33.89
 Normal termination of Gaussian 16 at Sun Dec 10 06:48:59 2023.
