 Gaussian 16, Revision A.03,
 Gaussian 16:  ES64L-G16RevA.03 25-Dec-2016

 ------------------
 #p CCSD(T)/CEP-31G
 ------------------

 ------------
 H2O_H2O_3268
 ------------
 Symbolic Z-matrix:
 Charge =  0 Multiplicity = 1

                         Standard orientation:
 ---------------------------------------------------------------------
 Center     Atomic      Atomic             Coordinates (Angstroms)
 Number     Number       Type             X           Y           Z
 ---------------------------------------------------------------------
      1          8           0        0.052829   -2.493874    0.000000
      2          1           0       -0.747767   -3.063569    0.000000
      3          1           0        0.851373   -3.066441    0.000000
      4          8           0        0.052829    2.564198    0.000000
      5          1           0       -0.167125    3.521866    0.000000
      6          1           0       -0.781744    2.045551    0.000000
 ---------------------------------------------------------------------

 SCF Done:  E(RHF) =  -33.6513631731     A.U. after   11 cycles
 E2 =    -0.2284354233D+00 EUMP2 =    -0.33879798596347D+02
 CCSD(T)
 CCSD(T)= -0.33896811250D+02

 The electronic state is 1-A'.
 Alpha  occ. eigenvalues --   -1.35406  -1.34566  -0.71038  -0.70173  -0.55118
 Alpha  occ. eigenvalues --   -0.54267  -0.49971  -0.49133
 Alpha virt. eigenvalues --    0.20317   0.21225   0.30577   0.31421   0.80583
 Alpha virt. eigenvalues --    0.81404   0.83469   0.84611   0.86738   0.87770
 Alpha virt. eigenvalues --    1.17478   1.18314   1.21935   1.22798   2.57498

 Mulliken charges:
               1
     1  O   -0.739682
     2  H    0.367381
     3  H    0.372309
     4  O   -0.738752
     5  H    0.364623
     6  H    0.374121
 Sum of Mulliken charges =   0.00000

 Dipole moment (field-independent basis, Debye):
    X=             -2.4305    Y=             -1.6611    Z=              0.0000  Tot=              2.9439
 Quadrupole moment (field-independent basis, Debye-Ang):
   XX=             -9.8475   YY=              8.0237   ZZ=            -14.9885
   XY=             -5.7457   XZ=              0.0000   YZ=              0.0000

 3\MP4DQ=-33.8911631\MP4SDQ=-33.8931926\CCSD=-33.8942473\CCSD(T)=-33.89
 Normal termination of Gaussian 16 at Sun Dec 10 06:38:41 2023.
