 Gaussian 16, Revision A.03,
 Gaussian 16:  ES64L-G16RevA.03 25-Dec-2016

 ------------------
 #p CCSD(T)/CEP-31G
 ------------------

 ------------
 H2O_H2O_3945
 ------------
 Symbolic Z-matrix:
 Charge =  0 Multiplicity = 1

                         Standard orientation:
 ---------------------------------------------------------------------
 Center     Atomic      Atomic             Coordinates (Angstroms)
 Number     Number       Type             X           Y           Z
 ---------------------------------------------------------------------
      1          8           0        0.055237   -2.845176    0.000000
      2          1           0       -0.745273   -3.414992    0.000000
      3          1           0        0.853867   -3.417622    0.000000
      4          8           0        0.055237    2.929657    0.000000
      5          1           0       -0.287976    3.850370    0.000000
      6          1           0       -0.704404    2.306398    0.000000
 ---------------------------------------------------------------------

 SCF Done:  E(RHF) =  -33.6517456171     A.U. after   11 cycles
 E2 =    -0.2283958183D+00 EUMP2 =    -0.33880141435344D+02
 CCSD(T)
 CCSD(T)= -0.33897142710D+02

 The electronic state is 1-A'.
 Alpha  occ. eigenvalues --   -1.35557  -1.34797  -0.71190  -0.70413  -0.55291
 Alpha  occ. eigenvalues --   -0.54520  -0.50128  -0.49368
 Alpha virt. eigenvalues --    0.20210   0.20995   0.30451   0.31222   0.80425
 Alpha virt. eigenvalues --    0.81171   0.83445   0.84221   0.86562   0.87402
 Alpha virt. eigenvalues --    1.17343   1.18098   1.21801   1.22572   2.57359

 Mulliken charges:
               1
     1  O   -0.740995
     2  H    0.368751
     3  H    0.372245
     4  O   -0.740575
     5  H    0.366560
     6  H    0.374015
 Sum of Mulliken charges =   0.00000

 Dipole moment (field-independent basis, Debye):
    X=             -2.5467    Y=             -1.9828    Z=              0.0000  Tot=              3.2275
 Quadrupole moment (field-independent basis, Debye-Ang):
   XX=            -10.0191   YY=              8.9106   ZZ=            -14.9888
   XY=             -7.1616   XZ=              0.0000   YZ=              0.0000

 1\MP4DQ=-33.8914981\MP4SDQ=-33.8935261\CCSD=-33.894581\CCSD(T)=-33.897
 Normal termination of Gaussian 16 at Sun Dec 10 06:51:05 2023.
