 Gaussian 16, Revision A.03,
 Gaussian 16:  ES64L-G16RevA.03 25-Dec-2016

 ------------------
 #p CCSD(T)/CEP-31G
 ------------------

 ------------
 H2O_H2O_4551
 ------------
 Symbolic Z-matrix:
 Charge =  0 Multiplicity = 1

                         Standard orientation:
 ---------------------------------------------------------------------
 Center     Atomic      Atomic             Coordinates (Angstroms)
 Number     Number       Type             X           Y           Z
 ---------------------------------------------------------------------
      1          8           0        0.003735   -3.223322    0.000000
      2          1           0       -0.795893   -3.794374    0.000000
      3          1           0        0.803249   -3.794534    0.000000
      4          8           0        0.003735    3.223566    0.000000
      5          1           0        0.764303    3.845694    0.000000
      6          1           0       -0.831426    3.741264    0.000000
 ---------------------------------------------------------------------

 SCF Done:  E(RHF) =  -33.6506710677     A.U. after   10 cycles
 E2 =    -0.2284368708D+00 EUMP2 =    -0.33879107938533D+02
 CCSD(T)
 CCSD(T)= -0.33896140460D+02

 The electronic state is 1-A'.
 Alpha  occ. eigenvalues --   -1.35016  -1.35015  -0.70644  -0.70642  -0.54689
 Alpha  occ. eigenvalues --   -0.54687  -0.49571  -0.49569
 Alpha virt. eigenvalues --    0.20693   0.20695   0.30925   0.30927   0.80983
 Alpha virt. eigenvalues --    0.80985   0.84112   0.84122   0.87186   0.87188
 Alpha virt. eigenvalues --    1.17838   1.17839   1.22304   1.22306   2.57882

 Mulliken charges:
               1
     1  O   -0.737135
     2  H    0.368475
     3  H    0.368660
     4  O   -0.737132
     5  H    0.368437
     6  H    0.368696
 Sum of Mulliken charges =  -0.00000

 Dipole moment (field-independent basis, Debye):
    X=             -0.1725    Y=             -0.0057    Z=              0.0000  Tot=              0.1726
 Quadrupole moment (field-independent basis, Debye-Ang):
   XX=             -8.0463   YY=             22.1734   ZZ=            -14.9868
   XY=             -0.4399   XZ=              0.0000   YZ=              0.0000

 MP4DQ=-33.8904876\MP4SDQ=-33.8925182\CCSD=-33.8935758\CCSD(T)=-33.8961
 Normal termination of Gaussian 16 at Sun Dec 10 07:03:34 2023.
