 Gaussian 16, Revision A.03,
 Gaussian 16:  ES64L-G16RevA.03 25-Dec-2016

 ------------------
 #p CCSD(T)/CEP-31G
 ------------------

 ------------
 H2O_H2O_3530
 ------------
 Symbolic Z-matrix:
 Charge =  0 Multiplicity = 1

                         Standard orientation:
 ---------------------------------------------------------------------
 Center     Atomic      Atomic             Coordinates (Angstroms)
 Number     Number       Type             X           Y           Z
 ---------------------------------------------------------------------
      1          8           0        0.018360   -2.675042    0.000000
      2          1           0       -0.781548   -3.245702    0.000000
      3          1           0        0.817594   -3.246646    0.000000
      4          8           0        0.018360    2.681082    0.000000
      5          1           0        0.592385    3.478579    0.000000
      6          1           0       -0.922194    2.965445    0.000000
 ---------------------------------------------------------------------

 SCF Done:  E(RHF) =  -33.6499513663     A.U. after   11 cycles
 E2 =    -0.2284834815D+00 EUMP2 =    -0.33878434847766D+02
 CCSD(T)
 CCSD(T)= -0.33895488088D+02

 The electronic state is 1-A'.
 Alpha  occ. eigenvalues --   -1.34813  -1.34749  -0.70438  -0.70372  -0.54444
 Alpha  occ. eigenvalues --   -0.54378  -0.49357  -0.49293
 Alpha virt. eigenvalues --    0.20853   0.20927   0.31087   0.31149   0.81195
 Alpha virt. eigenvalues --    0.81261   0.84208   0.84667   0.87433   0.87526
 Alpha virt. eigenvalues --    1.18011   1.18074   1.22485   1.22548   2.58072

 Mulliken charges:
               1
     1  O   -0.734653
     2  H    0.366567
     3  H    0.368087
     4  O   -0.734505
     5  H    0.366221
     6  H    0.368283
 Sum of Mulliken charges =  -0.00000

 Dipole moment (field-independent basis, Debye):
    X=             -0.8456    Y=             -0.1422    Z=              0.0000  Tot=              0.8575
 Quadrupole moment (field-independent basis, Debye-Ang):
   XX=             -8.2672   YY=             15.7999   ZZ=            -14.9861
   XY=             -1.7425   XZ=              0.0000   YZ=              0.0000

 MP4DQ=-33.8898294\MP4SDQ=-33.8918621\CCSD=-33.8929206\CCSD(T)=-33.8954
 Normal termination of Gaussian 16 at Sun Dec 10 06:43:26 2023.
