 Gaussian 16, Revision A.03,
 Gaussian 16:  ES64L-G16RevA.03 25-Dec-2016

 ------------------
 #p CCSD(T)/CEP-31G
 ------------------

 ------------
 H2O_H2O_2250
 ------------
 Symbolic Z-matrix:
 Charge =  0 Multiplicity = 1

                         Standard orientation:
 ---------------------------------------------------------------------
 Center     Atomic      Atomic             Coordinates (Angstroms)
 Number     Number       Type             X           Y           Z
 ---------------------------------------------------------------------
      1          8           0        0.000000   -0.000000    2.000231
      2          1           0        0.000000    0.799571    2.571363
      3          1           0       -0.000000   -0.799571    2.571363
      4          8           0        0.000000   -0.000000   -2.000231
      5          1           0       -0.000000   -0.799571   -2.571363
      6          1           0        0.000000    0.799571   -2.571363
 ---------------------------------------------------------------------

 SCF Done:  E(RHF) =  -33.6471292674     A.U. after   10 cycles
 E2 =    -0.2286880765D+00 EUMP2 =    -0.33875817343853D+02
 CCSD(T)
 CCSD(T)= -0.33892954839D+02

 The electronic state is 1-AG.
 Alpha  occ. eigenvalues --   -1.34144  -1.34133  -0.69766  -0.69751  -0.53819
 Alpha  occ. eigenvalues --   -0.53362  -0.48673  -0.48612
 Alpha virt. eigenvalues --    0.21079   0.21679   0.31522   0.31699   0.79969
 Alpha virt. eigenvalues --    0.81399   0.82406   0.87101   0.89459   0.91771
 Alpha virt. eigenvalues --    1.18569   1.18576   1.22950   1.23212   2.58299

 Mulliken charges:
               1
     1  O   -0.725087
     2  H    0.362543
     3  H    0.362543
     4  O   -0.725087
     5  H    0.362543
     6  H    0.362543
 Sum of Mulliken charges =   0.00000

 Dipole moment (field-independent basis, Debye):
    X=             -0.0000    Y=              0.0000    Z=             -0.0000  Tot=              0.0000
 Quadrupole moment (field-independent basis, Debye-Ang):
   XX=            -14.9840   YY=             -8.0934   ZZ=              9.0110
   XY=              0.0000   XZ=              0.0000   YZ=             -0.0000

 33.8872645\MP4SDQ=-33.8893112\CCSD=-33.890371\CCSD(T)=-33.8929548\RMSD
 Normal termination of Gaussian 16 at Sun Dec 10 07:07:54 2023.
