 Gaussian 16, Revision A.03,
 Gaussian 16:  ES64L-G16RevA.03 25-Dec-2016

 ------------------
 #p CCSD(T)/CEP-31G
 ------------------

 ------------
 H2O_H2O_3676
 ------------
 Symbolic Z-matrix:
 Charge =  0 Multiplicity = 1

                         Standard orientation:
 ---------------------------------------------------------------------
 Center     Atomic      Atomic             Coordinates (Angstroms)
 Number     Number       Type             X           Y           Z
 ---------------------------------------------------------------------
      1          8           0        0.003735   -2.757965    0.000000
      2          1           0       -0.795902   -3.329004    0.000000
      3          1           0        0.803240   -3.329190    0.000000
      4          8           0        0.003735    2.758209    0.000000
      5          1           0        0.764314    3.380324    0.000000
      6          1           0       -0.831417    3.275921    0.000000
 ---------------------------------------------------------------------

 SCF Done:  E(RHF) =  -33.6499871828     A.U. after   10 cycles
 E2 =    -0.2284775489D+00 EUMP2 =    -0.33878464731636D+02
 CCSD(T)
 CCSD(T)= -0.33895516873D+02

 The electronic state is 1-A'.
 Alpha  occ. eigenvalues --   -1.34804  -1.34802  -0.70430  -0.70427  -0.54441
 Alpha  occ. eigenvalues --   -0.54430  -0.49348  -0.49346
 Alpha virt. eigenvalues --    0.20859   0.20881   0.31096   0.31101   0.81201
 Alpha virt. eigenvalues --    0.81212   0.84268   0.84560   0.87433   0.87459
 Alpha virt. eigenvalues --    1.18021   1.18024   1.22493   1.22498   2.58076

 Mulliken charges:
               1
     1  O   -0.734761
     2  H    0.367238
     3  H    0.367523
     4  O   -0.734755
     5  H    0.367187
     6  H    0.367568
 Sum of Mulliken charges =   0.00000

 Dipole moment (field-independent basis, Debye):
    X=             -0.1721    Y=             -0.0057    Z=              0.0000  Tot=              0.1722
 Quadrupole moment (field-independent basis, Debye-Ang):
   XX=             -8.0570   YY=             17.1949   ZZ=            -14.9861
   XY=             -0.3611   XZ=              0.0000   YZ=              0.0000

 \MP4DQ=-33.8898585\MP4SDQ=-33.8918911\CCSD=-33.8929496\CCSD(T)=-33.895
 Normal termination of Gaussian 16 at Sun Dec 10 06:46:06 2023.
