 Gaussian 16, Revision A.03,
 Gaussian 16:  ES64L-G16RevA.03 25-Dec-2016

 ------------------
 #p CCSD(T)/CEP-31G
 ------------------

 ------------
 H2O_H2O_1024
 ------------
 Symbolic Z-matrix:
 Charge =  0 Multiplicity = 1

                         Standard orientation:
 ---------------------------------------------------------------------
 Center     Atomic      Atomic             Coordinates (Angstroms)
 Number     Number       Type             X           Y           Z
 ---------------------------------------------------------------------
      1          8           0        0.057324   -1.273626    0.000000
      2          1           0       -0.744352   -1.841799    0.000000
      3          1           0        0.854779   -1.847709    0.000000
      4          8           0        0.057324    1.387429    0.000000
      5          1           0       -0.510850    2.189106    0.000000
      6          1           0       -0.516759    0.589974    0.000000
 ---------------------------------------------------------------------

 SCF Done:  E(RHF) =  -33.6529822667     A.U. after   11 cycles
 E2 =    -0.2296606684D+00 EUMP2 =    -0.33882642935128D+02
 CCSD(T)
 CCSD(T)= -0.33899452137D+02

 The electronic state is 1-A'.
 Alpha  occ. eigenvalues --   -1.37087  -1.31470  -0.72736  -0.68101  -0.56312
 Alpha  occ. eigenvalues --   -0.51708  -0.51342  -0.46062
 Alpha virt. eigenvalues --    0.18735   0.26414   0.29272   0.37179   0.76670
 Alpha virt. eigenvalues --    0.79013   0.87388   0.87595   0.96427   1.10578
 Alpha virt. eigenvalues --    1.17560   1.19932   1.23335   1.31501   2.58798

 Mulliken charges:
               1
     1  O   -0.774143
     2  H    0.370491
     3  H    0.407010
     4  O   -0.741710
     5  H    0.337277
     6  H    0.401075
 Sum of Mulliken charges =  -0.00000

 Dipole moment (field-independent basis, Debye):
    X=             -2.4914    Y=             -2.9951    Z=              0.0000  Tot=              3.8959
 Quadrupole moment (field-independent basis, Debye-Ang):
   XX=            -10.1204   YY=             -3.9093   ZZ=            -15.0074
   XY=             -3.9110   XZ=              0.0000   YZ=              0.0000

 9\MP4DQ=-33.8935594\MP4SDQ=-33.8957124\CCSD=-33.8966934\CCSD(T)=-33.89
 Normal termination of Gaussian 16 at Sun Dec 10 06:43:54 2023.
