 Gaussian 16, Revision A.03,
 Gaussian 16:  ES64L-G16RevA.03 25-Dec-2016

 ------------------
 #p CCSD(T)/CEP-31G
 ------------------

 ------------
 H2O_H2O_2238
 ------------
 Symbolic Z-matrix:
 Charge =  0 Multiplicity = 1

                         Standard orientation:
 ---------------------------------------------------------------------
 Center     Atomic      Atomic             Coordinates (Angstroms)
 Number     Number       Type             X           Y           Z
 ---------------------------------------------------------------------
      1          8           0        0.042976   -1.965888    0.000000
      2          1           0       -0.757657   -2.535530    0.000000
      3          1           0        0.841482   -2.538507    0.000000
      4          8           0        0.042976    2.004639    0.000000
      5          1           0        0.142590    2.982179    0.000000
      6          1           0       -0.914034    1.781845    0.000000
 ---------------------------------------------------------------------

 SCF Done:  E(RHF) =  -33.6492093082     A.U. after   11 cycles
 E2 =    -0.2286506362D+00 EUMP2 =    -0.33877859944379D+02
 CCSD(T)
 CCSD(T)= -0.33894939987D+02

 The electronic state is 1-A'.
 Alpha  occ. eigenvalues --   -1.34791  -1.34022  -0.70420  -0.69612  -0.54402
 Alpha  occ. eigenvalues --   -0.53570  -0.49326  -0.48561
 Alpha virt. eigenvalues --    0.20515   0.21905   0.31049   0.31824   0.79190
 Alpha virt. eigenvalues --    0.80941   0.82260   0.85997   0.87744   0.94099
 Alpha virt. eigenvalues --    1.18000   1.18865   1.22441   1.23329   2.57888

 Mulliken charges:
               1
     1  O   -0.732280
     2  H    0.362250
     3  H    0.370188
     4  O   -0.729719
     5  H    0.358920
     6  H    0.370641
 Sum of Mulliken charges =   0.00000

 Dipole moment (field-independent basis, Debye):
    X=             -1.9609    Y=             -0.9357    Z=              0.0000  Tot=              2.1727
 Quadrupole moment (field-independent basis, Debye-Ang):
   XX=             -9.2493   YY=              6.3234   ZZ=            -14.9866
   XY=             -3.1936   XZ=              0.0000   YZ=              0.0000

 MP4DQ=-33.8892636\MP4SDQ=-33.8913075\CCSD=-33.8923606\CCSD(T)=-33.8949
 Normal termination of Gaussian 16 at Sun Dec 10 07:07:41 2023.
