 Gaussian 16, Revision A.03,
 Gaussian 16:  ES64L-G16RevA.03 25-Dec-2016

 ------------------
 #p CCSD(T)/CEP-31G
 ------------------

 ----------
 H2O_H2O_43
 ----------
 Symbolic Z-matrix:
 Charge =  0 Multiplicity = 1

                         Standard orientation:
 ---------------------------------------------------------------------
 Center     Atomic      Atomic             Coordinates (Angstroms)
 Number     Number       Type             X           Y           Z
 ---------------------------------------------------------------------
      1          8           0        0.052962   -0.778910    0.000000
      2          1           0       -0.749785   -1.345571    0.000000
      3          1           0        0.849333   -1.354496    0.000000
      4          8           0        0.052962    0.848834    0.000000
      5          1           0       -0.163366    1.807327    0.000000
      6          1           0       -0.783568    0.333351    0.000000
 ---------------------------------------------------------------------

 SCF Done:  E(RHF) =  -33.4555232439     A.U. after   12 cycles
 E2 =    -0.2376289560D+00 EUMP2 =    -0.33693152199929D+02
 CCSD(T)
 CCSD(T)= -0.33709664263D+02

 The electronic state is 1-A'.
 Alpha  occ. eigenvalues --   -1.42415  -1.28339  -0.78008  -0.72146  -0.54905
 Alpha  occ. eigenvalues --   -0.53731  -0.42839  -0.38037
 Alpha virt. eigenvalues --    0.19342   0.29057   0.30561   0.34090   0.80032
 Alpha virt. eigenvalues --    0.82638   0.89053   0.95471   0.96219   1.18528
 Alpha virt. eigenvalues --    1.20720   1.26591   1.29224   1.40571   2.70909

 Mulliken charges:
               1
     1  O   -0.772377
     2  H    0.341512
     3  H    0.419511
     4  O   -0.625244
     5  H    0.277753
     6  H    0.358845
 Sum of Mulliken charges =   0.00000

 Dipole moment (field-independent basis, Debye):
    X=             -1.8402    Y=             -1.8990    Z=              0.0000  Tot=              2.6443
 Quadrupole moment (field-independent basis, Debye-Ang):
   XX=             -9.9061   YY=             -8.6283   ZZ=            -14.8909
   XY=             -1.5542   XZ=              0.0000   YZ=              0.0000

 MP4DQ=-33.7026354\MP4SDQ=-33.7054904\CCSD=-33.7059816\CCSD(T)=-33.7096
 Normal termination of Gaussian 16 at Sun Dec 10 06:25:32 2023.
