 Gaussian 16, Revision A.03,
 Gaussian 16:  ES64L-G16RevA.03 25-Dec-2016

 ------------------
 #p CCSD(T)/CEP-31G
 ------------------

 ------------
 H2O_H2O_3573
 ------------
 Symbolic Z-matrix:
 Charge =  0 Multiplicity = 1

                         Standard orientation:
 ---------------------------------------------------------------------
 Center     Atomic      Atomic             Coordinates (Angstroms)
 Number     Number       Type             X           Y           Z
 ---------------------------------------------------------------------
      1          8           0        0.057088   -2.633754    0.000000
      2          1           0       -0.743524   -3.203425    0.000000
      3          1           0        0.855615   -3.206345    0.000000
      4          8           0        0.057088    2.740301    0.000000
      5          1           0       -0.459001    3.576458    0.000000
      6          1           0       -0.566503    1.980932    0.000000
 ---------------------------------------------------------------------

 SCF Done:  E(RHF) =  -33.6522383176     A.U. after   11 cycles
 E2 =    -0.2283775616D+00 EUMP2 =    -0.33880615879177D+02
 CCSD(T)
 CCSD(T)= -0.33897602773D+02

 The electronic state is 1-A'.
 Alpha  occ. eigenvalues --   -1.35752  -1.34642  -0.71387  -0.70252  -0.55514
 Alpha  occ. eigenvalues --   -0.54381  -0.50330  -0.49219
 Alpha virt. eigenvalues --    0.20027   0.21206   0.30285   0.31432   0.80224
 Alpha virt. eigenvalues --    0.81310   0.83166   0.84362   0.86331   0.87545
 Alpha virt. eigenvalues --    1.17169   1.18276   1.21621   1.22774   2.57164

 Mulliken charges:
               1
     1  O   -0.742737
     2  H    0.369248
     3  H    0.373498
     4  O   -0.742406
     5  H    0.365893
     6  H    0.376504
 Sum of Mulliken charges =  -0.00000

 Dipole moment (field-independent basis, Debye):
    X=             -2.6288    Y=             -2.5098    Z=              0.0000  Tot=              3.6345
 Quadrupole moment (field-independent basis, Debye-Ang):
   XX=            -10.1536   YY=              4.8418   ZZ=            -14.9898
   XY=             -7.2848   XZ=              0.0000   YZ=              0.0000

 6\MP4DQ=-33.8919616\MP4SDQ=-33.8939885\CCSD=-33.895042\CCSD(T)=-33.897
 Normal termination of Gaussian 16 at Sun Dec 10 06:44:13 2023.
