 Gaussian 16, Revision A.03,
 Gaussian 16:  ES64L-G16RevA.03 25-Dec-2016

 ------------------
 #p CCSD(T)/CEP-31G
 ------------------

 ------------
 H2O_H2O_1568
 ------------
 Symbolic Z-matrix:
 Charge =  0 Multiplicity = 1

                         Standard orientation:
 ---------------------------------------------------------------------
 Center     Atomic      Atomic             Coordinates (Angstroms)
 Number     Number       Type             X           Y           Z
 ---------------------------------------------------------------------
      1          8           0        0.052864   -1.589807    0.000000
      2          1           0       -0.748300   -2.158702    0.000000
      3          1           0        0.850835   -2.163172    0.000000
      4          8           0        0.052864    1.660026    0.000000
      5          1           0       -0.166133    2.617913    0.000000
      6          1           0       -0.782227    1.142214    0.000000
 ---------------------------------------------------------------------

 SCF Done:  E(RHF) =  -33.6502056952     A.U. after   11 cycles
 E2 =    -0.2290066551D+00 EUMP2 =    -0.33879212350279D+02
 CCSD(T)
 CCSD(T)= -0.33896319689D+02

 The electronic state is 1-A'.
 Alpha  occ. eigenvalues --   -1.35284  -1.33143  -0.70925  -0.68701  -0.54970
 Alpha  occ. eigenvalues --   -0.52723  -0.49840  -0.47703
 Alpha virt. eigenvalues --    0.19649   0.23594   0.30581   0.32855   0.75692
 Alpha virt. eigenvalues --    0.79351   0.84270   0.85934   0.88280   1.07437
 Alpha virt. eigenvalues --    1.17471   1.20801   1.22105   1.26168   2.56172

 Mulliken charges:
               1
     1  O   -0.737185
     2  H    0.360682
     3  H    0.377352
     4  O   -0.729549
     5  H    0.350288
     6  H    0.378412
 Sum of Mulliken charges =   0.00000

 Dipole moment (field-independent basis, Debye):
    X=             -2.3759    Y=             -1.7483    Z=              0.0000  Tot=              2.9498
 Quadrupole moment (field-independent basis, Debye-Ang):
   XX=             -9.8435   YY=              1.1171   ZZ=            -14.9905
   XY=             -3.6045   XZ=              0.0000   YZ=              0.0000

 5\MP4DQ=-33.8905801\MP4SDQ=-33.8926645\CCSD=-33.893706\CCSD(T)=-33.896
 Normal termination of Gaussian 16 at Sun Dec 10 06:54:02 2023.
