 Gaussian 16, Revision A.03,
 Gaussian 16:  ES64L-G16RevA.03 25-Dec-2016

 ------------------
 #p CCSD(T)/CEP-31G
 ------------------

 ------------
 H2O_H2O_1569
 ------------
 Symbolic Z-matrix:
 Charge =  0 Multiplicity = 1

                         Standard orientation:
 ---------------------------------------------------------------------
 Center     Atomic      Atomic             Coordinates (Angstroms)
 Number     Number       Type             X           Y           Z
 ---------------------------------------------------------------------
      1          8           0        0.054193   -1.586016    0.000000
      2          1           0       -0.747011   -2.154854    0.000000
      3          1           0        0.852124   -2.159437    0.000000
      4          8           0        0.054193    1.663215    0.000000
      5          1           0       -0.226919    2.604748    0.000000
      6          1           0       -0.745283    1.091950    0.000000
 ---------------------------------------------------------------------

 SCF Done:  E(RHF) =  -33.6509596097     A.U. after   11 cycles
 E2 =    -0.2289943391D+00 EUMP2 =    -0.33879953948795D+02
 CCSD(T)
 CCSD(T)= -0.33897040477D+02

 The electronic state is 1-A'.
 Alpha  occ. eigenvalues --   -1.35468  -1.33096  -0.71110  -0.68657  -0.55175
 Alpha  occ. eigenvalues --   -0.52732  -0.50032  -0.47666
 Alpha virt. eigenvalues --    0.19514   0.23735   0.30433   0.33037   0.75866
 Alpha virt. eigenvalues --    0.79216   0.84249   0.86153   0.88067   1.06991
 Alpha virt. eigenvalues --    1.17307   1.20727   1.21991   1.26714   2.55650

 Mulliken charges:
               1
     1  O   -0.739762
     2  H    0.361792
     3  H    0.378981
     4  O   -0.732375
     5  H    0.350307
     6  H    0.381056
 Sum of Mulliken charges =  -0.00000

 Dipole moment (field-independent basis, Debye):
    X=             -2.4363    Y=             -1.9246    Z=              0.0000  Tot=              3.1048
 Quadrupole moment (field-independent basis, Debye-Ang):
   XX=             -9.9299   YY=              0.6633   ZZ=            -14.9916
   XY=             -3.8118   XZ=              0.0000   YZ=              0.0000

 \MP4DQ=-33.8913019\MP4SDQ=-33.8933864\CCSD=-33.8944256\CCSD(T)=-33.897
 Normal termination of Gaussian 16 at Sun Dec 10 06:54:03 2023.
