 Gaussian 16, Revision A.03,
 Gaussian 16:  ES64L-G16RevA.03 25-Dec-2016

 ------------------
 #p CCSD(T)/CEP-31G
 ------------------

 ------------
 H2O_H2O_1688
 ------------
 Symbolic Z-matrix:
 Charge =  0 Multiplicity = 1

                         Standard orientation:
 ---------------------------------------------------------------------
 Center     Atomic      Atomic             Coordinates (Angstroms)
 Number     Number       Type             X           Y           Z
 ---------------------------------------------------------------------
      1          8           0        0.042982   -1.673392    0.000000
      2          1           0       -0.757834   -2.242777    0.000000
      3          1           0        0.841304   -2.246269    0.000000
      4          8           0        0.042982    1.712116    0.000000
      5          1           0        0.142911    2.689623    0.000000
      6          1           0       -0.914100    1.489630    0.000000
 ---------------------------------------------------------------------

 SCF Done:  E(RHF) =  -33.6475409289     A.U. after   11 cycles
 E2 =    -0.2289428264D+00 EUMP2 =    -0.33876483755246D+02
 CCSD(T)
 CCSD(T)= -0.33893646366D+02

 The electronic state is 1-A'.
 Alpha  occ. eigenvalues --   -1.34545  -1.33481  -0.70175  -0.69052  -0.54216
 Alpha  occ. eigenvalues --   -0.52779  -0.49068  -0.47996
 Alpha virt. eigenvalues --    0.20335   0.22769   0.31211   0.32251   0.75460
 Alpha virt. eigenvalues --    0.80192   0.83866   0.85198   0.89529   1.05338
 Alpha virt. eigenvalues --    1.18159   1.19991   1.22666   1.24009   2.57786

 Mulliken charges:
               1
     1  O   -0.727507
     2  H    0.357879
     3  H    0.369976
     4  O   -0.722132
     5  H    0.352643
     6  H    0.369141
 Sum of Mulliken charges =   0.00000

 Dipole moment (field-independent basis, Debye):
    X=             -1.9395    Y=             -0.9571    Z=              0.0000  Tot=              2.1628
 Quadrupole moment (field-independent basis, Debye-Ang):
   XX=             -9.2642   YY=              3.6041   ZZ=            -14.9864
   XY=             -2.6438   XZ=              0.0000   YZ=              0.0000

 MP4DQ=-33.8879166\MP4SDQ=-33.8899907\CCSD=-33.8910416\CCSD(T)=-33.8936
 Normal termination of Gaussian 16 at Sun Dec 10 06:56:16 2023.
