 Gaussian 16, Revision A.03,
 Gaussian 16:  ES64L-G16RevA.03 25-Dec-2016

 ------------------
 #p CCSD(T)/CEP-31G
 ------------------

 -----------
 H2O_H2O_692
 -----------
 Symbolic Z-matrix:
 Charge =  0 Multiplicity = 1

                         Standard orientation:
 ---------------------------------------------------------------------
 Center     Atomic      Atomic             Coordinates (Angstroms)
 Number     Number       Type             X           Y           Z
 ---------------------------------------------------------------------
      1          8           0        0.051344   -1.128197    0.000000
      2          1           0       -0.750393   -1.696285    0.000000
      3          1           0        0.848738   -1.702365    0.000000
      4          8           0        0.051344    1.191513    0.000000
      5          1           0       -0.103559    2.161828    0.000000
      6          1           0       -0.816290    0.730299    0.000000
 ---------------------------------------------------------------------

 SCF Done:  E(RHF) =  -33.6342328764     A.U. after   11 cycles
 E2 =    -0.2307783126D+00 EUMP2 =    -0.33865011189016D+02
 CCSD(T)
 CCSD(T)= -0.33882247191D+02

 The electronic state is 1-A'.
 Alpha  occ. eigenvalues --   -1.35057  -1.31429  -0.70742  -0.67921  -0.54706
 Alpha  occ. eigenvalues --   -0.49680  -0.49575  -0.45783
 Alpha virt. eigenvalues --    0.19816   0.26264   0.30898   0.33888   0.78077
 Alpha virt. eigenvalues --    0.84264   0.89154   0.94613   0.95316   1.14740
 Alpha virt. eigenvalues --    1.18983   1.21641   1.24116   1.31112   2.62006

 Mulliken charges:
               1
     1  O   -0.755188
     2  H    0.354106
     3  H    0.390297
     4  O   -0.691061
     5  H    0.333534
     6  H    0.368312
 Sum of Mulliken charges =  -0.00000

 Dipole moment (field-independent basis, Debye):
    X=             -2.1454    Y=             -1.5981    Z=              0.0000  Tot=              2.6752
 Quadrupole moment (field-independent basis, Debye-Ang):
   XX=             -9.7657   YY=             -2.8777   ZZ=            -14.9968
   XY=             -2.3284   XZ=              0.0000   YZ=              0.0000

 P4DQ=-33.8762185\MP4SDQ=-33.8784265\CCSD=-33.8794461\CCSD(T)=-33.88224
 Normal termination of Gaussian 16 at Sun Dec 10 06:37:40 2023.
