 Gaussian 16, Revision A.03,
 Gaussian 16:  ES64L-G16RevA.03 25-Dec-2016

 ------------------
 #p CCSD(T)/CEP-31G
 ------------------

 ------------
 H2O_H2O_1937
 ------------
 Symbolic Z-matrix:
 Charge =  0 Multiplicity = 1

                         Standard orientation:
 ---------------------------------------------------------------------
 Center     Atomic      Atomic             Coordinates (Angstroms)
 Number     Number       Type             X           Y           Z
 ---------------------------------------------------------------------
      1          8           0        0.040417   -1.809296    0.000000
      2          1           0       -0.760240   -2.378905    0.000000
      3          1           0        0.838899   -2.381949    0.000000
      4          8           0        0.040417    1.842598    0.000000
      5          1           0        0.203793    2.811522    0.000000
      6          1           0       -0.929123    1.682913    0.000000
 ---------------------------------------------------------------------

 SCF Done:  E(RHF) =  -33.6480700189     A.U. after   11 cycles
 E2 =    -0.2287906666D+00 EUMP2 =    -0.33876860685524D+02
 CCSD(T)
 CCSD(T)= -0.33893985364D+02

 The electronic state is 1-A'.
 Alpha  occ. eigenvalues --   -1.34560  -1.33774  -0.70188  -0.69358  -0.54181
 Alpha  occ. eigenvalues --   -0.53174  -0.49083  -0.48296
 Alpha virt. eigenvalues --    0.20511   0.22272   0.31225   0.32000   0.76765
 Alpha virt. eigenvalues --    0.80715   0.82999   0.85724   0.88758   0.99509
 Alpha virt. eigenvalues --    1.18181   1.19217   1.22653   1.23573   2.57820

 Mulliken charges:
               1
     1  O   -0.728581
     2  H    0.359748
     3  H    0.369092
     4  O   -0.725180
     5  H    0.356006
     6  H    0.368915
 Sum of Mulliken charges =   0.00000

 Dipole moment (field-independent basis, Debye):
    X=             -1.8352    Y=             -0.8143    Z=              0.0000  Tot=              2.0078
 Quadrupole moment (field-independent basis, Debye-Ang):
   XX=             -9.1237   YY=              5.1952   ZZ=            -14.9860
   XY=             -2.6529   XZ=              0.0000   YZ=              0.0000

 P4DQ=-33.8882841\MP4SDQ=-33.8903419\CCSD=-33.8913938\CCSD(T)=-33.89398
 Normal termination of Gaussian 16 at Sun Dec 10 07:01:11 2023.
