 Gaussian 16, Revision A.03,
 Gaussian 16:  ES64L-G16RevA.03 25-Dec-2016

 ------------------
 #p CCSD(T)/CEP-31G
 ------------------

 -----------
 H2O_H2O_300
 -----------
 Symbolic Z-matrix:
 Charge =  0 Multiplicity = 1

                         Standard orientation:
 ---------------------------------------------------------------------
 Center     Atomic      Atomic             Coordinates (Angstroms)
 Number     Number       Type             X           Y           Z
 ---------------------------------------------------------------------
      1          8           0        0.000000   -0.000000    0.963150
      2          1           0        0.000000    0.799571    1.534282
      3          1           0       -0.000000   -0.799571    1.534282
      4          8           0        0.000000   -0.000000   -0.963150
      5          1           0       -0.000000   -0.799571   -1.534282
      6          1           0        0.000000    0.799571   -1.534282
 ---------------------------------------------------------------------

 SCF Done:  E(RHF) =  -33.5757397600     A.U. after   10 cycles
 E2 =    -0.2333747343D+00 EUMP2 =    -0.33809114494293D+02
 CCSD(T)
 CCSD(T)= -0.33826124415D+02

 The electronic state is 1-AG.
 Alpha  occ. eigenvalues --   -1.33593  -1.30014  -0.68469  -0.66033  -0.60324
 Alpha  occ. eigenvalues --   -0.48573  -0.43555  -0.39099
 Alpha virt. eigenvalues --    0.21548   0.26551   0.32720   0.33557   0.78380
 Alpha virt. eigenvalues --    0.81324   0.90190   0.92646   1.06422   1.20383
 Alpha virt. eigenvalues --    1.21637   1.23777   1.27114   1.27929   2.48037

 Mulliken charges:
               1
     1  O   -0.697364
     2  H    0.348682
     3  H    0.348682
     4  O   -0.697364
     5  H    0.348682
     6  H    0.348682
 Sum of Mulliken charges =   0.00000

 Dipole moment (field-independent basis, Debye):
    X=             -0.0000    Y=              0.0000    Z=              0.0000  Tot=              0.0000
 Quadrupole moment (field-independent basis, Debye-Ang):
   XX=            -15.0341   YY=             -8.3700   ZZ=             -4.5864
   XY=              0.0000   XZ=             -0.0000   YZ=             -0.0000

 33.8197882\MP4SDQ=-33.8221357\CCSD=-33.8230643\CCSD(T)=-33.8261244\RMS
 Normal termination of Gaussian 16 at Sun Dec 10 06:30:22 2023.
