 Gaussian 16, Revision A.03,
 Gaussian 16:  ES64L-G16RevA.03 25-Dec-2016

 ------------------
 #p CCSD(T)/CEP-31G
 ------------------

 ------------
 H2O_H2O_2940
 ------------
 Symbolic Z-matrix:
 Charge =  0 Multiplicity = 1

                         Standard orientation:
 ---------------------------------------------------------------------
 Center     Atomic      Atomic             Coordinates (Angstroms)
 Number     Number       Type             X           Y           Z
 ---------------------------------------------------------------------
      1          8           0        0.047532   -2.331739    0.000000
      2          1           0       -0.753029   -2.901483    0.000000
      3          1           0        0.846111   -2.904257    0.000000
      4          8           0        0.047532    2.382339    0.000000
      5          1           0        0.018574    3.364514    0.000000
      6          1           0       -0.872166    2.036419    0.000000
 ---------------------------------------------------------------------

 SCF Done:  E(RHF) =  -33.6506054533     A.U. after   11 cycles
 E2 =    -0.2284884336D+00 EUMP2 =    -0.33879093886905D+02
 CCSD(T)
 CCSD(T)= -0.33896128920D+02

 The electronic state is 1-A'.
 Alpha  occ. eigenvalues --   -1.35144  -1.34444  -0.70773  -0.70048  -0.54812
 Alpha  occ. eigenvalues --   -0.54105  -0.49697  -0.49000
 Alpha virt. eigenvalues --    0.20506   0.21326   0.30792   0.31487   0.80848
 Alpha virt. eigenvalues --    0.81546   0.83161   0.85152   0.87054   0.88327
 Alpha virt. eigenvalues --    1.17708   1.18408   1.22167   1.22890   2.57754

 Mulliken charges:
               1
     1  O   -0.737057
     2  H    0.365799
     3  H    0.371274
     4  O   -0.735736
     5  H    0.363284
     6  H    0.372436
 Sum of Mulliken charges =   0.00000

 Dipole moment (field-independent basis, Debye):
    X=             -2.1829    Y=             -1.2003    Z=              0.0000  Tot=              2.4911
 Quadrupole moment (field-independent basis, Debye-Ang):
   XX=             -9.5053   YY=              8.6213   ZZ=            -14.9875
   XY=             -4.4994   XZ=              0.0000   YZ=              0.0000

 2\MP4DQ=-33.8904741\MP4SDQ=-33.8925062\CCSD=-33.8935617\CCSD(T)=-33.89
 Normal termination of Gaussian 16 at Sun Dec 10 06:32:54 2023.
