 Gaussian 16, Revision A.03,
 Gaussian 16:  ES64L-G16RevA.03 25-Dec-2016

 ------------------
 #p CCSD(T)/CEP-31G
 ------------------

 ------------
 H2O_H2O_2746
 ------------
 Symbolic Z-matrix:
 Charge =  0 Multiplicity = 1

                         Standard orientation:
 ---------------------------------------------------------------------
 Center     Atomic      Atomic             Coordinates (Angstroms)
 Number     Number       Type             X           Y           Z
 ---------------------------------------------------------------------
      1          8           0        0.056114   -2.203050    0.000000
      2          1           0       -0.744680   -2.772466    0.000000
      3          1           0        0.854459   -2.775895    0.000000
      4          8           0        0.056114    2.294751    0.000000
      5          1           0       -0.346133    3.191246    0.000000
      6          1           0       -0.661474    1.623503    0.000000
 ---------------------------------------------------------------------

 SCF Done:  E(RHF) =  -33.6520991147     A.U. after   11 cycles
 E2 =    -0.2284461545D+00 EUMP2 =    -0.33880545269198D+02
 CCSD(T)
 CCSD(T)= -0.33897537339D+02

 The electronic state is 1-A'.
 Alpha  occ. eigenvalues --   -1.35657  -1.34244  -0.71292  -0.69834  -0.55412
 Alpha  occ. eigenvalues --   -0.53968  -0.50232  -0.48821
 Alpha virt. eigenvalues --    0.19931   0.21746   0.30343   0.31828   0.80315
 Alpha virt. eigenvalues --    0.81711   0.82374   0.85229   0.86383   0.88742
 Alpha virt. eigenvalues --    1.17257   1.18756   1.21671   1.23442   2.57260

 Mulliken charges:
               1
     1  O   -0.742175
     2  H    0.367634
     3  H    0.374693
     4  O   -0.740995
     5  H    0.362539
     6  H    0.378304
 Sum of Mulliken charges =   0.00000

 Dipole moment (field-independent basis, Debye):
    X=             -2.5742    Y=             -2.1882    Z=              0.0000  Tot=              3.3786
 Quadrupole moment (field-independent basis, Debye-Ang):
   XX=            -10.0752   YY=              3.8419   ZZ=            -14.9901
   XY=             -5.7753   XZ=              0.0000   YZ=              0.0000

 2\MP4DQ=-33.8918904\MP4SDQ=-33.8939216\CCSD=-33.8949719\CCSD(T)=-33.89
 Normal termination of Gaussian 16 at Sun Dec 10 06:29:19 2023.
