 Gaussian 16, Revision A.03,
 Gaussian 16:  ES64L-G16RevA.03 25-Dec-2016

 ------------------
 #p CCSD(T)/CEP-31G
 ------------------

 -----------
 H2O_H2O_744
 -----------
 Symbolic Z-matrix:
 Charge =  0 Multiplicity = 1

                         Standard orientation:
 ---------------------------------------------------------------------
 Center     Atomic      Atomic             Coordinates (Angstroms)
 Number     Number       Type             X           Y           Z
 ---------------------------------------------------------------------
      1          8           0        0.054234   -1.147311    0.000000
      2          1           0       -0.747573   -1.715300    0.000000
      3          1           0        0.851557   -1.721578    0.000000
      4          8           0        0.054234    1.224395    0.000000
      5          1           0       -0.225880    2.166225    0.000000
      6          1           0       -0.745848    0.653978    0.000000
 ---------------------------------------------------------------------

 SCF Done:  E(RHF) =  -33.6386363160     A.U. after   11 cycles
 E2 =    -0.2306085154D+00 EUMP2 =    -0.33869244831360D+02
 CCSD(T)
 CCSD(T)= -0.33886357920D+02

 The electronic state is 1-A'.
 Alpha  occ. eigenvalues --   -1.35687  -1.31355  -0.71389  -0.68061  -0.54523
 Alpha  occ. eigenvalues --   -0.50491  -0.50275  -0.45804
 Alpha virt. eigenvalues --    0.19495   0.26481   0.30390   0.34545   0.77585
 Alpha virt. eigenvalues --    0.83921   0.88908   0.92289   0.96046   1.14393
 Alpha virt. eigenvalues --    1.19276   1.20882   1.24312   1.30796   2.67571

 Mulliken charges:
               1
     1  O   -0.761938
     2  H    0.358270
     3  H    0.396733
     4  O   -0.701178
     5  H    0.331501
     6  H    0.376612
 Sum of Mulliken charges =  -0.00000

 Dipole moment (field-independent basis, Debye):
    X=             -2.2813    Y=             -1.9805    Z=              0.0000  Tot=              3.0211
 Quadrupole moment (field-independent basis, Debye-Ang):
   XX=             -9.9327   YY=             -3.1621   ZZ=            -14.9993
   XY=             -2.7341   XZ=              0.0000   YZ=              0.0000

 MP4DQ=-33.8803472\MP4SDQ=-33.8825523\CCSD=-33.8835554\CCSD(T)=-33.8863
 Normal termination of Gaussian 16 at Sun Dec 10 06:38:39 2023.
