 Gaussian 16, Revision A.03,
 Gaussian 16:  ES64L-G16RevA.03 25-Dec-2016

 ------------------
 #p CCSD(T)/CEP-31G
 ------------------

 ------------
 H2O_H2O_3612
 ------------
 Symbolic Z-matrix:
 Charge =  0 Multiplicity = 1

                         Standard orientation:
 ---------------------------------------------------------------------
 Center     Atomic      Atomic             Coordinates (Angstroms)
 Number     Number       Type             X           Y           Z
 ---------------------------------------------------------------------
      1          8           0        0.040407   -2.700096    0.000000
      2          1           0       -0.759895   -3.270204    0.000000
      3          1           0        0.839246   -3.272251    0.000000
      4          8           0        0.040407    2.733449    0.000000
      5          1           0        0.203178    3.702475    0.000000
      6          1           0       -0.929033    2.573158    0.000000
 ---------------------------------------------------------------------

 SCF Done:  E(RHF) =  -33.6506244031     A.U. after   11 cycles
 E2 =    -0.2284566755D+00 EUMP2 =    -0.33879081078623D+02
 CCSD(T)
 CCSD(T)= -0.33896115009D+02

 The electronic state is 1-A'.
 Alpha  occ. eigenvalues --   -1.35089  -1.34746  -0.70717  -0.70364  -0.54758
 Alpha  occ. eigenvalues --   -0.54414  -0.49642  -0.49301
 Alpha virt. eigenvalues --    0.20617   0.20969   0.30852   0.31187   0.80911
 Alpha virt. eigenvalues --    0.81247   0.83990   0.84438   0.87113   0.87533
 Alpha virt. eigenvalues --    1.17764   1.18103   1.22232   1.22573   2.57808

 Mulliken charges:
               1
     1  O   -0.737039
     2  H    0.366931
     3  H    0.370108
     4  O   -0.736472
     5  H    0.365752
     6  H    0.370719
 Sum of Mulliken charges =  -0.00000

 Dipole moment (field-independent basis, Debye):
    X=             -1.8613    Y=             -0.7845    Z=              0.0000  Tot=              2.0199
 Quadrupole moment (field-independent basis, Debye-Ang):
   XX=             -9.1002   YY=             13.4881   ZZ=            -14.9871
   XY=             -4.2589   XZ=              0.0000   YZ=              0.0000

 \MP4DQ=-33.8904616\MP4SDQ=-33.8924926\CCSD=-33.8935496\CCSD(T)=-33.896
 Normal termination of Gaussian 16 at Sun Dec 10 06:44:56 2023.
