 Gaussian 16, Revision A.03,
 Gaussian 16:  ES64L-G16RevA.03 25-Dec-2016

 ------------------
 #p CCSD(T)/CEP-31G
 ------------------

 ------------
 H2O_H2O_4999
 ------------
 Symbolic Z-matrix:
 Charge =  0 Multiplicity = 1

                         Standard orientation:
 ---------------------------------------------------------------------
 Center     Atomic      Atomic             Coordinates (Angstroms)
 Number     Number       Type             X           Y           Z
 ---------------------------------------------------------------------
      1          8           0        0.057195   -3.387540    0.000000
      2          1           0       -0.743191   -3.957531    0.000000
      3          1           0        0.855950   -3.959813    0.000000
      4          8           0        0.057195    3.501604    0.000000
      5          1           0       -0.512796    4.301989    0.000000
      6          1           0       -0.515078    2.702848    0.000000
 ---------------------------------------------------------------------

 SCF Done:  E(RHF) =  -33.6520529770     A.U. after   11 cycles
 E2 =    -0.2283659474D+00 EUMP2 =    -0.33880418924459D+02
 CCSD(T)
 CCSD(T)= -0.33897411452D+02

 The electronic state is 1-A'.
 Alpha  occ. eigenvalues --   -1.35728  -1.35030  -0.71362  -0.70655  -0.55477
 Alpha  occ. eigenvalues --   -0.54770  -0.50304  -0.49606
 Alpha virt. eigenvalues --    0.20059   0.20774   0.30301   0.31015   0.80247
 Alpha virt. eigenvalues --    0.80936   0.83248   0.83958   0.86368   0.87102
 Alpha virt. eigenvalues --    1.17186   1.17881   1.21641   1.22350   2.57196

 Mulliken charges:
               1
     1  O   -0.742074
     2  H    0.369993
     3  H    0.372082
     4  O   -0.742012
     5  H    0.368361
     6  H    0.373651
 Sum of Mulliken charges =  -0.00000

 Dipole moment (field-independent basis, Debye):
    X=             -2.6407    Y=             -2.6619    Z=              0.0000  Tot=              3.7495
 Quadrupole moment (field-independent basis, Debye-Ang):
   XX=            -10.1670   YY=              7.9585   ZZ=            -14.9891
   XY=             -9.4252   XZ=              0.0000   YZ=              0.0000

 \MP4DQ=-33.8917694\MP4SDQ=-33.8937963\CCSD=-33.8948512\CCSD(T)=-33.897
 Normal termination of Gaussian 16 at Sun Dec 10 07:11:50 2023.
