 Gaussian 16, Revision A.03,
 Gaussian 16:  ES64L-G16RevA.03 25-Dec-2016

 ------------------
 #p CCSD(T)/CEP-31G
 ------------------

 ------------
 H2O_H2O_2328
 ------------
 Symbolic Z-matrix:
 Charge =  0 Multiplicity = 1

                         Standard orientation:
 ---------------------------------------------------------------------
 Center     Atomic      Atomic             Coordinates (Angstroms)
 Number     Number       Type             X           Y           Z
 ---------------------------------------------------------------------
      1          8           0        0.011143   -2.038932    0.000000
      2          1           0       -0.788697   -2.609688    0.000000
      3          1           0        0.810445   -2.610440    0.000000
      4          8           0        0.011143    2.041116    0.000000
      5          1           0        0.684264    2.756947    0.000000
      6          1           0       -0.884297    2.445706    0.000000
 ---------------------------------------------------------------------

 SCF Done:  E(RHF) =  -33.6475044087     A.U. after   11 cycles
 E2 =    -0.2286635705D+00 EUMP2 =    -0.33876167979204D+02
 CCSD(T)
 CCSD(T)= -0.33893293908D+02

 The electronic state is 1-A'.
 Alpha  occ. eigenvalues --   -1.34226  -1.34185  -0.69848  -0.69803  -0.53875
 Alpha  occ. eigenvalues --   -0.53489  -0.48747  -0.48682
 Alpha virt. eigenvalues --    0.21053   0.21608   0.31492   0.31631   0.80471
 Alpha virt. eigenvalues --    0.81412   0.82249   0.87116   0.88972   0.91143
 Alpha virt. eigenvalues --    1.18499   1.18540   1.22924   1.23125   2.58318

 Mulliken charges:
               1
     1  O   -0.726346
     2  H    0.362210
     3  H    0.364143
     4  O   -0.726159
     5  H    0.361899
     6  H    0.364252
 Sum of Mulliken charges =  -0.00000

 Dipole moment (field-independent basis, Debye):
    X=             -0.5096    Y=             -0.0527    Z=              0.0000  Tot=              0.5123
 Quadrupole moment (field-independent basis, Debye-Ang):
   XX=             -8.1670   YY=              9.3109   ZZ=            -14.9843
   XY=             -0.7287   XZ=              0.0000   YZ=              0.0000

 MP4DQ=-33.8876084\MP4SDQ=-33.8896529\CCSD=-33.8907125\CCSD(T)=-33.8932
 Normal termination of Gaussian 16 at Sun Dec 10 07:09:18 2023.
