 Gaussian 16, Revision A.03,
 Gaussian 16:  ES64L-G16RevA.03 25-Dec-2016

 ------------------
 #p CCSD(T)/CEP-31G
 ------------------

 ------------
 H2O_H2O_1962
 ------------
 Symbolic Z-matrix:
 Charge =  0 Multiplicity = 1

                         Standard orientation:
 ---------------------------------------------------------------------
 Center     Atomic      Atomic             Coordinates (Angstroms)
 Number     Number       Type             X           Y           Z
 ---------------------------------------------------------------------
      1          8           0        0.040417   -1.822592    0.000000
      2          1           0       -0.760232   -2.392211    0.000000
      3          1           0        0.838907   -2.395234    0.000000
      4          8           0        0.040417    1.855895    0.000000
      5          1           0        0.203779    2.824821    0.000000
      6          1           0       -0.929121    1.696196    0.000000
 ---------------------------------------------------------------------

 SCF Done:  E(RHF) =  -33.6481531335     A.U. after   11 cycles
 E2 =    -0.2287775223D+00 EUMP2 =    -0.33876930655765D+02
 CCSD(T)
 CCSD(T)= -0.33894051417D+02

 The electronic state is 1-A'.
 Alpha  occ. eigenvalues --   -1.34573  -1.33799  -0.70200  -0.69383  -0.54190
 Alpha  occ. eigenvalues --   -0.53211  -0.49097  -0.48322
 Alpha virt. eigenvalues --    0.20518   0.22234   0.31216   0.31981   0.76949
 Alpha virt. eigenvalues --    0.80749   0.82925   0.85771   0.88667   0.98985
 Alpha virt. eigenvalues --    1.18172   1.19173   1.22642   1.23546   2.57828

 Mulliken charges:
               1
     1  O   -0.728830
     2  H    0.359957
     3  H    0.369123
     4  O   -0.725540
     5  H    0.356292
     6  H    0.368999
 Sum of Mulliken charges =  -0.00000

 Dipole moment (field-independent basis, Debye):
    X=             -1.8361    Y=             -0.8134    Z=              0.0000  Tot=              2.0082
 Quadrupole moment (field-independent basis, Debye-Ang):
   XX=             -9.1229   YY=              5.3222   ZZ=            -14.9860
   XY=             -2.6763   XZ=              0.0000   YZ=              0.0000

 P4DQ=-33.8883526\MP4SDQ=-33.890409\CCSD=-33.891461\CCSD(T)=-33.8940514
 Normal termination of Gaussian 16 at Sun Dec 10 07:02:00 2023.
