 Gaussian 16, Revision A.03,
 Gaussian 16:  ES64L-G16RevA.03 25-Dec-2016

 ------------------
 #p CCSD(T)/CEP-31G
 ------------------

 -----------
 H2O_H2O_345
 -----------
 Symbolic Z-matrix:
 Charge =  0 Multiplicity = 1

                         Standard orientation:
 ---------------------------------------------------------------------
 Center     Atomic      Atomic             Coordinates (Angstroms)
 Number     Number       Type             X           Y           Z
 ---------------------------------------------------------------------
      1          8           0        0.055373   -0.930752    0.000000
      2          1           0       -0.746976   -1.497974    0.000000
      3          1           0        0.852146   -1.505780    0.000000
      4          8           0        0.055373    1.014874    0.000000
      5          1           0       -0.284858    1.936693    0.000000
      6          1           0       -0.706282    0.394078    0.000000
 ---------------------------------------------------------------------

 SCF Done:  E(RHF) =  -33.5851907933     A.U. after   11 cycles
 E2 =    -0.2328529943D+00 EUMP2 =    -0.33818043787666D+02
 CCSD(T)
 CCSD(T)= -0.33834683709D+02

 The electronic state is 1-A'.
 Alpha  occ. eigenvalues --   -1.38020  -1.29668  -0.74274  -0.70008  -0.52277
 Alpha  occ. eigenvalues --   -0.52090  -0.47317  -0.44034
 Alpha virt. eigenvalues --    0.19253   0.28669   0.29460   0.35531   0.78442
 Alpha virt. eigenvalues --    0.84411   0.90053   0.95123   0.99426   1.15711
 Alpha virt. eigenvalues --    1.19668   1.23579   1.29866   1.32586   2.69109

 Mulliken charges:
               1
     1  O   -0.793563
     2  H    0.360668
     3  H    0.421475
     4  O   -0.668606
     5  H    0.308917
     6  H    0.371108
 Sum of Mulliken charges =   0.00000

 Dipole moment (field-independent basis, Debye):
    X=             -2.1395    Y=             -2.2478    Z=              0.0000  Tot=              3.1032
 Quadrupole moment (field-independent basis, Debye-Ang):
   XX=            -10.0025   YY=             -6.0186   ZZ=            -14.9795
   XY=             -2.2978   XZ=              0.0000   YZ=              0.0000

 MP4DQ=-33.828312\MP4SDQ=-33.8307222\CCSD=-33.8315523\CCSD(T)=-33.83468
 Normal termination of Gaussian 16 at Sun Dec 10 06:31:13 2023.
