 Gaussian 16, Revision A.03,
 Gaussian 16:  ES64L-G16RevA.03 25-Dec-2016

 ------------------
 #p CCSD(T)/CEP-31G
 ------------------

 ------------
 H2O_H2O_1089
 ------------
 Symbolic Z-matrix:
 Charge =  0 Multiplicity = 1

                         Standard orientation:
 ---------------------------------------------------------------------
 Center     Atomic      Atomic             Coordinates (Angstroms)
 Number     Number       Type             X           Y           Z
 ---------------------------------------------------------------------
      1          8           0        0.045374   -1.351189    0.000000
      2          1           0       -0.755816   -1.920048    0.000000
      3          1           0        0.843320   -1.924589    0.000000
      4          8           0        0.045374    1.395621    0.000000
      5          1           0        0.081802    2.377548    0.000000
      6          1           0       -0.895294    1.111632    0.000000
 ---------------------------------------------------------------------

 SCF Done:  E(RHF) =  -33.6434471066     A.U. after   11 cycles
 E2 =    -0.2296548767D+00 EUMP2 =    -0.33873101983278D+02
 CCSD(T)
 CCSD(T)= -0.33890418363D+02

 The electronic state is 1-A'.
 Alpha  occ. eigenvalues --   -1.34313  -1.32537  -0.69947  -0.68165  -0.54444
 Alpha  occ. eigenvalues --   -0.51077  -0.48872  -0.46962
 Alpha virt. eigenvalues --    0.20230   0.24338   0.31413   0.32865   0.78690
 Alpha virt. eigenvalues --    0.80849   0.84338   0.87056   0.93221   1.16035
 Alpha virt. eigenvalues --    1.18415   1.22456   1.22974   1.27604   2.60270

 Mulliken charges:
               1
     1  O   -0.728509
     2  H    0.352294
     3  H    0.373783
     4  O   -0.707251
     5  H    0.343793
     6  H    0.365891
 Sum of Mulliken charges =  -0.00000

 Dipole moment (field-independent basis, Debye):
    X=             -1.9863    Y=             -1.1111    Z=              0.0000  Tot=              2.2760
 Quadrupole moment (field-independent basis, Debye-Ang):
   XX=             -9.4184   YY=              0.1763   ZZ=            -14.9898
   XY=             -2.2435   XZ=              0.0000   YZ=              0.0000

 MP4DQ=-33.8845617\MP4SDQ=-33.8866888\CCSD=-33.8877518\CCSD(T)=-33.8904
 Normal termination of Gaussian 16 at Sun Dec 10 06:45:07 2023.
