 Gaussian 16, Revision A.03,
 Gaussian 16:  ES64L-G16RevA.03 25-Dec-2016

 ------------------
 #p CCSD(T)/CEP-31G
 ------------------

 ------------
 H2O_H2O_2207
 ------------
 Symbolic Z-matrix:
 Charge =  0 Multiplicity = 1

                         Standard orientation:
 ---------------------------------------------------------------------
 Center     Atomic      Atomic             Coordinates (Angstroms)
 Number     Number       Type             X           Y           Z
 ---------------------------------------------------------------------
      1          8           0        0.025267   -1.967271    0.000000
      2          1           0       -0.774933   -2.537522    0.000000
      3          1           0        0.824208   -2.539284    0.000000
      4          8           0        0.025267    1.978995    0.000000
      5          1           0        0.490729    2.844357    0.000000
      6          1           0       -0.944277    2.138655    0.000000
 ---------------------------------------------------------------------

 SCF Done:  E(RHF) =  -33.6476056504     A.U. after   11 cycles
 E2 =    -0.2286955093D+00 EUMP2 =    -0.33876301159717D+02
 CCSD(T)
 CCSD(T)= -0.33893426683D+02

 The electronic state is 1-A'.
 Alpha  occ. eigenvalues --   -1.34308  -1.34074  -0.69931  -0.69684  -0.53931
 Alpha  occ. eigenvalues --   -0.53417  -0.48824  -0.48583
 Alpha virt. eigenvalues --    0.20936   0.21755   0.31467   0.31687   0.79345
 Alpha virt. eigenvalues --    0.81258   0.82424   0.86530   0.88839   0.93600
 Alpha virt. eigenvalues --    1.18421   1.18663   1.22923   1.23179   2.58226

 Mulliken charges:
               1
     1  O   -0.726767
     2  H    0.361020
     3  H    0.365800
     4  O   -0.725702
     5  H    0.359809
     6  H    0.365840
 Sum of Mulliken charges =  -0.00000

 Dipole moment (field-independent basis, Debye):
    X=             -1.1534    Y=             -0.2838    Z=              0.0000  Tot=              1.1877
 Quadrupole moment (field-independent basis, Debye-Ang):
   XX=             -8.4944   YY=              8.0036   ZZ=            -14.9847
   XY=             -1.6530   XZ=              0.0000   YZ=              0.0000

 \MP4DQ=-33.8877379\MP4SDQ=-33.8897852\CCSD=-33.8908428\CCSD(T)=-33.893
 Normal termination of Gaussian 16 at Sun Dec 10 07:07:07 2023.
