 Gaussian 16, Revision A.03,
 Gaussian 16:  ES64L-G16RevA.03 25-Dec-2016

 ------------------
 #p CCSD(T)/CEP-31G
 ------------------

 ------------
 H2O_H2O_1178
 ------------
 Symbolic Z-matrix:
 Charge =  0 Multiplicity = 1

                         Standard orientation:
 ---------------------------------------------------------------------
 Center     Atomic      Atomic             Coordinates (Angstroms)
 Number     Number       Type             X           Y           Z
 ---------------------------------------------------------------------
      1          8           0        0.011143   -1.427322    0.000000
      2          1           0       -0.788811   -1.997918    0.000000
      3          1           0        0.810330   -1.998991    0.000000
      4          8           0        0.011143    1.429502    0.000000
      5          1           0        0.684409    2.145197    0.000000
      6          1           0       -0.884215    1.834273    0.000000
 ---------------------------------------------------------------------

 SCF Done:  E(RHF) =  -33.6386697362     A.U. after   11 cycles
 E2 =    -0.2293926179D+00 EUMP2 =    -0.33868062354029D+02
 CCSD(T)
 CCSD(T)= -0.33885460506D+02

 The electronic state is 1-A'.
 Alpha  occ. eigenvalues --   -1.33133  -1.32847  -0.68722  -0.68479  -0.53876
 Alpha  occ. eigenvalues --   -0.50206  -0.47746  -0.47048
 Alpha virt. eigenvalues --    0.21318   0.23289   0.32250   0.32593   0.79704
 Alpha virt. eigenvalues --    0.80401   0.81530   0.86841   0.99515   1.09425
 Alpha virt. eigenvalues --    1.19335   1.20211   1.24145   1.24297   2.58953

 Mulliken charges:
               1
     1  O   -0.706148
     2  H    0.350483
     3  H    0.355506
     4  O   -0.704932
     5  H    0.350929
     6  H    0.354162
 Sum of Mulliken charges =  -0.00000

 Dipole moment (field-independent basis, Debye):
    X=             -0.4928    Y=             -0.0541    Z=              0.0000  Tot=              0.4958
 Quadrupole moment (field-independent basis, Debye-Ang):
   XX=             -8.2733   YY=              2.3684   ZZ=            -14.9863
   XY=             -0.4412   XZ=              0.0000   YZ=              0.0000

 \MP4DQ=-33.8796258\MP4SDQ=-33.8817189\CCSD=-33.8828051\CCSD(T)=-33.885
 Normal termination of Gaussian 16 at Sun Dec 10 06:46:46 2023.
