 Gaussian 16, Revision A.03,
 Gaussian 16:  ES64L-G16RevA.03 25-Dec-2016

 ------------------
 #p CCSD(T)/CEP-31G
 ------------------

 ----------
 H2O_H2O_24
 ----------
 Symbolic Z-matrix:
 Charge =  0 Multiplicity = 1

                         Standard orientation:
 ---------------------------------------------------------------------
 Center     Atomic      Atomic             Coordinates (Angstroms)
 Number     Number       Type             X           Y           Z
 ---------------------------------------------------------------------
      1          8           0        0.057464   -0.741937    0.000000
      2          1           0       -0.745608   -1.308136    0.000000
      3          1           0        0.853504   -1.317980    0.000000
      4          8           0        0.057464    0.855458    0.000000
      5          1           0       -0.508736    1.658530    0.000000
      6          1           0       -0.518579    0.059417    0.000000
 ---------------------------------------------------------------------

 SCF Done:  E(RHF) =  -33.3441491838     A.U. after   12 cycles
 E2 =    -0.2365360258D+00 EUMP2 =    -0.33580685209667D+02
 CCSD(T)
 CCSD(T)= -0.33595393207D+02

 The electronic state is 1-A'.
 Alpha  occ. eigenvalues --   -1.51803  -1.26287  -0.86629  -0.76767  -0.60138
 Alpha  occ. eigenvalues --   -0.47554  -0.40473  -0.37291
 Alpha virt. eigenvalues --    0.17873   0.24529   0.32775   0.39307   0.76852
 Alpha virt. eigenvalues --    0.82359   0.90510   0.91014   0.96685   1.09486
 Alpha virt. eigenvalues --    1.16673   1.32638   1.34506   1.50270   3.00970

 Mulliken charges:
               1
     1  O   -0.660446
     2  H    0.352911
     3  H    0.486114
     4  O   -0.730524
     5  H    0.246403
     6  H    0.305542
 Sum of Mulliken charges =  -0.00000

 Dipole moment (field-independent basis, Debye):
    X=             -1.8922    Y=             -3.8217    Z=              0.0000  Tot=              4.2645
 Quadrupole moment (field-independent basis, Debye-Ang):
   XX=            -10.1067   YY=            -10.1259   ZZ=            -14.7822
   XY=             -2.2628   XZ=              0.0000   YZ=              0.0000

 P4DQ=-33.5879288\MP4SDQ=-33.5910511\CCSD=-33.5913175\CCSD(T)=-33.59539
 Normal termination of Gaussian 16 at Sun Dec 10 06:25:10 2023.
