 Gaussian 16, Revision A.03,
 Gaussian 16:  ES64L-G16RevA.03 25-Dec-2016

 ------------------
 #p CCSD(T)/CEP-31G
 ------------------

 -----------
 H2O_H2O_876
 -----------
 Symbolic Z-matrix:
 Charge =  0 Multiplicity = 1

                         Standard orientation:
 ---------------------------------------------------------------------
 Center     Atomic      Atomic             Coordinates (Angstroms)
 Number     Number       Type             X           Y           Z
 ---------------------------------------------------------------------
      1          8           0        0.003735   -1.268824    0.000000
      2          1           0       -0.795980   -1.839753    0.000000
      3          1           0        0.803162   -1.840158    0.000000
      4          8           0        0.003735    1.269066    0.000000
      5          1           0        0.764399    1.891078    0.000000
      6          1           0       -0.831346    1.786893    0.000000
 ---------------------------------------------------------------------

 SCF Done:  E(RHF) =  -33.6313417171     A.U. after   11 cycles
 E2 =    -0.2299363734D+00 EUMP2 =    -0.33861278090513D+02
 CCSD(T)
 CCSD(T)= -0.33878708631D+02

 The electronic state is 1-A'.
 Alpha  occ. eigenvalues --   -1.32778  -1.32129  -0.68303  -0.67809  -0.54645
 Alpha  occ. eigenvalues --   -0.47957  -0.47480  -0.46142
 Alpha virt. eigenvalues --    0.21514   0.24048   0.32629   0.32922   0.79289
 Alpha virt. eigenvalues --    0.79500   0.88169   0.88658   1.05930   1.07855
 Alpha virt. eigenvalues --    1.19665   1.21229   1.24310   1.25201   2.55998

 Mulliken charges:
               1
     1  O   -0.699891
     2  H    0.348746
     3  H    0.351086
     4  O   -0.699622
     5  H    0.349659
     6  H    0.350022
 Sum of Mulliken charges =  -0.00000

 Dipole moment (field-independent basis, Debye):
    X=             -0.1600    Y=             -0.0059    Z=              0.0000  Tot=              0.1601
 Quadrupole moment (field-independent basis, Debye-Ang):
   XX=             -8.2507   YY=              0.3447   ZZ=            -14.9946
   XY=             -0.1198   XZ=              0.0000   YZ=              0.0000

 MP4DQ=-33.8727968\MP4SDQ=-33.8749008\CCSD=-33.8759955\CCSD(T)=-33.8787
 Normal termination of Gaussian 16 at Sun Dec 10 06:41:08 2023.
