 Gaussian 16, Revision A.03,
 Gaussian 16:  ES64L-G16RevA.03 25-Dec-2016

 ------------------
 #p CCSD(T)/CEP-31G
 ------------------

 -----------
 H2O_H2O_761
 -----------
 Symbolic Z-matrix:
 Charge =  0 Multiplicity = 1

                         Standard orientation:
 ---------------------------------------------------------------------
 Center     Atomic      Atomic             Coordinates (Angstroms)
 Number     Number       Type             X           Y           Z
 ---------------------------------------------------------------------
      1          8           0        0.037696   -1.187189    0.000000
      2          1           0       -0.763414   -1.756161    0.000000
      3          1           0        0.835722   -1.760476    0.000000
      4          8           0        0.037696    1.215332    0.000000
      5          1           0        0.264852    2.171316    0.000000
      6          1           0       -0.940289    1.120177    0.000000
 ---------------------------------------------------------------------

 SCF Done:  E(RHF) =  -33.6322953305     A.U. after   11 cycles
 E2 =    -0.2303573514D+00 EUMP2 =    -0.33862652681960D+02
 CCSD(T)
 CCSD(T)= -0.33880055398D+02

 The electronic state is 1-A'.
 Alpha  occ. eigenvalues --   -1.33547  -1.31910  -0.69129  -0.67693  -0.55128
 Alpha  occ. eigenvalues --   -0.48258  -0.48249  -0.46046
 Alpha virt. eigenvalues --    0.20705   0.25006   0.32057   0.32964   0.78945
 Alpha virt. eigenvalues --    0.82205   0.89015   0.90477   0.98779   1.14420
 Alpha virt. eigenvalues --    1.19153   1.22522   1.23982   1.29345   2.55467

 Mulliken charges:
               1
     1  O   -0.724934
     2  H    0.346532
     3  H    0.371039
     4  O   -0.691286
     5  H    0.344449
     6  H    0.354200
 Sum of Mulliken charges =   0.00000

 Dipole moment (field-independent basis, Debye):
    X=             -1.5923    Y=             -0.6867    Z=              0.0000  Tot=              1.7341
 Quadrupole moment (field-independent basis, Debye-Ang):
   XX=             -9.0810   YY=             -1.2187   ZZ=            -14.9950
   XY=             -1.4106   XZ=              0.0000   YZ=              0.0000

 P4DQ=-33.8740865\MP4SDQ=-33.8762432\CCSD=-33.8773156\CCSD(T)=-33.88005
 Normal termination of Gaussian 16 at Sun Dec 10 06:38:58 2023.
