 Gaussian 16, Revision A.03,
 Gaussian 16:  ES64L-G16RevA.03 25-Dec-2016

 ------------------
 #p CCSD(T)/CEP-31G
 ------------------

 ------------
 H2O_H2O_1408
 ------------
 Symbolic Z-matrix:
 Charge =  0 Multiplicity = 1

                         Standard orientation:
 ---------------------------------------------------------------------
 Center     Atomic      Atomic             Coordinates (Angstroms)
 Number     Number       Type             X           Y           Z
 ---------------------------------------------------------------------
      1          8           0        0.028569   -1.539907    0.000000
      2          1           0       -0.771909   -2.109768    0.000000
      3          1           0        0.827231   -2.112308    0.000000
      4          8           0        0.028569    1.555119    0.000000
      5          1           0        0.436873    2.448873    0.000000
      6          1           0       -0.949294    1.651502    0.000000
 ---------------------------------------------------------------------

 SCF Done:  E(RHF) =  -33.6432331993     A.U. after   11 cycles
 E2 =    -0.2291727729D+00 EUMP2 =    -0.33872405972234D+02
 CCSD(T)
 CCSD(T)= -0.33889708845D+02

 The electronic state is 1-A'.
 Alpha  occ. eigenvalues --   -1.33724  -1.33223  -0.69342  -0.68817  -0.53831
 Alpha  occ. eigenvalues --   -0.51631  -0.48253  -0.47617
 Alpha virt. eigenvalues --    0.20895   0.22977   0.31886   0.32310   0.76781
 Alpha virt. eigenvalues --    0.79940   0.83487   0.85387   0.93855   1.09931
 Alpha virt. eigenvalues --    1.18845   1.20115   1.23546   1.23904   2.59718

 Mulliken charges:
               1
     1  O   -0.716068
     2  H    0.352827
     3  H    0.363059
     4  O   -0.711452
     5  H    0.350663
     6  H    0.360971
 Sum of Mulliken charges =  -0.00000

 Dipole moment (field-independent basis, Debye):
    X=             -1.2786    Y=             -0.3794    Z=              0.0000  Tot=              1.3337
 Quadrupole moment (field-independent basis, Debye-Ang):
   XX=             -8.6587   YY=              3.2756   ZZ=            -14.9848
   XY=             -1.3818   XZ=              0.0000   YZ=              0.0000

 P4DQ=-33.8839216\MP4SDQ=-33.8860124\CCSD=-33.8870801\CCSD(T)=-33.88970
 Normal termination of Gaussian 16 at Sun Dec 10 06:51:04 2023.
