 Gaussian 16, Revision A.03,
 Gaussian 16:  ES64L-G16RevA.03 25-Dec-2016

 ------------------
 #p CCSD(T)/CEP-31G
 ------------------

 ----------
 H2O_H2O_28
 ----------
 Symbolic Z-matrix:
 Charge =  0 Multiplicity = 1

                         Standard orientation:
 ---------------------------------------------------------------------
 Center     Atomic      Atomic             Coordinates (Angstroms)
 Number     Number       Type             X           Y           Z
 ---------------------------------------------------------------------
      1          8           0        0.011144   -0.815717    0.000000
      2          1           0       -0.789097   -1.385910    0.000000
      3          1           0        0.810043   -1.387787    0.000000
      4          8           0        0.011144    0.817885    0.000000
      5          1           0        0.684769    1.533241    0.000000
      6          1           0       -0.884011    1.223106    0.000000
 ---------------------------------------------------------------------

 SCF Done:  E(RHF) =  -33.4713061614     A.U. after   11 cycles
 E2 =    -0.2398287203D+00 EUMP2 =    -0.33711134881744D+02
 CCSD(T)
 CCSD(T)= -0.33727316781D+02

 The electronic state is 1-A'.
 Alpha  occ. eigenvalues --   -1.37591  -1.28834  -0.71054  -0.67698  -0.64776
 Alpha  occ. eigenvalues --   -0.52181  -0.42379  -0.30478
 Alpha virt. eigenvalues --    0.21015   0.28848   0.31454   0.33691   0.80387
 Alpha virt. eigenvalues --    0.82218   0.87782   0.88795   1.03221   1.19192
 Alpha virt. eigenvalues --    1.20587   1.24905   1.27693   1.40234   2.52571

 Mulliken charges:
               1
     1  O   -0.688351
     2  H    0.332986
     3  H    0.354646
     4  O   -0.682547
     5  H    0.340596
     6  H    0.342670
 Sum of Mulliken charges =   0.00000

 Dipole moment (field-independent basis, Debye):
    X=             -0.4056    Y=             -0.0662    Z=              0.0000  Tot=              0.4110
 Quadrupole moment (field-independent basis, Debye-Ang):
   XX=             -8.6481   YY=             -8.0891   ZZ=            -15.0223
   XY=             -0.2851   XZ=              0.0000   YZ=              0.0000

 P4DQ=-33.7202791\MP4SDQ=-33.723176\CCSD=-33.7236375\CCSD(T)=-33.727316
 Normal termination of Gaussian 16 at Sun Dec 10 06:25:15 2023.
