 Gaussian 16, Revision A.03,
 Gaussian 16:  ES64L-G16RevA.03 25-Dec-2016

 ------------------
 #p CCSD(T)/CEP-31G
 ------------------

 ------------
 H2O_H2O_2890
 ------------
 Symbolic Z-matrix:
 Charge =  0 Multiplicity = 1

                         Standard orientation:
 ---------------------------------------------------------------------
 Center     Atomic      Atomic             Coordinates (Angstroms)
 Number     Number       Type             X           Y           Z
 ---------------------------------------------------------------------
      1          8           0        0.047532   -2.305148    0.000000
      2          1           0       -0.753039   -2.874876    0.000000
      3          1           0        0.846100   -2.877681    0.000000
      4          8           0        0.047532    2.355747    0.000000
      5          1           0        0.018594    3.337922    0.000000
      6          1           0       -0.872173    2.009844    0.000000
 ---------------------------------------------------------------------

 SCF Done:  E(RHF) =  -33.6505675044     A.U. after   11 cycles
 E2 =    -0.2284939981D+00 EUMP2 =    -0.33879061502538D+02
 CCSD(T)
 CCSD(T)= -0.33896097711D+02

 The electronic state is 1-A'.
 Alpha  occ. eigenvalues --   -1.35135  -1.34418  -0.70764  -0.70021  -0.54801
 Alpha  occ. eigenvalues --   -0.54077  -0.49688  -0.48974
 Alpha virt. eigenvalues --    0.20502   0.21359   0.30798   0.31510   0.80855
 Alpha virt. eigenvalues --    0.81575   0.83021   0.85233   0.87065   0.88478
 Alpha virt. eigenvalues --    1.17716   1.18434   1.22173   1.22919   2.57764

 Mulliken charges:
               1
     1  O   -0.736930
     2  H    0.365651
     3  H    0.371300
     4  O   -0.735538
     5  H    0.363050
     6  H    0.372467
 Sum of Mulliken charges =   0.00000

 Dipole moment (field-independent basis, Debye):
    X=             -2.1822    Y=             -1.2013    Z=              0.0000  Tot=              2.4910
 Quadrupole moment (field-independent basis, Debye-Ang):
   XX=             -9.5055   YY=              8.3967   ZZ=            -14.9875
   XY=             -4.4425   XZ=              0.0000   YZ=              0.0000

 7\MP4DQ=-33.8904424\MP4SDQ=-33.8924747\CCSD=-33.8935301\CCSD(T)=-33.89
 Normal termination of Gaussian 16 at Sun Dec 10 06:32:02 2023.
