 Gaussian 16, Revision A.03,
 Gaussian 16:  ES64L-G16RevA.03 25-Dec-2016

 ------------------
 #p CCSD(T)/CEP-31G
 ------------------

 ------------
 H2O_H2O_4194
 ------------
 Symbolic Z-matrix:
 Charge =  0 Multiplicity = 1

                         Standard orientation:
 ---------------------------------------------------------------------
 Center     Atomic      Atomic             Coordinates (Angstroms)
 Number     Number       Type             X           Y           Z
 ---------------------------------------------------------------------
      1          8           0        0.054142   -2.982012    0.000000
      2          1           0       -0.746308   -3.551911    0.000000
      3          1           0        0.852832   -3.554375    0.000000
      4          8           0        0.054142    3.059354    0.000000
      5          1           0       -0.228217    4.000514    0.000000
      6          1           0       -0.744577    2.487031    0.000000
 ---------------------------------------------------------------------

 SCF Done:  E(RHF) =  -33.6516373367     A.U. after   11 cycles
 E2 =    -0.2283976506D+00 EUMP2 =    -0.33880034987345D+02
 CCSD(T)
 CCSD(T)= -0.33897039441D+02

 The electronic state is 1-A'.
 Alpha  occ. eigenvalues --   -1.35509  -1.34875  -0.71141  -0.70494  -0.55236
 Alpha  occ. eigenvalues --   -0.54594  -0.50078  -0.49445
 Alpha virt. eigenvalues --    0.20254   0.20905   0.30493   0.31133   0.80474
 Alpha virt. eigenvalues --    0.81098   0.83510   0.84150   0.86619   0.87319
 Alpha virt. eigenvalues --    1.17387   1.18016   1.21846   1.22486   2.57407

 Mulliken charges:
               1
     1  O   -0.740603
     2  H    0.368779
     3  H    0.371825
     4  O   -0.740232
     5  H    0.367005
     6  H    0.373227
 Sum of Mulliken charges =  -0.00000

 Dipole moment (field-independent basis, Debye):
    X=             -2.4976    Y=             -1.8121    Z=              0.0000  Tot=              3.0857
 Quadrupole moment (field-independent basis, Debye-Ang):
   XX=             -9.9418   YY=             10.7664   ZZ=            -14.9885
   XY=             -7.2247   XZ=              0.0000   YZ=              0.0000

 MP4DQ=-33.8913941\MP4SDQ=-33.8934223\CCSD=-33.8944776\CCSD(T)=-33.8970
 Normal termination of Gaussian 16 at Sun Dec 10 06:55:36 2023.
