 Gaussian 16, Revision A.03,
 Gaussian 16:  ES64L-G16RevA.03 25-Dec-2016

 ------------------
 #p CCSD(T)/CEP-31G
 ------------------

 ------------
 H2O_H2O_3831
 ------------
 Symbolic Z-matrix:
 Charge =  0 Multiplicity = 1

                         Standard orientation:
 ---------------------------------------------------------------------
 Center     Atomic      Atomic             Coordinates (Angstroms)
 Number     Number       Type             X           Y           Z
 ---------------------------------------------------------------------
      1          8           0        0.021859   -2.833167    0.000000
      2          1           0       -0.778090   -3.403768    0.000000
      3          1           0        0.821051   -3.404829    0.000000
      4          8           0        0.021859    2.841833    0.000000
      5          1           0        0.542557    3.675128    0.000000
      6          1           0       -0.935264    3.064141    0.000000
 ---------------------------------------------------------------------

 SCF Done:  E(RHF) =  -33.6502960540     A.U. after   11 cycles
 E2 =    -0.2284631900D+00 EUMP2 =    -0.33878759243990D+02
 CCSD(T)
 CCSD(T)= -0.33895802529D+02

 The electronic state is 1-A'.
 Alpha  occ. eigenvalues --   -1.34919  -1.34838  -0.70546  -0.70462  -0.54570
 Alpha  occ. eigenvalues --   -0.54489  -0.49468  -0.49387
 Alpha virt. eigenvalues --    0.20769   0.20853   0.31000   0.31079   0.81085
 Alpha virt. eigenvalues --    0.81165   0.84208   0.84388   0.87307   0.87409
 Alpha virt. eigenvalues --    1.17919   1.17999   1.22390   1.22470   2.57972

 Mulliken charges:
               1
     1  O   -0.735846
     2  H    0.367152
     3  H    0.368694
     4  O   -0.735687
     5  H    0.366765
     6  H    0.368921
 Sum of Mulliken charges =   0.00000

 Dipole moment (field-independent basis, Debye):
    X=             -1.0077    Y=             -0.2035    Z=              0.0000  Tot=              1.0280
 Quadrupole moment (field-independent basis, Debye-Ang):
   XX=             -8.3537   YY=             17.2022   ZZ=            -14.9865
   XY=             -2.2504   XZ=              0.0000   YZ=              0.0000

 \MP4DQ=-33.8901467\MP4SDQ=-33.8921784\CCSD=-33.8932363\CCSD(T)=-33.895
 Normal termination of Gaussian 16 at Sun Dec 10 06:48:58 2023.
