 Gaussian 16, Revision A.03,
 Gaussian 16:  ES64L-G16RevA.03 25-Dec-2016

 ------------------
 #p CCSD(T)/CEP-31G
 ------------------

 ------------
 H2O_H2O_4885
 ------------
 Symbolic Z-matrix:
 Charge =  0 Multiplicity = 1

                         Standard orientation:
 ---------------------------------------------------------------------
 Center     Atomic      Atomic             Coordinates (Angstroms)
 Number     Number       Type             X           Y           Z
 ---------------------------------------------------------------------
      1          8           0        0.034779   -3.383515    0.000000
      2          1           0       -0.765295   -3.953942    0.000000
      3          1           0        0.833846   -3.955352    0.000000
      4          8           0        0.034779    3.407058    0.000000
      5          1           0        0.322267    4.346662    0.000000
      6          1           0       -0.947277    3.374285    0.000000
 ---------------------------------------------------------------------

 SCF Done:  E(RHF) =  -33.6510954776     A.U. after   11 cycles
 E2 =    -0.2284166522D+00 EUMP2 =    -0.33879512129841D+02
 CCSD(T)
 CCSD(T)= -0.33896532482D+02

 The electronic state is 1-A'.
 Alpha  occ. eigenvalues --   -1.35214  -1.35062  -0.70844  -0.70688  -0.54911
 Alpha  occ. eigenvalues --   -0.54758  -0.49775  -0.49623
 Alpha virt. eigenvalues --    0.20519   0.20673   0.30753   0.30904   0.80778
 Alpha virt. eigenvalues --    0.80929   0.83869   0.84019   0.86956   0.87130
 Alpha virt. eigenvalues --    1.17658   1.17809   1.22121   1.22273   2.57692

 Mulliken charges:
               1
     1  O   -0.738646
     2  H    0.368585
     3  H    0.370061
     4  O   -0.738487
     5  H    0.368085
     6  H    0.370401
 Sum of Mulliken charges =  -0.00000

 Dipole moment (field-independent basis, Debye):
    X=             -1.6063    Y=             -0.5496    Z=              0.0000  Tot=              1.6977
 Quadrupole moment (field-independent basis, Debye-Ang):
   XX=             -8.8210   YY=             21.0107   ZZ=            -14.9874
   XY=             -4.6309   XZ=              0.0000   YZ=              0.0000

 \MP4DQ=-33.890883\MP4SDQ=-33.8929125\CCSD=-33.8939692\CCSD(T)=-33.8965
 Normal termination of Gaussian 16 at Sun Dec 10 07:09:43 2023.
