 Gaussian 16, Revision A.03,
 Gaussian 16:  ES64L-G16RevA.03 25-Dec-2016

 ------------------
 #p CCSD(T)/CEP-31G
 ------------------

 ------------
 H2O_H2O_1798
 ------------
 Symbolic Z-matrix:
 Charge =  0 Multiplicity = 1

                         Standard orientation:
 ---------------------------------------------------------------------
 Center     Atomic      Atomic             Coordinates (Angstroms)
 Number     Number       Type             X           Y           Z
 ---------------------------------------------------------------------
      1          8           0        0.057141   -1.689803    0.000000
      2          1           0       -0.744034   -2.258682    0.000000
      3          1           0        0.855101   -2.263183    0.000000
      4          8           0        0.057141    1.796238    0.000000
      5          1           0       -0.458121    2.632904    0.000000
      6          1           0       -0.567201    1.037486    0.000000
 ---------------------------------------------------------------------

 SCF Done:  E(RHF) =  -33.6539373267     A.U. after   11 cycles
 E2 =    -0.2287524594D+00 EUMP2 =    -0.33882689786112D+02
 CCSD(T)
 CCSD(T)= -0.33899674126D+02

 The electronic state is 1-A'.
 Alpha  occ. eigenvalues --   -1.36136  -1.33237  -0.71780  -0.68801  -0.56001
 Alpha  occ. eigenvalues --   -0.53004  -0.50735  -0.47837
 Alpha virt. eigenvalues --    0.19059   0.23659   0.29902   0.33533   0.77852
 Alpha virt. eigenvalues --    0.79204   0.83316   0.85979   0.87196   0.99507
 Alpha virt. eigenvalues --    1.16768   1.20226   1.21387   1.28029   2.54027

 Mulliken charges:
               1
     1  O   -0.748500
     2  H    0.367670
     3  H    0.382337
     4  O   -0.746302
     5  H    0.354398
     6  H    0.390397
 Sum of Mulliken charges =   0.00000

 Dipole moment (field-independent basis, Debye):
    X=             -2.5900    Y=             -2.6391    Z=              0.0000  Tot=              3.6977
 Quadrupole moment (field-independent basis, Debye-Ang):
   XX=            -10.1343   YY=             -0.6740   ZZ=            -14.9949
   XY=             -4.8467   XZ=              0.0000   YZ=              0.0000

 7\MP4DQ=-33.8939697\MP4SDQ=-33.8960379\CCSD=-33.8970716\CCSD(T)=-33.89
 Normal termination of Gaussian 16 at Sun Dec 10 06:58:17 2023.
