 Gaussian 16, Revision A.03,
 Gaussian 16:  ES64L-G16RevA.03 25-Dec-2016

 ------------------
 #p CCSD(T)/CEP-31G
 ------------------

 ------------
 H2O_H2O_1074
 ------------
 Symbolic Z-matrix:
 Charge =  0 Multiplicity = 1

                         Standard orientation:
 ---------------------------------------------------------------------
 Center     Atomic      Atomic             Coordinates (Angstroms)
 Number     Number       Type             X           Y           Z
 ---------------------------------------------------------------------
      1          8           0        0.057320   -1.300213    0.000000
      2          1           0       -0.744315   -1.868445    0.000000
      3          1           0        0.854816   -1.874238    0.000000
      4          8           0        0.057320    1.414025    0.000000
      5          1           0       -0.510912    2.215660    0.000000
      6          1           0       -0.516705    0.616529    0.000000
 ---------------------------------------------------------------------

 SCF Done:  E(RHF) =  -33.6537302701     A.U. after   11 cycles
 E2 =    -0.2295703731D+00 EUMP2 =    -0.33883300643155D+02
 CCSD(T)
 CCSD(T)= -0.33900143872D+02

 The electronic state is 1-A'.
 Alpha  occ. eigenvalues --   -1.36996  -1.31623  -0.72645  -0.68045  -0.56402
 Alpha  occ. eigenvalues --   -0.51621  -0.51485  -0.46222
 Alpha virt. eigenvalues --    0.18752   0.26221   0.29330   0.36952   0.76806
 Alpha virt. eigenvalues --    0.78442   0.87066   0.87407   0.95716   1.10558
 Alpha virt. eigenvalues --    1.17354   1.19939   1.22939   1.31332   2.57433

 Mulliken charges:
               1
     1  O   -0.771766
     2  H    0.370175
     3  H    0.404585
     4  O   -0.743523
     5  H    0.338948
     6  H    0.401581
 Sum of Mulliken charges =  -0.00000

 Dipole moment (field-independent basis, Debye):
    X=             -2.5037    Y=             -2.9798    Z=              0.0000  Tot=              3.8920
 Quadrupole moment (field-independent basis, Debye-Ang):
   XX=            -10.1219   YY=             -3.7189   ZZ=            -15.0065
   XY=             -3.9832   XZ=              0.0000   YZ=              0.0000

 4\MP4DQ=-33.89427\MP4SDQ=-33.8964139\CCSD=-33.8974027\CCSD(T)=-33.9001
 Normal termination of Gaussian 16 at Sun Dec 10 06:44:50 2023.
