 Gaussian 16, Revision A.03,
 Gaussian 16:  ES64L-G16RevA.03 25-Dec-2016

 ------------------
 #p CCSD(T)/CEP-31G
 ------------------

 ------------
 H2O_H2O_2122
 ------------
 Symbolic Z-matrix:
 Charge =  0 Multiplicity = 1

                         Standard orientation:
 ---------------------------------------------------------------------
 Center     Atomic      Atomic             Coordinates (Angstroms)
 Number     Number       Type             X           Y           Z
 ---------------------------------------------------------------------
      1          8           0        0.056751   -1.866673    0.000000
      2          1           0       -0.744271   -2.435769    0.000000
      3          1           0        0.854866   -2.439837    0.000000
      4          8           0        0.056751    1.965701    0.000000
      5          1           0       -0.402923    2.834152    0.000000
      6          1           0       -0.615685    1.249226    0.000000
 ---------------------------------------------------------------------

 SCF Done:  E(RHF) =  -33.6529205281     A.U. after   11 cycles
 E2 =    -0.2285883917D+00 EUMP2 =    -0.33881508919852D+02
 CCSD(T)
 CCSD(T)= -0.33898494347D+02

 The electronic state is 1-A'.
 Alpha  occ. eigenvalues --   -1.35873  -1.33688  -0.71513  -0.69250  -0.55674
 Alpha  occ. eigenvalues --   -0.53428  -0.50459  -0.48277
 Alpha virt. eigenvalues --    0.19361   0.22772   0.30110   0.32615   0.79395
 Alpha virt. eigenvalues --    0.79880   0.82458   0.85703   0.86389   0.94202
 Alpha virt. eigenvalues --    1.17046   1.19731   1.21456   1.25726   2.55843

 Mulliken charges:
               1
     1  O   -0.744524
     2  H    0.367209
     3  H    0.378214
     4  O   -0.743039
     5  H    0.358055
     6  H    0.384085
 Sum of Mulliken charges =   0.00000

 Dipole moment (field-independent basis, Debye):
    X=             -2.5872    Y=             -2.4147    Z=              0.0000  Tot=              3.5390
 Quadrupole moment (field-independent basis, Debye-Ang):
   XX=            -10.1131   YY=              1.0286   ZZ=            -14.9923
   XY=             -5.1225   XZ=              0.0000   YZ=              0.0000

 MP4DQ=-33.8928243\MP4SDQ=-33.8948734\CCSD=-33.8959136\CCSD(T)=-33.8984
 Normal termination of Gaussian 16 at Sun Dec 10 07:05:36 2023.
