 Gaussian 16, Revision A.03,
 Gaussian 16:  ES64L-G16RevA.03 25-Dec-2016

 ------------------
 #p CCSD(T)/CEP-31G
 ------------------

 ------------
 H2O_H2O_3226
 ------------
 Symbolic Z-matrix:
 Charge =  0 Multiplicity = 1

                         Standard orientation:
 ---------------------------------------------------------------------
 Center     Atomic      Atomic             Coordinates (Angstroms)
 Number     Number       Type             X           Y           Z
 ---------------------------------------------------------------------
      1          8           0        0.003735   -2.518639    0.000000
      2          1           0       -0.795909   -3.089669    0.000000
      3          1           0        0.803233   -3.089873    0.000000
      4          8           0        0.003735    2.518883    0.000000
      5          1           0        0.764321    3.140989    0.000000
      6          1           0       -0.831412    3.036603    0.000000
 ---------------------------------------------------------------------

 SCF Done:  E(RHF) =  -33.6494234970     A.U. after   10 cycles
 E2 =    -0.2285122487D+00 EUMP2 =    -0.33877935745694D+02
 CCSD(T)
 CCSD(T)= -0.33895004223D+02

 The electronic state is 1-A'.
 Alpha  occ. eigenvalues --   -1.34651  -1.34648  -0.70275  -0.70272  -0.54271
 Alpha  occ. eigenvalues --   -0.54226  -0.49188  -0.49183
 Alpha virt. eigenvalues --    0.20952   0.21033   0.31212   0.31228   0.81338
 Alpha virt. eigenvalues --    0.81395   0.84041   0.85242   0.87570   0.87700
 Alpha virt. eigenvalues --    1.18151   1.18154   1.22621   1.22641   2.58219

 Mulliken charges:
               1
     1  O   -0.732827
     2  H    0.366230
     3  H    0.366597
     4  O   -0.732819
     5  H    0.366172
     6  H    0.366646
 Sum of Mulliken charges =  -0.00000

 Dipole moment (field-independent basis, Debye):
    X=             -0.1719    Y=             -0.0058    Z=              0.0000  Tot=              0.1720
 Quadrupole moment (field-independent basis, Debye-Ang):
   XX=             -8.0659   YY=             14.6216   ZZ=            -14.9856
   XY=             -0.3209   XZ=              0.0000   YZ=              0.0000

 MP4DQ=-33.8893412\MP4SDQ=-33.8913754\CCSD=-33.8924347\CCSD(T)=-33.8950
 Normal termination of Gaussian 16 at Sun Dec 10 06:37:56 2023.
