 Gaussian 16, Revision A.03,
 Gaussian 16:  ES64L-G16RevA.03 25-Dec-2016

 ------------------
 #p CCSD(T)/CEP-31G
 ------------------

 ------------
 H2O_H2O_4277
 ------------
 Symbolic Z-matrix:
 Charge =  0 Multiplicity = 1

                         Standard orientation:
 ---------------------------------------------------------------------
 Center     Atomic      Atomic             Coordinates (Angstroms)
 Number     Number       Type             X           Y           Z
 ---------------------------------------------------------------------
      1          8           0        0.007455   -3.076671    0.000000
      2          1           0       -0.792235   -3.647636    0.000000
      3          1           0        0.806907   -3.647969    0.000000
      4          8           0        0.007455    3.077645    0.000000
      5          1           0        0.725778    3.748106    0.000000
      6          1           0       -0.859728    3.539706    0.000000
 ---------------------------------------------------------------------

 SCF Done:  E(RHF) =  -33.6505094370     A.U. after   11 cycles
 E2 =    -0.2284466507D+00 EUMP2 =    -0.33878956087670D+02
 CCSD(T)
 CCSD(T)= -0.33895993222D+02

 The electronic state is 1-A'.
 Alpha  occ. eigenvalues --   -1.34964  -1.34957  -0.70592  -0.70584  -0.54628
 Alpha  occ. eigenvalues --   -0.54620  -0.49516  -0.49509
 Alpha virt. eigenvalues --    0.20736   0.20744   0.30967   0.30975   0.81037
 Alpha virt. eigenvalues --    0.81045   0.84175   0.84208   0.87249   0.87259
 Alpha virt. eigenvalues --    1.17883   1.17890   1.22351   1.22359   2.57931

 Mulliken charges:
               1
     1  O   -0.736572
     2  H    0.368075
     3  H    0.368496
     4  O   -0.736558
     5  H    0.367988
     6  H    0.368571
 Sum of Mulliken charges =  -0.00000

 Dipole moment (field-independent basis, Debye):
    X=             -0.3440    Y=             -0.0228    Z=              0.0000  Tot=              0.3448
 Quadrupole moment (field-independent basis, Debye-Ang):
   XX=             -8.0760   YY=             20.5307   ZZ=            -14.9866
   XY=             -0.8301   XZ=              0.0000   YZ=              0.0000

 P4DQ=-33.8903391\MP4SDQ=-33.8923702\CCSD=-33.893428\CCSD(T)=-33.895993
 Normal termination of Gaussian 16 at Sun Dec 10 06:57:04 2023.
