 Gaussian 16, Revision A.03,
 Gaussian 16:  ES64L-G16RevA.03 25-Dec-2016

 ------------------
 #p CCSD(T)/CEP-31G
 ------------------

 -----------
 H2O_H2O_416
 -----------
 Symbolic Z-matrix:
 Charge =  0 Multiplicity = 1

                         Standard orientation:
 ---------------------------------------------------------------------
 Center     Atomic      Atomic             Coordinates (Angstroms)
 Number     Number       Type             X           Y           Z
 ---------------------------------------------------------------------
      1          8           0        0.049581   -0.985535    0.000000
      2          1           0       -0.752382   -1.553304    0.000000
      3          1           0        0.846746   -1.560020    0.000000
      4          8           0        0.049581    1.042233    0.000000
      5          1           0       -0.041140    2.020637    0.000000
      6          1           0       -0.846520    0.639109    0.000000
 ---------------------------------------------------------------------

 SCF Done:  E(RHF) =  -33.6054825733     A.U. after   11 cycles
 E2 =    -0.2322457020D+00 EUMP2 =    -0.33837728275305D+02
 CCSD(T)
 CCSD(T)= -0.33854911792D+02

 The electronic state is 1-A'.
 Alpha  occ. eigenvalues --   -1.35481  -1.30570  -0.71265  -0.68285  -0.55205
 Alpha  occ. eigenvalues --   -0.50085  -0.46178  -0.44734
 Alpha virt. eigenvalues --    0.19958   0.27324   0.30973   0.33843   0.79153
 Alpha virt. eigenvalues --    0.84820   0.89892   0.96410   0.99452   1.15398
 Alpha virt. eigenvalues --    1.19227   1.24047   1.25899   1.32360   2.58158

 Mulliken charges:
               1
     1  O   -0.768418
     2  H    0.351263
     3  H    0.395697
     4  O   -0.665688
     5  H    0.328047
     6  H    0.359100
 Sum of Mulliken charges =  -0.00000

 Dipole moment (field-independent basis, Debye):
    X=             -1.9617    Y=             -1.4163    Z=              0.0000  Tot=              2.4195
 Quadrupole moment (field-independent basis, Debye-Ang):
   XX=             -9.6860   YY=             -4.5375   ZZ=            -14.9926
   XY=             -1.8236   XZ=              0.0000   YZ=              0.0000

 \MP4DQ=-33.8486772\MP4SDQ=-33.8509972\CCSD=-33.8519468\CCSD(T)=-33.854
 Normal termination of Gaussian 16 at Sun Dec 10 06:32:33 2023.
