 Gaussian 16, Revision A.03,
 Gaussian 16:  ES64L-G16RevA.03 25-Dec-2016

 ------------------
 #p CCSD(T)/CEP-31G
 ------------------

 ------------
 H2O_H2O_1219
 ------------
 Symbolic Z-matrix:
 Charge =  0 Multiplicity = 1

                         Standard orientation:
 ---------------------------------------------------------------------
 Center     Atomic      Atomic             Coordinates (Angstroms)
 Number     Number       Type             X           Y           Z
 ---------------------------------------------------------------------
      1          8           0        0.054207   -1.399894    0.000000
      2          1           0       -0.747208   -1.968436    0.000000
      3          1           0        0.851926   -1.973611    0.000000
      4          8           0        0.054207    1.477054    0.000000
      5          1           0       -0.226556    2.418689    0.000000
      6          1           0       -0.745481    0.906085    0.000000
 ---------------------------------------------------------------------

 SCF Done:  E(RHF) =  -33.6495195653     A.U. after   11 cycles
 E2 =    -0.2294462006D+00 EUMP2 =    -0.33878965765884D+02
 CCSD(T)
 CCSD(T)= -0.33896111776D+02

 The electronic state is 1-A'.
 Alpha  occ. eigenvalues --   -1.35469  -1.32487  -0.71120  -0.68163  -0.55116
 Alpha  occ. eigenvalues --   -0.52045  -0.50039  -0.47040
 Alpha virt. eigenvalues --    0.19503   0.24784   0.30478   0.33635   0.78100
 Alpha virt. eigenvalues --    0.78222   0.86138   0.86763   0.90582   1.14432
 Alpha virt. eigenvalues --    1.17518   1.20866   1.22345   1.28432   2.58589

 Mulliken charges:
               1
     1  O   -0.743405
     2  H    0.359577
     3  H    0.383785
     4  O   -0.725076
     5  H    0.343658
     6  H    0.381461
 Sum of Mulliken charges =   0.00000

 Dipole moment (field-independent basis, Debye):
    X=             -2.3945    Y=             -1.9528    Z=              0.0000  Tot=              3.0898
 Quadrupole moment (field-independent basis, Debye-Ang):
   XX=             -9.9291   YY=             -0.8327   ZZ=            -14.9941
   XY=             -3.3619   XZ=              0.0000   YZ=              0.0000

 P4DQ=-33.8902917\MP4SDQ=-33.8924129\CCSD=-33.8934509\CCSD(T)=-33.89611
 Normal termination of Gaussian 16 at Sun Dec 10 06:47:32 2023.
