 Gaussian 16, Revision A.03,
 Gaussian 16:  ES64L-G16RevA.03 25-Dec-2016

 ------------------
 #p CCSD(T)/CEP-31G
 ------------------

 ------------
 H2O_H2O_4715
 ------------
 Symbolic Z-matrix:
 Charge =  0 Multiplicity = 1

                         Standard orientation:
 ---------------------------------------------------------------------
 Center     Atomic      Atomic             Coordinates (Angstroms)
 Number     Number       Type             X           Y           Z
 ---------------------------------------------------------------------
      1          8           0        0.047519   -3.275724    0.000000
      2          1           0       -0.752758   -3.845865    0.000000
      3          1           0        0.846382   -3.847845    0.000000
      4          8           0        0.047519    3.326372    0.000000
      5          1           0        0.018075    4.308532    0.000000
      6          1           0       -0.872007    2.979994    0.000000
 ---------------------------------------------------------------------

 SCF Done:  E(RHF) =  -33.6513563401     A.U. after   11 cycles
 E2 =    -0.2284062064D+00 EUMP2 =    -0.33879762546466D+02
 CCSD(T)
 CCSD(T)= -0.33896775292D+02

 The electronic state is 1-A'.
 Alpha  occ. eigenvalues --   -1.35361  -1.35014  -0.70991  -0.70638  -0.55071
 Alpha  occ. eigenvalues --   -0.54723  -0.49926  -0.49579
 Alpha virt. eigenvalues --    0.20387   0.20740   0.30624   0.30969   0.80627
 Alpha virt. eigenvalues --    0.80969   0.83693   0.84038   0.86789   0.87175
 Alpha virt. eigenvalues --    1.17523   1.17867   1.21984   1.22332   2.57550

 Mulliken charges:
               1
     1  O   -0.739586
     2  H    0.368723
     3  H    0.370864
     4  O   -0.739318
     5  H    0.367757
     6  H    0.371561
 Sum of Mulliken charges =  -0.00000

 Dipole moment (field-independent basis, Debye):
    X=             -2.1942    Y=             -1.1832    Z=              0.0000  Tot=              2.4929
 Quadrupole moment (field-independent basis, Debye-Ang):
   XX=             -9.5038   YY=             16.5206   ZZ=            -14.9879
   XY=             -6.5400   XZ=              0.0000   YZ=              0.0000

 \MP4DQ=-33.8911278\MP4SDQ=-33.8931567\CCSD=-33.8942128\CCSD(T)=-33.896
 Normal termination of Gaussian 16 at Sun Dec 10 07:06:33 2023.
