 Gaussian 16, Revision A.03,
 Gaussian 16:  ES64L-G16RevA.03 25-Dec-2016

 ------------------
 #p CCSD(T)/CEP-31G
 ------------------

 ------------
 H2O_H2O_3664
 ------------
 Symbolic Z-matrix:
 Charge =  0 Multiplicity = 1

                         Standard orientation:
 ---------------------------------------------------------------------
 Center     Atomic      Atomic             Coordinates (Angstroms)
 Number     Number       Type             X           Y           Z
 ---------------------------------------------------------------------
      1          8           0        0.045343   -2.720600    0.000000
      2          1           0       -0.755040   -3.290595    0.000000
      3          1           0        0.844101   -3.292869    0.000000
      4          8           0        0.045343    2.765161    0.000000
      5          1           0        0.080378    3.747138    0.000000
      6          1           0       -0.894922    2.479839    0.000000
 ---------------------------------------------------------------------

 SCF Done:  E(RHF) =  -33.6508959320     A.U. after   11 cycles
 E2 =    -0.2284437728D+00 EUMP2 =    -0.33879339704803D+02
 CCSD(T)
 CCSD(T)= -0.33896365771D+02

 The electronic state is 1-A'.
 Alpha  occ. eigenvalues --   -1.35199  -1.34751  -0.70829  -0.70367  -0.54884
 Alpha  occ. eigenvalues --   -0.54433  -0.49757  -0.49310
 Alpha virt. eigenvalues --    0.20521   0.20982   0.30758   0.31199   0.80796
 Alpha virt. eigenvalues --    0.81236   0.83873   0.84377   0.86982   0.87517
 Alpha virt. eigenvalues --    1.17665   1.18109   1.22130   1.22578   2.57702

 Mulliken charges:
               1
     1  O   -0.737999
     2  H    0.367275
     3  H    0.370724
     4  O   -0.737376
     5  H    0.365814
     6  H    0.371562
 Sum of Mulliken charges =  -0.00000

 Dipole moment (field-independent basis, Debye):
    X=             -2.0890    Y=             -1.0477    Z=              0.0000  Tot=              2.3370
 Quadrupole moment (field-independent basis, Debye-Ang):
   XX=             -9.3732   YY=             12.5300   ZZ=            -14.9875
   XY=             -4.9963   XZ=              0.0000   YZ=              0.0000

 \MP4DQ=-33.8907145\MP4SDQ=-33.8927448\CCSD=-33.8938012\CCSD(T)=-33.896
 Normal termination of Gaussian 16 at Sun Dec 10 06:45:53 2023.
