 Gaussian 16, Revision A.03,
 Gaussian 16:  ES64L-G16RevA.03 25-Dec-2016

 ------------------
 #p CCSD(T)/CEP-31G
 ------------------

 -----------
 H2O_H2O_712
 -----------
 Symbolic Z-matrix:
 Charge =  0 Multiplicity = 1

                         Standard orientation:
 ---------------------------------------------------------------------
 Center     Atomic      Atomic             Coordinates (Angstroms)
 Number     Number       Type             X           Y           Z
 ---------------------------------------------------------------------
      1          8           0        0.040434   -1.157841    0.000000
      2          1           0       -0.760824   -1.726604    0.000000
      3          1           0        0.838311   -1.731337    0.000000
      4          8           0        0.040434    1.191058    0.000000
      5          1           0        0.204834    2.159809    0.000000
      6          1           0       -0.929273    1.032397    0.000000
 ---------------------------------------------------------------------

 SCF Done:  E(RHF) =  -33.6309395970     A.U. after   11 cycles
 E2 =    -0.2305467902D+00 EUMP2 =    -0.33861486387198D+02
 CCSD(T)
 CCSD(T)= -0.33878874196D+02

 The electronic state is 1-A'.
 Alpha  occ. eigenvalues --   -1.33738  -1.31758  -0.69328  -0.67645  -0.55269
 Alpha  occ. eigenvalues --   -0.48449  -0.48076  -0.45899
 Alpha virt. eigenvalues --    0.20571   0.25318   0.31920   0.33063   0.78888
 Alpha virt. eigenvalues --    0.82802   0.89202   0.92018   0.98476   1.14472
 Alpha virt. eigenvalues --    1.19086   1.22458   1.23965   1.30207   2.55501

 Mulliken charges:
               1
     1  O   -0.730824
     2  H    0.347055
     3  H    0.374376
     4  O   -0.688460
     5  H    0.342986
     6  H    0.354865
 Sum of Mulliken charges =   0.00000

 Dipole moment (field-independent basis, Debye):
    X=             -1.6960    Y=             -0.8116    Z=              0.0000  Tot=              1.8802
 Quadrupole moment (field-independent basis, Debye-Ang):
   XX=             -9.2075   YY=             -1.7014   ZZ=            -14.9957
   XY=             -1.5249   XZ=              0.0000   YZ=              0.0000

 MP4DQ=-33.8728794\MP4SDQ=-33.8750519\CCSD=-33.876115\CCSD(T)=-33.87887
 Normal termination of Gaussian 16 at Sun Dec 10 06:38:03 2023.
