 Gaussian 16, Revision A.03,
 Gaussian 16:  ES64L-G16RevA.03 25-Dec-2016

 ------------------
 #p CCSD(T)/CEP-31G
 ------------------

 ------------
 H2O_H2O_4295
 ------------
 Symbolic Z-matrix:
 Charge =  0 Multiplicity = 1

                         Standard orientation:
 ---------------------------------------------------------------------
 Center     Atomic      Atomic             Coordinates (Angstroms)
 Number     Number       Type             X           Y           Z
 ---------------------------------------------------------------------
      1          8           0        0.055232   -3.031313    0.000000
      2          1           0       -0.745220   -3.601209    0.000000
      3          1           0        0.853920   -3.603680    0.000000
      4          8           0        0.055232    3.115805    0.000000
      5          1           0       -0.288072    4.036483    0.000000
      6          1           0       -0.704347    2.492471    0.000000
 ---------------------------------------------------------------------

 SCF Done:  E(RHF) =  -33.6517495607     A.U. after   11 cycles
 E2 =    -0.2283901278D+00 EUMP2 =    -0.33880139688558D+02
 CCSD(T)
 CCSD(T)= -0.33897140875D+02

 The electronic state is 1-A'.
 Alpha  occ. eigenvalues --   -1.35561  -1.34895  -0.71194  -0.70515  -0.55294
 Alpha  occ. eigenvalues --   -0.54620  -0.50132  -0.49466
 Alpha virt. eigenvalues --    0.20207   0.20892   0.30448   0.31123   0.80420
 Alpha virt. eigenvalues --    0.81076   0.83446   0.84120   0.86558   0.87286
 Alpha virt. eigenvalues --    1.17339   1.18001   1.21797   1.22471   2.57356

 Mulliken charges:
               1
     1  O   -0.741000
     2  H    0.369034
     3  H    0.371965
     4  O   -0.740689
     5  H    0.367218
     6  H    0.373471
 Sum of Mulliken charges =  -0.00000

 Dipole moment (field-independent basis, Debye):
    X=             -2.5483    Y=             -1.9784    Z=              0.0000  Tot=              3.2261
 Quadrupole moment (field-independent basis, Debye-Ang):
   XX=            -10.0200   YY=             10.1687   ZZ=            -14.9887
   XY=             -7.6317   XZ=              0.0000   YZ=              0.0000

 \MP4DQ=-33.8914964\MP4SDQ=-33.8935242\CCSD=-33.8945794\CCSD(T)=-33.897
 Normal termination of Gaussian 16 at Sun Dec 10 06:57:22 2023.
