 Gaussian 16, Revision A.03,
 Gaussian 16:  ES64L-G16RevA.03 25-Dec-2016

 ------------------
 #p CCSD(T)/CEP-31G
 ------------------

 ------------
 H2O_H2O_2274
 ------------
 Symbolic Z-matrix:
 Charge =  0 Multiplicity = 1

                         Standard orientation:
 ---------------------------------------------------------------------
 Center     Atomic      Atomic             Coordinates (Angstroms)
 Number     Number       Type             X           Y           Z
 ---------------------------------------------------------------------
      1          8           0        0.057254   -1.938348    0.000000
      2          1           0       -0.743722   -2.507508    0.000000
      3          1           0        0.855415   -2.511448    0.000000
      4          8           0        0.057254    2.052292    0.000000
      5          1           0       -0.511906    2.853269    0.000000
      6          1           0       -0.515847    1.254131    0.000000
 ---------------------------------------------------------------------

 SCF Done:  E(RHF) =  -33.6536664151     A.U. after   11 cycles
 E2 =    -0.2285113790D+00 EUMP2 =    -0.33882177794124D+02
 CCSD(T)
 CCSD(T)= -0.33899137808D+02

 The electronic state is 1-A'.
 Alpha  occ. eigenvalues --   -1.36090  -1.33785  -0.71731  -0.69355  -0.55937
 Alpha  occ. eigenvalues --   -0.53550  -0.50687  -0.48380
 Alpha virt. eigenvalues --    0.19231   0.22647   0.29956   0.32589   0.79775
 Alpha virt. eigenvalues --    0.80994   0.82224   0.85466   0.86143   0.91439
 Alpha virt. eigenvalues --    1.16869   1.19572   1.21274   1.25881   2.55872

 Mulliken charges:
               1
     1  O   -0.746937
     2  H    0.369133
     3  H    0.378720
     4  O   -0.746819
     5  H    0.359811
     6  H    0.386093
 Sum of Mulliken charges =  -0.00000

 Dipole moment (field-independent basis, Debye):
    X=             -2.6153    Y=             -2.7665    Z=              0.0000  Tot=              3.8070
 Quadrupole moment (field-independent basis, Debye-Ang):
   XX=            -10.1528   YY=              0.1287   ZZ=            -14.9932
   XY=             -5.6425   XZ=              0.0000   YZ=              0.0000

 7\MP4DQ=-33.893477\MP4SDQ=-33.8955221\CCSD=-33.8965618\CCSD(T)=-33.899
 Normal termination of Gaussian 16 at Sun Dec 10 07:08:20 2023.
