 Gaussian 16, Revision A.03,
 Gaussian 16:  ES64L-G16RevA.03 25-Dec-2016

 ------------------
 #p CCSD(T)/CEP-31G
 ------------------

 ------------
 H2O_H2O_2698
 ------------
 Symbolic Z-matrix:
 Charge =  0 Multiplicity = 1

                         Standard orientation:
 ---------------------------------------------------------------------
 Center     Atomic      Atomic             Coordinates (Angstroms)
 Number     Number       Type             X           Y           Z
 ---------------------------------------------------------------------
      1          8           0        0.057109   -2.168420    0.000000
      2          1           0       -0.743722   -2.737785    0.000000
      3          1           0        0.855417   -2.741316    0.000000
      4          8           0        0.057109    2.274923    0.000000
      5          1           0       -0.458661    3.111278    0.000000
      6          1           0       -0.566773    1.515794    0.000000
 ---------------------------------------------------------------------

 SCF Done:  E(RHF) =  -33.6527459408     A.U. after   11 cycles
 E2 =    -0.2284287424D+00 EUMP2 =    -0.33881174683163D+02
 CCSD(T)
 CCSD(T)= -0.33898148589D+02

 The electronic state is 1-A'.
 Alpha  occ. eigenvalues --   -1.35861  -1.34174  -0.71499  -0.69761  -0.55653
 Alpha  occ. eigenvalues --   -0.53919  -0.50445  -0.48758
 Alpha virt. eigenvalues --    0.19694   0.21912   0.30171   0.31971   0.80103
 Alpha virt. eigenvalues --    0.81767   0.82272   0.85277   0.86109   0.88711
 Alpha virt. eigenvalues --    1.17078   1.18908   1.21485   1.23837   2.57020

 Mulliken charges:
               1
     1  O   -0.744292
     2  H    0.368671
     3  H    0.375895
     4  O   -0.743606
     5  H    0.362522
     6  H    0.380811
 Sum of Mulliken charges =   0.00000

 Dipole moment (field-independent basis, Debye):
    X=             -2.6187    Y=             -2.5473    Z=              0.0000  Tot=              3.6533
 Quadrupole moment (field-independent basis, Debye-Ang):
   XX=            -10.1478   YY=              2.1566   ZZ=            -14.9912
   XY=             -6.0772   XZ=              0.0000   YZ=              0.0000

 5\MP4DQ=-33.8925034\MP4SDQ=-33.8945356\CCSD=-33.8955832\CCSD(T)=-33.89
 Normal termination of Gaussian 16 at Sun Dec 10 06:28:26 2023.
