 Gaussian 16, Revision A.03,
 Gaussian 16:  ES64L-G16RevA.03 25-Dec-2016

 ------------------
 #p CCSD(T)/CEP-31G
 ------------------

 -----------
 H2O_H2O_357
 -----------
 Symbolic Z-matrix:
 Charge =  0 Multiplicity = 1

                         Standard orientation:
 ---------------------------------------------------------------------
 Center     Atomic      Atomic             Coordinates (Angstroms)
 Number     Number       Type             X           Y           Z
 ---------------------------------------------------------------------
      1          8           0        0.025273   -0.983402    0.000000
      2          1           0       -0.775551   -1.552776    0.000000
      3          1           0        0.823587   -1.556291    0.000000
      4          8           0        0.025273    0.995071    0.000000
      5          1           0        0.491684    1.859922    0.000000
      6          1           0       -0.944095    1.155794    0.000000
 ---------------------------------------------------------------------

 SCF Done:  E(RHF) =  -33.5903823186     A.U. after   11 cycles
 E2 =    -0.2326180510D+00 EUMP2 =    -0.33823000369662D+02
 CCSD(T)
 CCSD(T)= -0.33840159302D+02

 The electronic state is 1-A'.
 Alpha  occ. eigenvalues --   -1.33707  -1.30382  -0.68904  -0.66665  -0.58743
 Alpha  occ. eigenvalues --   -0.48634  -0.44062  -0.41343
 Alpha virt. eigenvalues --    0.21176   0.26442   0.32424   0.33383   0.80685
 Alpha virt. eigenvalues --    0.80752   0.90134   0.95946   1.01895   1.19234
 Alpha virt. eigenvalues --    1.19906   1.23587   1.26483   1.29478   2.49297

 Mulliken charges:
               1
     1  O   -0.717096
     2  H    0.340678
     3  H    0.368168
     4  O   -0.685696
     5  H    0.350610
     6  H    0.343336
 Sum of Mulliken charges =   0.00000

 Dipole moment (field-independent basis, Debye):
    X=             -0.9786    Y=             -0.2785    Z=              0.0000  Tot=              1.0174
 Quadrupole moment (field-independent basis, Debye-Ang):
   XX=             -8.7132   YY=             -4.1142   ZZ=            -15.0171
   XY=             -0.6201   XZ=              0.0000   YZ=              0.0000

 P4DQ=-33.8339044\MP4SDQ=-33.8362085\CCSD=-33.8371788\CCSD(T)=-33.84015
 Normal termination of Gaussian 16 at Sun Dec 10 06:31:27 2023.
