 Gaussian 16, Revision A.03,
 Gaussian 16:  ES64L-G16RevA.03 25-Dec-2016

 ------------------
 #p CCSD(T)/CEP-31G
 ------------------

 ------------
 H2O_H2O_4847
 ------------
 Symbolic Z-matrix:
 Charge =  0 Multiplicity = 1

                         Standard orientation:
 ---------------------------------------------------------------------
 Center     Atomic      Atomic             Coordinates (Angstroms)
 Number     Number       Type             X           Y           Z
 ---------------------------------------------------------------------
      1          8           0        0.056696   -3.315862    0.000000
      2          1           0       -0.743701   -3.885835    0.000000
      3          1           0        0.855439   -3.888151    0.000000
      4          8           0        0.056696    3.415014    0.000000
      5          1           0       -0.403928    4.282961    0.000000
      6          1           0       -0.614954    2.697803    0.000000
 ---------------------------------------------------------------------

 SCF Done:  E(RHF) =  -33.6519167269     A.U. after   11 cycles
 E2 =    -0.2283751821D+00 EUMP2 =    -0.33880291908984D+02
 CCSD(T)
 CCSD(T)= -0.33897288343D+02

 The electronic state is 1-A'.
 Alpha  occ. eigenvalues --   -1.35651  -1.35010  -0.71285  -0.70633  -0.55393
 Alpha  occ. eigenvalues --   -0.54743  -0.50225  -0.49583
 Alpha virt. eigenvalues --    0.20128   0.20786   0.30368   0.31022   0.80326
 Alpha virt. eigenvalues --    0.80960   0.83339   0.83990   0.86455   0.87140
 Alpha virt. eigenvalues --    1.17256   1.17895   1.21713   1.22364   2.57270

 Mulliken charges:
               1
     1  O   -0.741588
     2  H    0.369656
     3  H    0.371932
     4  O   -0.741444
     5  H    0.368082
     6  H    0.373362
 Sum of Mulliken charges =  -0.00000

 Dipole moment (field-independent basis, Debye):
    X=             -2.6177    Y=             -2.3154    Z=              0.0000  Tot=              3.4948
 Quadrupole moment (field-independent basis, Debye-Ang):
   XX=            -10.1290   YY=              9.8915   ZZ=            -14.9889
   XY=             -8.8627   XZ=              0.0000   YZ=              0.0000

 MP4DQ=-33.8916452\MP4SDQ=-33.8936725\CCSD=-33.8947277\CCSD(T)=-33.8972
 Normal termination of Gaussian 16 at Sun Dec 10 07:09:00 2023.
