 Gaussian 16, Revision A.03,
 Gaussian 16:  ES64L-G16RevA.03 25-Dec-2016

 ------------------
 #p CCSD(T)/CEP-31G
 ------------------

 ------------
 H2O_H2O_1504
 ------------
 Symbolic Z-matrix:
 Charge =  0 Multiplicity = 1

                         Standard orientation:
 ---------------------------------------------------------------------
 Center     Atomic      Atomic             Coordinates (Angstroms)
 Number     Number       Type             X           Y           Z
 ---------------------------------------------------------------------
      1          8           0        0.014784   -1.599252    0.000000
      2          1           0       -0.785241   -2.169749    0.000000
      3          1           0        0.813900   -2.171019    0.000000
      4          8           0        0.014784    1.603121    0.000000
      5          1           0        0.639893    2.361239    0.000000
      6          1           0       -0.905089    1.948579    0.000000
 ---------------------------------------------------------------------

 SCF Done:  E(RHF) =  -33.6429138017     A.U. after   11 cycles
 E2 =    -0.2290696524D+00 EUMP2 =    -0.33871983454094D+02
 CCSD(T)
 CCSD(T)= -0.33889279358D+02

 The electronic state is 1-A'.
 Alpha  occ. eigenvalues --   -1.33546  -1.33389  -0.69160  -0.69002  -0.53660
 Alpha  occ. eigenvalues --   -0.51718  -0.48099  -0.47739
 Alpha virt. eigenvalues --    0.21134   0.22667   0.31933   0.32258   0.76767
 Alpha virt. eigenvalues --    0.80333   0.83796   0.84970   0.94489   1.05705
 Alpha virt. eigenvalues --    1.19017   1.19350   1.23516   1.23958   2.59550

 Mulliken charges:
               1
     1  O   -0.713511
     2  H    0.354304
     3  H    0.359190
     4  O   -0.712454
     5  H    0.353783
     6  H    0.358688
 Sum of Mulliken charges =   0.00000

 Dipole moment (field-independent basis, Debye):
    X=             -0.6655    Y=             -0.0965    Z=              0.0000  Tot=              0.6725
 Quadrupole moment (field-independent basis, Debye-Ang):
   XX=             -8.2899   YY=              4.3634   ZZ=            -14.9837
   XY=             -0.7002   XZ=              0.0000   YZ=              0.0000

 MP4DQ=-33.8835065\MP4SDQ=-33.885588\CCSD=-33.8866569\CCSD(T)=-33.88927
 Normal termination of Gaussian 16 at Sun Dec 10 06:52:51 2023.
