 Gaussian 16, Revision A.03,
 Gaussian 16:  ES64L-G16RevA.03 25-Dec-2016

 ------------------
 #p CCSD(T)/CEP-31G
 ------------------

 ------------
 H2O_H2O_2895
 ------------
 Symbolic Z-matrix:
 Charge =  0 Multiplicity = 1

                         Standard orientation:
 ---------------------------------------------------------------------
 Center     Atomic      Atomic             Coordinates (Angstroms)
 Number     Number       Type             X           Y           Z
 ---------------------------------------------------------------------
      1          8           0        0.055253   -2.286771    0.000000
      2          1           0       -0.745481   -2.856271    0.000000
      3          1           0        0.853658   -2.859532    0.000000
      4          8           0        0.055253    2.371208    0.000000
      5          1           0       -0.287597    3.292055    0.000000
      6          1           0       -0.704634    1.748249    0.000000
 ---------------------------------------------------------------------

 SCF Done:  E(RHF) =  -33.6517823931     A.U. after   11 cycles
 E2 =    -0.2284415471D+00 EUMP2 =    -0.33880223940166D+02
 CCSD(T)
 CCSD(T)= -0.33897224718D+02

 The electronic state is 1-A'.
 Alpha  occ. eigenvalues --   -1.35556  -1.34353  -0.71190  -0.69949  -0.55293
 Alpha  occ. eigenvalues --   -0.54066  -0.50127  -0.48925
 Alpha virt. eigenvalues --    0.20094   0.21551   0.30437   0.31681   0.80424
 Alpha virt. eigenvalues --    0.81606   0.82800   0.85036   0.86531   0.88321
 Alpha virt. eigenvalues --    1.17345   1.18582   1.21777   1.23150   2.57366

 Mulliken charges:
               1
     1  O   -0.741135
     2  H    0.367415
     3  H    0.373790
     4  O   -0.739955
     5  H    0.363204
     6  H    0.376681
 Sum of Mulliken charges =   0.00000

 Dipole moment (field-independent basis, Debye):
    X=             -2.5372    Y=             -2.0074    Z=              0.0000  Tot=              3.2353
 Quadrupole moment (field-independent basis, Debye-Ang):
   XX=            -10.0146   YY=              5.1137   ZZ=            -14.9895
   XY=             -5.7584   XZ=              0.0000   YZ=              0.0000

 6\MP4DQ=-33.8915777\MP4SDQ=-33.8936078\CCSD=-33.8946601\CCSD(T)=-33.89
 Normal termination of Gaussian 16 at Sun Dec 10 06:32:07 2023.
