 Gaussian 16, Revision A.03,
 Gaussian 16:  ES64L-G16RevA.03 25-Dec-2016

 ------------------
 #p CCSD(T)/CEP-31G
 ------------------

 ------------
 H2O_H2O_1988
 ------------
 Symbolic Z-matrix:
 Charge =  0 Multiplicity = 1

                         Standard orientation:
 ---------------------------------------------------------------------
 Center     Atomic      Atomic             Coordinates (Angstroms)
 Number     Number       Type             X           Y           Z
 ---------------------------------------------------------------------
      1          8           0        0.042979   -1.832935    0.000000
      2          1           0       -0.757730   -2.402470    0.000000
      3          1           0        0.841408   -2.405661    0.000000
      4          8           0        0.042979    1.871675    0.000000
      5          1           0        0.142724    2.849201    0.000000
      6          1           0       -0.914062    1.649008    0.000000
 ---------------------------------------------------------------------

 SCF Done:  E(RHF) =  -33.6486145333     A.U. after   11 cycles
 E2 =    -0.2287567360D+00 EUMP2 =    -0.33877371269306D+02
 CCSD(T)
 CCSD(T)= -0.33894477762D+02

 The electronic state is 1-A'.
 Alpha  occ. eigenvalues --   -1.34693  -1.33804  -0.70322  -0.69384  -0.54308
 Alpha  occ. eigenvalues --   -0.53273  -0.49222  -0.48335
 Alpha virt. eigenvalues --    0.20420   0.22253   0.31109   0.32006   0.77087
 Alpha virt. eigenvalues --    0.80706   0.82828   0.85803   0.88318   0.98549
 Alpha virt. eigenvalues --    1.18069   1.19224   1.22513   1.23598   2.57709

 Mulliken charges:
               1
     1  O   -0.730356
     2  H    0.360544
     3  H    0.370095
     4  O   -0.726895
     5  H    0.356429
     6  H    0.370183
 Sum of Mulliken charges =  -0.00000

 Dipole moment (field-independent basis, Debye):
    X=             -1.9532    Y=             -0.9450    Z=              0.0000  Tot=              2.1698
 Quadrupole moment (field-independent basis, Debye-Ang):
   XX=             -9.2546   YY=              5.1005   ZZ=            -14.9865
   XY=             -2.9423   XZ=              0.0000   YZ=              0.0000

 \MP4DQ=-33.8887837\MP4SDQ=-33.8908383\CCSD=-33.8918893\CCSD(T)=-33.894
 Normal termination of Gaussian 16 at Sun Dec 10 07:03:11 2023.
