 Gaussian 16, Revision A.03,
 Gaussian 16:  ES64L-G16RevA.03 25-Dec-2016

 ------------------
 #p CCSD(T)/CEP-31G
 ------------------

 ------------
 H2O_H2O_3973
 ------------
 Symbolic Z-matrix:
 Charge =  0 Multiplicity = 1

                         Standard orientation:
 ---------------------------------------------------------------------
 Center     Atomic      Atomic             Coordinates (Angstroms)
 Number     Number       Type             X           Y           Z
 ---------------------------------------------------------------------
      1          8           0        0.057081   -2.846480    0.000000
      2          1           0       -0.743455   -3.416259    0.000000
      3          1           0        0.855685   -3.418964    0.000000
      4          8           0        0.057081    2.953043    0.000000
      5          1           0       -0.459120    3.789131    0.000000
      6          1           0       -0.566409    2.193591    0.000000
 ---------------------------------------------------------------------

 SCF Done:  E(RHF) =  -33.6521288230     A.U. after   11 cycles
 E2 =    -0.2283735284D+00 EUMP2 =    -0.33880502351395D+02
 CCSD(T)
 CCSD(T)= -0.33897492441D+02

 The electronic state is 1-A'.
 Alpha  occ. eigenvalues --   -1.35727  -1.34783  -0.71361  -0.70400  -0.55481
 Alpha  occ. eigenvalues --   -0.54521  -0.50303  -0.49360
 Alpha virt. eigenvalues --    0.20061   0.21039   0.30305   0.31275   0.80249
 Alpha virt. eigenvalues --    0.81175   0.83231   0.84204   0.86365   0.87382
 Alpha virt. eigenvalues --    1.17190   1.18128   1.21644   1.22609   2.57195

 Mulliken charges:
               1
     1  O   -0.742350
     2  H    0.369459
     3  H    0.372892
     4  O   -0.742125
     5  H    0.366814
     6  H    0.375309
 Sum of Mulliken charges =  -0.00000

 Dipole moment (field-independent basis, Debye):
    X=             -2.6313    Y=             -2.5010    Z=              0.0000  Tot=              3.6302
 Quadrupole moment (field-independent basis, Debye-Ang):
   XX=            -10.1550   YY=              6.0633   ZZ=            -14.9895
   XY=             -7.8398   XZ=              0.0000   YZ=              0.0000

 \MP4DQ=-33.8918508\MP4SDQ=-33.8938777\CCSD=-33.8949319\CCSD(T)=-33.897
 Normal termination of Gaussian 16 at Sun Dec 10 06:51:36 2023.
