 Gaussian 16, Revision A.03,
 Gaussian 16:  ES64L-G16RevA.03 25-Dec-2016

 ------------------
 #p CCSD(T)/CEP-31G
 ------------------

 ------------
 H2O_H2O_3523
 ------------
 Symbolic Z-matrix:
 Charge =  0 Multiplicity = 1

                         Standard orientation:
 ---------------------------------------------------------------------
 Center     Atomic      Atomic             Coordinates (Angstroms)
 Number     Number       Type             X           Y           Z
 ---------------------------------------------------------------------
      1          8           0        0.057089   -2.607163    0.000000
      2          1           0       -0.743534   -3.176820    0.000000
      3          1           0        0.855606   -3.179769    0.000000
      4          8           0        0.057089    2.713709    0.000000
      5          1           0       -0.458985    3.549875    0.000000
      6          1           0       -0.566516    1.954351    0.000000
 ---------------------------------------------------------------------

 SCF Done:  E(RHF) =  -33.6522555993     A.U. after   11 cycles
 E2 =    -0.2283783904D+00 EUMP2 =    -0.33880633989626D+02
 CCSD(T)
 CCSD(T)= -0.33897620381D+02

 The electronic state is 1-A'.
 Alpha  occ. eigenvalues --   -1.35756  -1.34621  -0.71391  -0.70231  -0.55519
 Alpha  occ. eigenvalues --   -0.54361  -0.50334  -0.49199
 Alpha virt. eigenvalues --    0.20021   0.21231   0.30281   0.31454   0.80220
 Alpha virt. eigenvalues --    0.81330   0.83153   0.84388   0.86326   0.87569
 Alpha virt. eigenvalues --    1.17166   1.18298   1.21617   1.22800   2.57160

 Mulliken charges:
               1
     1  O   -0.742797
     2  H    0.369219
     3  H    0.373589
     4  O   -0.742449
     5  H    0.365758
     6  H    0.376680
 Sum of Mulliken charges =  -0.00000

 Dipole moment (field-independent basis, Debye):
    X=             -2.6285    Y=             -2.5111    Z=              0.0000  Tot=              3.6352
 Quadrupole moment (field-independent basis, Debye-Ang):
   XX=            -10.1533   YY=              4.6888   ZZ=            -14.9899
   XY=             -7.2155   XZ=              0.0000   YZ=              0.0000

 MP4DQ=-33.8919793\MP4SDQ=-33.8940062\CCSD=-33.8950596\CCSD(T)=-33.8976
 Normal termination of Gaussian 16 at Sun Dec 10 06:43:18 2023.
