 Gaussian 16, Revision A.03,
 Gaussian 16:  ES64L-G16RevA.03 25-Dec-2016

 ------------------
 #p CCSD(T)/CEP-31G
 ------------------

 ------------
 H2O_H2O_2237
 ------------
 Symbolic Z-matrix:
 Charge =  0 Multiplicity = 1

                         Standard orientation:
 ---------------------------------------------------------------------
 Center     Atomic      Atomic             Coordinates (Angstroms)
 Number     Number       Type             X           Y           Z
 ---------------------------------------------------------------------
      1          8           0        0.040414   -1.968841    0.000000
      2          1           0       -0.760155   -2.538572    0.000000
      3          1           0        0.838984   -2.541372    0.000000
      4          8           0        0.040414    2.002155    0.000000
      5          1           0        0.203642    2.971104    0.000000
      6          1           0       -0.929101    1.842322    0.000000
 ---------------------------------------------------------------------

 SCF Done:  E(RHF) =  -33.6488999182     A.U. after   11 cycles
 E2 =    -0.2286592385D+00 EUMP2 =    -0.33877559156729D+02
 CCSD(T)
 CCSD(T)= -0.33894647930D+02

 The electronic state is 1-A'.
 Alpha  occ. eigenvalues --   -1.34697  -1.34037  -0.70324  -0.69631  -0.54299
 Alpha  occ. eigenvalues --   -0.53557  -0.49228  -0.48571
 Alpha virt. eigenvalues --    0.20606   0.21861   0.31135   0.31787   0.79232
 Alpha virt. eigenvalues --    0.81015   0.82275   0.86069   0.87922   0.94042
 Alpha virt. eigenvalues --    1.18083   1.18811   1.22542   1.23279   2.57979

 Mulliken charges:
               1
     1  O   -0.731219
     2  H    0.361939
     3  H    0.369414
     4  O   -0.728865
     5  H    0.359032
     6  H    0.369699
 Sum of Mulliken charges =   0.00000

 Dipole moment (field-independent basis, Debye):
    X=             -1.8441    Y=             -0.8044    Z=              0.0000  Tot=              2.0120
 Quadrupole moment (field-independent basis, Debye-Ang):
   XX=             -9.1155   YY=              6.7069   ZZ=            -14.9862
   XY=             -2.9351   XZ=              0.0000   YZ=              0.0000

 MP4DQ=-33.8889694\MP4SDQ=-33.8910138\CCSD=-33.8920678\CCSD(T)=-33.8946
 Normal termination of Gaussian 16 at Sun Dec 10 07:07:40 2023.
