 Gaussian 16, Revision A.03,
 Gaussian 16:  ES64L-G16RevA.03 25-Dec-2016

 ------------------
 #p CCSD(T)/CEP-31G
 ------------------

 ------------
 H2O_H2O_1386
 ------------
 Symbolic Z-matrix:
 Charge =  0 Multiplicity = 1

                         Standard orientation:
 ---------------------------------------------------------------------
 Center     Atomic      Atomic             Coordinates (Angstroms)
 Number     Number       Type             X           Y           Z
 ---------------------------------------------------------------------
      1          8           0        0.037687   -1.519564    0.000000
      2          1           0       -0.763089   -2.089005    0.000000
      3          1           0        0.836049   -2.092384    0.000000
      4          8           0        0.037687    1.547751    0.000000
      5          1           0        0.264285    2.503868    0.000000
      6          1           0       -0.940241    1.452023    0.000000
 ---------------------------------------------------------------------

 SCF Done:  E(RHF) =  -33.6445365942     A.U. after   11 cycles
 E2 =    -0.2292126286D+00 EUMP2 =    -0.33873749222760D+02
 CCSD(T)
 CCSD(T)= -0.33891026953D+02

 The electronic state is 1-A'.
 Alpha  occ. eigenvalues --   -1.34056  -1.33133  -0.69681  -0.68712  -0.54024
 Alpha  occ. eigenvalues --   -0.51840  -0.48578  -0.47577
 Alpha virt. eigenvalues --    0.20578   0.23224   0.31616   0.32414   0.76564
 Alpha virt. eigenvalues --    0.79665   0.83855   0.85409   0.92485   1.11738
 Alpha virt. eigenvalues --    1.18544   1.21025   1.23206   1.24205   2.59897

 Mulliken charges:
               1
     1  O   -0.720903
     2  H    0.353477
     3  H    0.367161
     4  O   -0.712973
     5  H    0.349076
     6  H    0.364162
 Sum of Mulliken charges =   0.00000

 Dipole moment (field-independent basis, Debye):
    X=             -1.6825    Y=             -0.7029    Z=              0.0000  Tot=              1.8234
 Quadrupole moment (field-independent basis, Debye-Ang):
   XX=             -9.0221   YY=              2.5548   ZZ=            -14.9860
   XY=             -1.9428   XZ=              0.0000   YZ=              0.0000

 MP4DQ=-33.8852395\MP4SDQ=-33.8873355\CCSD=-33.8883979\CCSD(T)=-33.8910
 Normal termination of Gaussian 16 at Sun Dec 10 06:50:39 2023.
