 Gaussian 16, Revision A.03,
 Gaussian 16:  ES64L-G16RevA.03 25-Dec-2016

 ------------------
 #p CCSD(T)/CEP-31G
 ------------------

 ------------
 H2O_H2O_1476
 ------------
 Symbolic Z-matrix:
 Charge =  0 Multiplicity = 1

                         Standard orientation:
 ---------------------------------------------------------------------
 Center     Atomic      Atomic             Coordinates (Angstroms)
 Number     Number       Type             X           Y           Z
 ---------------------------------------------------------------------
      1          8           0        0.003735   -1.587926    0.000000
      2          1           0       -0.795951   -2.158896    0.000000
      3          1           0        0.803191   -2.159219    0.000000
      4          8           0        0.003735    1.588169    0.000000
      5          1           0        0.764367    2.210219    0.000000
      6          1           0       -0.831373    2.105953    0.000000
 ---------------------------------------------------------------------

 SCF Done:  E(RHF) =  -33.6422738595     A.U. after   11 cycles
 E2 =    -0.2290823153D+00 EUMP2 =    -0.33871356174817D+02
 CCSD(T)
 CCSD(T)= -0.33888667738D+02

 The electronic state is 1-A'.
 Alpha  occ. eigenvalues --   -1.33452  -1.33337  -0.69062  -0.68958  -0.53624
 Alpha  occ. eigenvalues --   -0.51537  -0.48017  -0.47656
 Alpha virt. eigenvalues --    0.21223   0.22681   0.31944   0.32339   0.77125
 Alpha virt. eigenvalues --    0.80333   0.83559   0.85138   0.95511   1.05076
 Alpha virt. eigenvalues --    1.19096   1.19327   1.23533   1.24088   2.59750

 Mulliken charges:
               1
     1  O   -0.711615
     2  H    0.355174
     3  H    0.356440
     4  O   -0.711544
     5  H    0.355164
     6  H    0.356381
 Sum of Mulliken charges =   0.00000

 Dipole moment (field-independent basis, Debye):
    X=             -0.1681    Y=             -0.0061    Z=              0.0000  Tot=              0.1682
 Quadrupole moment (field-independent basis, Debye-Ang):
   XX=             -8.1699   YY=              4.3609   ZZ=            -14.9836
   XY=             -0.1710   XZ=              0.0000   YZ=              0.0000

 \MP4DQ=-33.8828897\MP4SDQ=-33.884971\CCSD=-33.8860427\CCSD(T)=-33.8886
 Normal termination of Gaussian 16 at Sun Dec 10 06:52:20 2023.
