 Gaussian 16, Revision A.03,
 Gaussian 16:  ES64L-G16RevA.03 25-Dec-2016

 ------------------
 #p CCSD(T)/CEP-31G
 ------------------

 -----------
 H2O_H2O_859
 -----------
 Symbolic Z-matrix:
 Charge =  0 Multiplicity = 1

                         Standard orientation:
 ---------------------------------------------------------------------
 Center     Atomic      Atomic             Coordinates (Angstroms)
 Number     Number       Type             X           Y           Z
 ---------------------------------------------------------------------
      1          8           0        0.031751   -1.245278    0.000000
      2          1           0       -0.769061   -1.814668    0.000000
      3          1           0        0.830077   -1.818149    0.000000
      4          8           0        0.031751    1.264391    0.000000
      5          1           0        0.381266    2.182729    0.000000
      6          1           0       -0.950303    1.297189    0.000000
 ---------------------------------------------------------------------

 SCF Done:  E(RHF) =  -33.6342532078     A.U. after   11 cycles
 E2 =    -0.2300418649D+00 EUMP2 =    -0.33864295072679D+02
 CCSD(T)
 CCSD(T)= -0.33881714804D+02

 The electronic state is 1-A'.
 Alpha  occ. eigenvalues --   -1.33276  -1.32178  -0.68853  -0.67857  -0.54782
 Alpha  occ. eigenvalues --   -0.48664  -0.47957  -0.46311
 Alpha virt. eigenvalues --    0.20947   0.24459   0.32254   0.32829   0.79086
 Alpha virt. eigenvalues --    0.81232   0.87632   0.88587   0.99436   1.14029
 Alpha virt. eigenvalues --    1.19277   1.22590   1.24061   1.27173   2.55978

 Mulliken charges:
               1
     1  O   -0.715679
     2  H    0.346233
     3  H    0.365354
     4  O   -0.695984
     5  H    0.346415
     6  H    0.353660
 Sum of Mulliken charges =   0.00000

 Dipole moment (field-independent basis, Debye):
    X=             -1.3586    Y=             -0.4665    Z=              0.0000  Tot=              1.4364
 Quadrupole moment (field-independent basis, Debye-Ang):
   XX=             -8.8326   YY=             -0.2928   ZZ=            -14.9931
   XY=             -1.1778   XZ=              0.0000   YZ=              0.0000

 4DQ=-33.8757887\MP4SDQ=-33.8779204\CCSD=-33.8790044\CCSD(T)=-33.881714
 Normal termination of Gaussian 16 at Sun Dec 10 06:40:49 2023.
