 Gaussian 16, Revision A.03,
 Gaussian 16:  ES64L-G16RevA.03 25-Dec-2016

 ------------------
 #p CCSD(T)/CEP-31G
 ------------------

 -----------
 H2O_H2O_621
 -----------
 Symbolic Z-matrix:
 Charge =  0 Multiplicity = 1

                         Standard orientation:
 ---------------------------------------------------------------------
 Center     Atomic      Atomic             Coordinates (Angstroms)
 Number     Number       Type             X           Y           Z
 ---------------------------------------------------------------------
      1          8           0        0.056213   -1.073025    0.000000
      2          1           0       -0.745812   -1.640705    0.000000
      3          1           0        0.853315   -1.647598    0.000000
      4          8           0        0.056213    1.164483    0.000000
      5          1           0       -0.344092    2.061847    0.000000
      6          1           0       -0.662827    0.494790    0.000000
 ---------------------------------------------------------------------

 SCF Done:  E(RHF) =  -33.6308715916     A.U. after   11 cycles
 E2 =    -0.2310588043D+00 EUMP2 =    -0.33861930395879D+02
 CCSD(T)
 CCSD(T)= -0.33878732508D+02

 The electronic state is 1-A'.
 Alpha  occ. eigenvalues --   -1.36836  -1.30631  -0.72633  -0.68836  -0.53675
 Alpha  occ. eigenvalues --   -0.51332  -0.50330  -0.45092
 Alpha virt. eigenvalues --    0.19130   0.27468   0.29628   0.35931   0.77236
 Alpha virt. eigenvalues --    0.84385   0.89504   0.93252   0.98218   1.13715
 Alpha virt. eigenvalues --    1.18990   1.20665   1.26536   1.31260   2.73881

 Mulliken charges:
               1
     1  O   -0.780514
     2  H    0.363863
     3  H    0.412523
     4  O   -0.700275
     5  H    0.323251
     6  H    0.381152
 Sum of Mulliken charges =  -0.00000

 Dipole moment (field-independent basis, Debye):
    X=             -2.3116    Y=             -2.4237    Z=              0.0000  Tot=              3.3493
 Quadrupole moment (field-independent basis, Debye-Ang):
   XX=            -10.0508   YY=             -4.5198   ZZ=            -15.0015
   XY=             -2.8783   XZ=              0.0000   YZ=              0.0000

 MP4DQ=-33.8726303\MP4SDQ=-33.8748872\CCSD=-33.8758245\CCSD(T)=-33.8787
 Normal termination of Gaussian 16 at Sun Dec 10 06:36:21 2023.
