 Gaussian 16, Revision A.03,
 Gaussian 16:  ES64L-G16RevA.03 25-Dec-2016

 ------------------
 #p CCSD(T)/CEP-31G
 ------------------

 -----------
 H2O_H2O_111
 -----------
 Symbolic Z-matrix:
 Charge =  0 Multiplicity = 1

                         Standard orientation:
 ---------------------------------------------------------------------
 Center     Atomic      Atomic             Coordinates (Angstroms)
 Number     Number       Type             X           Y           Z
 ---------------------------------------------------------------------
      1          8           0        0.037711   -0.841538    0.000000
      2          1           0       -0.764018   -1.409637    0.000000
      3          1           0        0.835112   -1.415695    0.000000
      4          8           0        0.037711    0.869599    0.000000
      5          1           0        0.265909    1.825335    0.000000
      6          1           0       -0.940377    0.775509    0.000000
 ---------------------------------------------------------------------

 SCF Done:  E(RHF) =  -33.5201171390     A.U. after   12 cycles
 E2 =    -0.2363053131D+00 EUMP2 =    -0.33756422452036D+02
 CCSD(T)
 CCSD(T)= -0.33773243851D+02

 The electronic state is 1-A'.
 Alpha  occ. eigenvalues --   -1.37184  -1.29167  -0.72247  -0.68448  -0.59764
 Alpha  occ. eigenvalues --   -0.51607  -0.43011  -0.36450
 Alpha virt. eigenvalues --    0.20438   0.28383   0.31362   0.33499   0.81447
 Alpha virt. eigenvalues --    0.84541   0.89288   0.93137   0.98466   1.19743
 Alpha virt. eigenvalues --    1.21223   1.25452   1.26626   1.37259   2.54679

 Mulliken charges:
               1
     1  O   -0.739491
     2  H    0.336046
     3  H    0.386594
     4  O   -0.657445
     5  H    0.330459
     6  H    0.343838
 Sum of Mulliken charges =  -0.00000

 Dipole moment (field-independent basis, Debye):
    X=             -1.3716    Y=             -0.7359    Z=              0.0000  Tot=              1.5566
 Quadrupole moment (field-independent basis, Debye-Ang):
   XX=             -9.1961   YY=             -6.9988   ZZ=            -14.9767
   XY=             -0.9543   XZ=              0.0000   YZ=              0.0000

 4DQ=-33.7665331\MP4SDQ=-33.7691928\CCSD=-33.7698791\CCSD(T)=-33.773243
 Normal termination of Gaussian 16 at Sun Dec 10 06:26:49 2023.
