 Gaussian 16, Revision A.03,
 Gaussian 16:  ES64L-G16RevA.03 25-Dec-2016

 ------------------
 #p CCSD(T)/CEP-31G
 ------------------

 ------------
 H2O_H2O_2249
 ------------
 Symbolic Z-matrix:
 Charge =  0 Multiplicity = 1

                         Standard orientation:
 ---------------------------------------------------------------------
 Center     Atomic      Atomic             Coordinates (Angstroms)
 Number     Number       Type             X           Y           Z
 ---------------------------------------------------------------------
      1          8           0        0.057255   -1.925053    0.000000
      2          1           0       -0.743731   -2.494200    0.000000
      3          1           0        0.855407   -2.498167    0.000000
      4          8           0        0.057255    2.038996    0.000000
      5          1           0       -0.511892    2.839981    0.000000
      6          1           0       -0.515859    1.240843    0.000000
 ---------------------------------------------------------------------

 SCF Done:  E(RHF) =  -33.6537096975     A.U. after   11 cycles
 E2 =    -0.2285195502D+00 EUMP2 =    -0.33882229247637D+02
 CCSD(T)
 CCSD(T)= -0.33899189325D+02

 The electronic state is 1-A'.
 Alpha  occ. eigenvalues --   -1.36099  -1.33759  -0.71741  -0.69328  -0.55950
 Alpha  occ. eigenvalues --   -0.53525  -0.50697  -0.48355
 Alpha virt. eigenvalues --    0.19210   0.22696   0.29947   0.32635   0.79754
 Alpha virt. eigenvalues --    0.80882   0.82261   0.85467   0.86175   0.91712
 Alpha virt. eigenvalues --    1.16859   1.19611   1.21268   1.26023   2.55772

 Mulliken charges:
               1
     1  O   -0.747064
     2  H    0.369125
     3  H    0.378897
     4  O   -0.746955
     5  H    0.359600
     6  H    0.386397
 Sum of Mulliken charges =  -0.00000

 Dipole moment (field-independent basis, Debye):
    X=             -2.6146    Y=             -2.7693    Z=              0.0000  Tot=              3.8086
 Quadrupole moment (field-independent basis, Debye-Ang):
   XX=            -10.1524   YY=              0.0551   ZZ=            -14.9933
   XY=             -5.6083   XZ=              0.0000   YZ=              0.0000

 8\MP4DQ=-33.893527\MP4SDQ=-33.895573\CCSD=-33.8966123\CCSD(T)=-33.8991
 Normal termination of Gaussian 16 at Sun Dec 10 07:07:53 2023.
