 Gaussian 16, Revision A.03,
 Gaussian 16:  ES64L-G16RevA.03 25-Dec-2016

 ------------------
 #p CCSD(T)/CEP-31G
 ------------------

 -----------
 H2O_H2O_545
 -----------
 Symbolic Z-matrix:
 Charge =  0 Multiplicity = 1

                         Standard orientation:
 ---------------------------------------------------------------------
 Center     Atomic      Atomic             Coordinates (Angstroms)
 Number     Number       Type             X           Y           Z
 ---------------------------------------------------------------------
      1          8           0        0.055353   -1.037091    0.000000
      2          1           0       -0.746724   -1.604699    0.000000
      3          1           0        0.852403   -1.611736    0.000000
      4          8           0        0.055353    1.121268    0.000000
      5          1           0       -0.285322    2.042922    0.000000
      6          1           0       -0.706003    0.500105    0.000000
 ---------------------------------------------------------------------

 SCF Done:  E(RHF) =  -33.6226105461     A.U. after   11 cycles
 E2 =    -0.2314751015D+00 EUMP2 =    -0.33854085647589D+02
 CCSD(T)
 CCSD(T)= -0.33870959551D+02

 The electronic state is 1-A'.
 Alpha  occ. eigenvalues --   -1.36636  -1.30541  -0.72495  -0.68890  -0.53443
 Alpha  occ. eigenvalues --   -0.51108  -0.49615  -0.44949
 Alpha virt. eigenvalues --    0.19298   0.27585   0.29869   0.35386   0.77693
 Alpha virt. eigenvalues --    0.84593   0.89722   0.94803   0.98605   1.14072
 Alpha virt. eigenvalues --    1.18926   1.21714   1.26797   1.31584   2.69345

 Mulliken charges:
               1
     1  O   -0.780666
     2  H    0.361117
     3  H    0.410494
     4  O   -0.688443
     5  H    0.321624
     6  H    0.375874
 Sum of Mulliken charges =  -0.00000

 Dipole moment (field-independent basis, Debye):
    X=             -2.2452    Y=             -2.2091    Z=              0.0000  Tot=              3.1497
 Quadrupole moment (field-independent basis, Debye-Ang):
   XX=            -10.0009   YY=             -4.6412   ZZ=            -14.9980
   XY=             -2.6100   XZ=              0.0000   YZ=              0.0000

 \MP4DQ=-33.8648053\MP4SDQ=-33.8670875\CCSD=-33.8680201\CCSD(T)=-33.870
 Normal termination of Gaussian 16 at Sun Dec 10 06:34:56 2023.
