 Gaussian 16, Revision A.03,
 Gaussian 16:  ES64L-G16RevA.03 25-Dec-2016

 ------------------
 #p CCSD(T)/CEP-31G
 ------------------

 ------------
 H2O_H2O_3852
 ------------
 Symbolic Z-matrix:
 Charge =  0 Multiplicity = 1

                         Standard orientation:
 ---------------------------------------------------------------------
 Center     Atomic      Atomic             Coordinates (Angstroms)
 Number     Number       Type             X           Y           Z
 ---------------------------------------------------------------------
      1          8           0        0.007455   -2.850640    0.000000
      2          1           0       -0.792245   -3.421592    0.000000
      3          1           0        0.806897   -3.421952    0.000000
      4          8           0        0.007455    2.851614    0.000000
      5          1           0        0.725789    3.522063    0.000000
      6          1           0       -0.859720    3.313690    0.000000
 ---------------------------------------------------------------------

 SCF Done:  E(RHF) =  -33.6501732369     A.U. after   11 cycles
 E2 =    -0.2284667379D+00 EUMP2 =    -0.33878639974842D+02
 CCSD(T)
 CCSD(T)= -0.33895686757D+02

 The electronic state is 1-A'.
 Alpha  occ. eigenvalues --   -1.34860  -1.34851  -0.70487  -0.70477  -0.54505
 Alpha  occ. eigenvalues --   -0.54494  -0.49407  -0.49398
 Alpha virt. eigenvalues --    0.20819   0.20835   0.31052   0.31061   0.81145
 Alpha virt. eigenvalues --    0.81156   0.84258   0.84417   0.87373   0.87390
 Alpha virt. eigenvalues --    1.17973   1.17982   1.22444   1.22453   2.58027

 Mulliken charges:
               1
     1  O   -0.735405
     2  H    0.367442
     3  H    0.367962
     4  O   -0.735386
     5  H    0.367341
     6  H    0.368045
 Sum of Mulliken charges =   0.00000

 Dipole moment (field-independent basis, Debye):
    X=             -0.3437    Y=             -0.0229    Z=              0.0000  Tot=              0.3445
 Quadrupole moment (field-independent basis, Debye-Ang):
   XX=             -8.0812   YY=             18.1198   ZZ=            -14.9863
   XY=             -0.7537   XZ=              0.0000   YZ=              0.0000

 DQ=-33.8900299\MP4SDQ=-33.892062\CCSD=-33.8931202\CCSD(T)=-33.8956868\
 Normal termination of Gaussian 16 at Sun Dec 10 06:49:22 2023.
