 Gaussian 16, Revision A.03,
 Gaussian 16:  ES64L-G16RevA.03 25-Dec-2016

 ------------------
 #p CCSD(T)/CEP-31G
 ------------------

 ------------
 H2O_H2O_2076
 ------------
 Symbolic Z-matrix:
 Charge =  0 Multiplicity = 1

                         Standard orientation:
 ---------------------------------------------------------------------
 Center     Atomic      Atomic             Coordinates (Angstroms)
 Number     Number       Type             X           Y           Z
 ---------------------------------------------------------------------
      1          8           0        0.003735   -1.907027    0.000000
      2          1           0       -0.795932   -2.478025    0.000000
      3          1           0        0.803210   -2.478294    0.000000
      4          8           0        0.003735    1.907271    0.000000
      5          1           0        0.764346    2.529346    0.000000
      6          1           0       -0.831390    2.425026    0.000000
 ---------------------------------------------------------------------

 SCF Done:  E(RHF) =  -33.6464310129     A.U. after   10 cycles
 E2 =    -0.2287503785D+00 EUMP2 =    -0.33875181391417D+02
 CCSD(T)
 CCSD(T)= -0.33892342697D+02

 The electronic state is 1-A'.
 Alpha  occ. eigenvalues --   -1.34019  -1.33999  -0.69640  -0.69616  -0.53742
 Alpha  occ. eigenvalues --   -0.53092  -0.48550  -0.48457
 Alpha virt. eigenvalues --    0.21088   0.21860   0.31590   0.31822   0.78674
 Alpha virt. eigenvalues --    0.81278   0.82802   0.86652   0.90228   0.94320
 Alpha virt. eigenvalues --    1.18668   1.18685   1.23023   1.23376   2.58234

 Mulliken charges:
               1
     1  O   -0.722833
     2  H    0.361029
     3  H    0.361806
     4  O   -0.722805
     5  H    0.360943
     6  H    0.361861
 Sum of Mulliken charges =  -0.00000

 Dipole moment (field-independent basis, Debye):
    X=             -0.1704    Y=             -0.0059    Z=              0.0000  Tot=              0.1705
 Quadrupole moment (field-independent basis, Debye-Ang):
   XX=             -8.1133   YY=              7.9733   ZZ=            -14.9837
   XY=             -0.2208   XZ=              0.0000   YZ=              0.0000

 MP4DQ=-33.8866403\MP4SDQ=-33.888693\CCSD=-33.8897529\CCSD(T)=-33.89234
 Normal termination of Gaussian 16 at Sun Dec 10 07:04:46 2023.
