 Gaussian 16, Revision A.03,
 Gaussian 16:  ES64L-G16RevA.03 25-Dec-2016

 ------------------
 #p CCSD(T)/CEP-31G
 ------------------

 ------------
 H2O_H2O_1668
 ------------
 Symbolic Z-matrix:
 Charge =  0 Multiplicity = 1

                         Standard orientation:
 ---------------------------------------------------------------------
 Center     Atomic      Atomic             Coordinates (Angstroms)
 Number     Number       Type             X           Y           Z
 ---------------------------------------------------------------------
      1          8           0        0.052861   -1.642986    0.000000
      2          1           0       -0.748253   -2.211952    0.000000
      3          1           0        0.850883   -2.216280    0.000000
      4          8           0        0.052861    1.713214    0.000000
      5          1           0       -0.166221    2.671081    0.000000
      6          1           0       -0.782184    1.195328    0.000000
 ---------------------------------------------------------------------

 SCF Done:  E(RHF) =  -33.6504383184     A.U. after   11 cycles
 E2 =    -0.2289159181D+00 EUMP2 =    -0.33879354236583D+02
 CCSD(T)
 CCSD(T)= -0.33896442570D+02

 The electronic state is 1-A'.
 Alpha  occ. eigenvalues --   -1.35296  -1.33285  -0.70936  -0.68839  -0.54981
 Alpha  occ. eigenvalues --   -0.52887  -0.49853  -0.47847
 Alpha virt. eigenvalues --    0.19668   0.23342   0.30564   0.32726   0.75722
 Alpha virt. eigenvalues --    0.79602   0.83829   0.85927   0.87855   1.05044
 Alpha virt. eigenvalues --    1.17482   1.20553   1.22034   1.25725   2.56085

 Mulliken charges:
               1
     1  O   -0.737183
     2  H    0.361410
     3  H    0.376651
     4  O   -0.731001
     5  H    0.351877
     6  H    0.378246
 Sum of Mulliken charges =   0.00000

 Dipole moment (field-independent basis, Debye):
    X=             -2.3838    Y=             -1.7408    Z=              0.0000  Tot=              2.9518
 Quadrupole moment (field-independent basis, Debye-Ang):
   XX=             -9.8433   YY=              1.5447   ZZ=            -14.9902
   XY=             -3.7291   XZ=              0.0000   YZ=              0.0000

 \MP4DQ=-33.89072\MP4SDQ=-33.8927958\CCSD=-33.8938372\CCSD(T)=-33.89644
 Normal termination of Gaussian 16 at Sun Dec 10 06:55:53 2023.
