 Gaussian 16, Revision A.03,
 Gaussian 16:  ES64L-G16RevA.03 25-Dec-2016

 ------------------
 #p CCSD(T)/CEP-31G
 ------------------

 ------------
 H2O_H2O_2015
 ------------
 Symbolic Z-matrix:
 Charge =  0 Multiplicity = 1

                         Standard orientation:
 ---------------------------------------------------------------------
 Center     Atomic      Atomic             Coordinates (Angstroms)
 Number     Number       Type             X           Y           Z
 ---------------------------------------------------------------------
      1          8           0        0.047543   -1.839812    0.000000
      2          1           0       -0.753277   -2.409190    0.000000
      3          1           0        0.845861   -2.412696    0.000000
      4          8           0        0.047543    1.890370    0.000000
      5          1           0        0.019035    2.872558    0.000000
      6          1           0       -0.872313    1.544870    0.000000
 ---------------------------------------------------------------------

 SCF Done:  E(RHF) =  -33.6495038932     A.U. after   11 cycles
 E2 =    -0.2287242648D+00 EUMP2 =    -0.33878228157970D+02
 CCSD(T)
 CCSD(T)= -0.33895308632D+02

 The electronic state is 1-A'.
 Alpha  occ. eigenvalues --   -1.34937  -1.33785  -0.70568  -0.69358  -0.54567
 Alpha  occ. eigenvalues --   -0.53340  -0.49477  -0.48330
 Alpha virt. eigenvalues --    0.20200   0.22346   0.30890   0.32093   0.77267
 Alpha virt. eigenvalues --    0.80564   0.82719   0.85839   0.87733   0.97999
 Alpha virt. eigenvalues --    1.17857   1.19380   1.22262   1.23802   2.57398

 Mulliken charges:
               1
     1  O   -0.733317
     2  H    0.361678
     3  H    0.372011
     4  O   -0.729623
     5  H    0.356532
     6  H    0.372719
 Sum of Mulliken charges =  -0.00000

 Dipole moment (field-independent basis, Debye):
    X=             -2.1615    Y=             -1.2320    Z=              0.0000  Tot=              2.4879
 Quadrupole moment (field-independent basis, Debye-Ang):
   XX=             -9.5110   YY=              4.4274   ZZ=            -14.9875
   XY=             -3.4559   XZ=              0.0000   YZ=              0.0000

 \MP4DQ=-33.8896216\MP4SDQ=-33.8916741\CCSD=-33.8927227\CCSD(T)=-33.895
 Normal termination of Gaussian 16 at Sun Dec 10 07:03:40 2023.
