 Gaussian 16, Revision A.03,
 Gaussian 16:  ES64L-G16RevA.03 25-Dec-2016

 ------------------
 #p CCSD(T)/CEP-31G
 ------------------

 ------------
 H2O_H2O_3177
 ------------
 Symbolic Z-matrix:
 Charge =  0 Multiplicity = 1

                         Standard orientation:
 ---------------------------------------------------------------------
 Center     Atomic      Atomic             Coordinates (Angstroms)
 Number     Number       Type             X           Y           Z
 ---------------------------------------------------------------------
      1          8           0        0.007455   -2.491651    0.000000
      2          1           0       -0.792263   -3.062577    0.000000
      3          1           0        0.806879   -3.062989    0.000000
      4          8           0        0.007455    2.492624    0.000000
      5          1           0        0.725811    3.163050    0.000000
      6          1           0       -0.859705    2.954728    0.000000
 ---------------------------------------------------------------------

 SCF Done:  E(RHF) =  -33.6493681202     A.U. after   11 cycles
 E2 =    -0.2285165458D+00 EUMP2 =    -0.33877884665981D+02
 CCSD(T)
 CCSD(T)= -0.33894954771D+02

 The electronic state is 1-A'.
 Alpha  occ. eigenvalues --   -1.34640  -1.34628  -0.70264  -0.70251  -0.54255
 Alpha  occ. eigenvalues --   -0.54203  -0.49175  -0.49163
 Alpha virt. eigenvalues --    0.20959   0.21052   0.31222   0.31244   0.81349
 Alpha virt. eigenvalues --    0.81417   0.83975   0.85351   0.87582   0.87734
 Alpha virt. eigenvalues --    1.18160   1.18172   1.22633   1.22658   2.58233

 Mulliken charges:
               1
     1  O   -0.732641
     2  H    0.365944
     3  H    0.366697
     4  O   -0.732606
     5  H    0.365816
     6  H    0.366790
 Sum of Mulliken charges =   0.00000

 Dipole moment (field-independent basis, Debye):
    X=             -0.3429    Y=             -0.0230    Z=              0.0000  Tot=              0.3437
 Quadrupole moment (field-independent basis, Debye-Ang):
   XX=             -8.0937   YY=             14.2741   ZZ=            -14.9855
   XY=             -0.6333   XZ=              0.0000   YZ=              0.0000

 P4DQ=-33.8892912\MP4SDQ=-33.8913256\CCSD=-33.8923849\CCSD(T)=-33.89495
 Normal termination of Gaussian 16 at Sun Dec 10 06:37:04 2023.
