 Gaussian 16, Revision A.03,
 Gaussian 16:  ES64L-G16RevA.03 25-Dec-2016

 ------------------
 #p CCSD(T)/CEP-31G
 ------------------

 ------------
 H2O_H2O_1153
 ------------
 Symbolic Z-matrix:
 Charge =  0 Multiplicity = 1

                         Standard orientation:
 ---------------------------------------------------------------------
 Center     Atomic      Atomic             Coordinates (Angstroms)
 Number     Number       Type             X           Y           Z
 ---------------------------------------------------------------------
      1          8           0        0.011143   -1.414027    0.000000
      2          1           0       -0.788815   -1.984617    0.000000
      3          1           0        0.810327   -1.985701    0.000000
      4          8           0        0.011143    1.416207    0.000000
      5          1           0        0.684413    2.131897    0.000000
      6          1           0       -0.884213    1.820983    0.000000
 ---------------------------------------------------------------------

 SCF Done:  E(RHF) =  -33.6382522024     A.U. after   11 cycles
 E2 =    -0.2294264725D+00 EUMP2 =    -0.33867678674959D+02
 CCSD(T)
 CCSD(T)= -0.33885082731D+02

 The electronic state is 1-A'.
 Alpha  occ. eigenvalues --   -1.33104  -1.32797  -0.68689  -0.68432  -0.53914
 Alpha  occ. eigenvalues --   -0.50062  -0.47722  -0.46986
 Alpha virt. eigenvalues --    0.21330   0.23347   0.32279   0.32617   0.79663
 Alpha virt. eigenvalues --    0.80743   0.81480   0.86993   0.99939   1.09559
 Alpha virt. eigenvalues --    1.19359   1.20307   1.24213   1.24309   2.58788

 Mulliken charges:
               1
     1  O   -0.705678
     2  H    0.350173
     3  H    0.355325
     4  O   -0.704391
     5  H    0.350718
     6  H    0.353853
 Sum of Mulliken charges =   0.00000

 Dipole moment (field-independent basis, Debye):
    X=             -0.4919    Y=             -0.0540    Z=              0.0000  Tot=              0.4948
 Quadrupole moment (field-independent basis, Debye-Ang):
   XX=             -8.2766   YY=              2.2032   ZZ=            -14.9867
   XY=             -0.4349   XZ=              0.0000   YZ=              0.0000

 P4DQ=-33.8792427\MP4SDQ=-33.8813365\CCSD=-33.882424\CCSD(T)=-33.885082
 Normal termination of Gaussian 16 at Sun Dec 10 06:46:18 2023.
