 Gaussian 16, Revision A.03,
 Gaussian 16:  ES64L-G16RevA.03 25-Dec-2016

 ------------------
 #p CCSD(T)/CEP-31G
 ------------------

 -----------
 H2O_H2O_673
 -----------
 Symbolic Z-matrix:
 Charge =  0 Multiplicity = 1

                         Standard orientation:
 ---------------------------------------------------------------------
 Center     Atomic      Atomic             Coordinates (Angstroms)
 Number     Number       Type             X           Y           Z
 ---------------------------------------------------------------------
      1          8           0        0.057219   -1.091575    0.000000
      2          1           0       -0.744792   -1.659275    0.000000
      3          1           0        0.854335   -1.666128    0.000000
      4          8           0        0.057219    1.197841    0.000000
      5          1           0       -0.456811    2.035265    0.000000
      6          1           0       -0.568238    0.440009    0.000000
 ---------------------------------------------------------------------

 SCF Done:  E(RHF) =  -33.6362176028     A.U. after   11 cycles
 E2 =    -0.2306698262D+00 EUMP2 =    -0.33866887429005D+02
 CCSD(T)
 CCSD(T)= -0.33883424146D+02

 The electronic state is 1-A'.
 Alpha  occ. eigenvalues --   -1.37670  -1.30392  -0.73421  -0.69225  -0.54147
 Alpha  occ. eigenvalues --   -0.52148  -0.50433  -0.44897
 Alpha virt. eigenvalues --    0.18767   0.27700   0.28999   0.37541   0.76575
 Alpha virt. eigenvalues --    0.83994   0.89404   0.91185   0.98421   1.12976
 Alpha virt. eigenvalues --    1.18962   1.19447   1.26809   1.31306   2.75097

 Mulliken charges:
               1
     1  O   -0.787805
     2  H    0.370261
     3  H    0.421999
     4  O   -0.716077
     5  H    0.322820
     6  H    0.388802
 Sum of Mulliken charges =   0.00000

 Dipole moment (field-independent basis, Debye):
    X=             -2.3697    Y=             -2.8877    Z=              0.0000  Tot=              3.7356
 Quadrupole moment (field-independent basis, Debye-Ang):
   XX=            -10.1061   YY=             -4.9998   ZZ=            -15.0050
   XY=             -3.2509   XZ=              0.0000   YZ=              0.0000

 \MP4DQ=-33.8773497\MP4SDQ=-33.8795967\CCSD=-33.8805057\CCSD(T)=-33.883
 Normal termination of Gaussian 16 at Sun Dec 10 06:37:19 2023.
