 Gaussian 16, Revision A.03,
 Gaussian 16:  ES64L-G16RevA.03 25-Dec-2016

 ------------------
 #p CCSD(T)/CEP-31G
 ------------------

 -----------
 H2O_H2O_855
 -----------
 Symbolic Z-matrix:
 Charge =  0 Multiplicity = 1

                         Standard orientation:
 ---------------------------------------------------------------------
 Center     Atomic      Atomic             Coordinates (Angstroms)
 Number     Number       Type             X           Y           Z
 ---------------------------------------------------------------------
      1          8           0        0.018362   -1.252392    0.000000
      2          1           0       -0.781927   -1.822517    0.000000
      3          1           0        0.817214   -1.824530    0.000000
      4          8           0        0.018362    1.258408    0.000000
      5          1           0        0.592920    2.055521    0.000000
      6          1           0       -0.922002    1.543400    0.000000
 ---------------------------------------------------------------------

 SCF Done:  E(RHF) =  -33.6316754886     A.U. after   11 cycles
 E2 =    -0.2300062562D+00 EUMP2 =    -0.33861681744744D+02
 CCSD(T)
 CCSD(T)= -0.33879110723D+02

 The electronic state is 1-A'.
 Alpha  occ. eigenvalues --   -1.32888  -1.32129  -0.68422  -0.67809  -0.54767
 Alpha  occ. eigenvalues --   -0.48014  -0.47602  -0.46155
 Alpha virt. eigenvalues --    0.21343   0.24214   0.32566   0.32871   0.79384
 Alpha virt. eigenvalues --    0.79751   0.88468   0.88727   1.02691   1.11461
 Alpha virt. eigenvalues --    1.19606   1.22067   1.24217   1.25450   2.55623

 Mulliken charges:
               1
     1  O   -0.704824
     2  H    0.345884
     3  H    0.357446
     4  O   -0.698021
     5  H    0.348667
     6  H    0.350848
 Sum of Mulliken charges =   0.00000

 Dipole moment (field-independent basis, Debye):
    X=             -0.7844    Y=             -0.1454    Z=              0.0000  Tot=              0.7978
 Quadrupole moment (field-independent basis, Debye-Ang):
   XX=             -8.4437   YY=              0.0379   ZZ=            -14.9947
   XY=             -0.6105   XZ=              0.0000   YZ=              0.0000

 P4DQ=-33.8731886\MP4SDQ=-33.8753033\CCSD=-33.876395\CCSD(T)=-33.879110
 Normal termination of Gaussian 16 at Sun Dec 10 06:40:44 2023.
