 Gaussian 16, Revision A.03,
 Gaussian 16:  ES64L-G16RevA.03 25-Dec-2016

 ------------------
 #p CCSD(T)/CEP-31G
 ------------------

 ------------
 H2O_H2O_1725
 ------------
 Symbolic Z-matrix:
 Charge =  0 Multiplicity = 1

                         Standard orientation:
 ---------------------------------------------------------------------
 Center     Atomic      Atomic             Coordinates (Angstroms)
 Number     Number       Type             X           Y           Z
 ---------------------------------------------------------------------
      1          8           0        0.000000   -0.000000    1.721017
      2          1           0        0.000000    0.799571    2.292149
      3          1           0       -0.000000   -0.799571    2.292149
      4          8           0        0.000000   -0.000000   -1.721017
      5          1           0       -0.000000   -0.799571   -2.292149
      6          1           0        0.000000    0.799571   -2.292149
 ---------------------------------------------------------------------

 SCF Done:  E(RHF) =  -33.6444002504     A.U. after   10 cycles
 E2 =    -0.2289168598D+00 EUMP2 =    -0.33873317110244D+02
 CCSD(T)
 CCSD(T)= -0.33890553537D+02

 The electronic state is 1-AG.
 Alpha  occ. eigenvalues --   -1.33712  -1.33657  -0.69329  -0.69274  -0.53621
 Alpha  occ. eigenvalues --   -0.52328  -0.48256  -0.48048
 Alpha virt. eigenvalues --    0.21143   0.22293   0.31763   0.32114   0.76807
 Alpha virt. eigenvalues --    0.80823   0.83967   0.85158   0.92763   1.00469
 Alpha virt. eigenvalues --    1.18903   1.18981   1.23240   1.23784   2.58443

 Mulliken charges:
               1
     1  O   -0.716814
     2  H    0.358407
     3  H    0.358407
     4  O   -0.716814
     5  H    0.358407
     6  H    0.358407
 Sum of Mulliken charges =  -0.00000

 Dipole moment (field-independent basis, Debye):
    X=             -0.0000    Y=              0.0000    Z=              0.0000  Tot=              0.0000
 Quadrupole moment (field-independent basis, Debye-Ang):
   XX=            -14.9832   YY=             -8.1341   ZZ=              5.9058
   XY=              0.0000   XZ=              0.0000   YZ=             -0.0000

 3.8848134\MP4SDQ=-33.8868827\CCSD=-33.8879461\CCSD(T)=-33.8905535\RMSD
 Normal termination of Gaussian 16 at Sun Dec 10 06:56:57 2023.
