 Gaussian 16, Revision A.03,
 Gaussian 16:  ES64L-G16RevA.03 25-Dec-2016

 ------------------
 #p CCSD(T)/CEP-31G
 ------------------

 ---------
 H2O_H2O_5
 ---------
 Symbolic Z-matrix:
 Charge =  0 Multiplicity = 1

                         Standard orientation:
 ---------------------------------------------------------------------
 Center     Atomic      Atomic             Coordinates (Angstroms)
 Number     Number       Type             X           Y           Z
 ---------------------------------------------------------------------
      1          8           0        0.018364   -0.800345    0.000000
      2          1           0       -0.782329   -1.369902    0.000000
      3          1           0        0.816810   -1.373049    0.000000
      4          8           0        0.018364    0.806334    0.000000
      5          1           0        0.593487    1.603040    0.000000
      6          1           0       -0.921797    1.091993    0.000000
 ---------------------------------------------------------------------

 SCF Done:  E(RHF) =  -33.4582152803     A.U. after   12 cycles
 E2 =    -0.2405449403D+00 EUMP2 =    -0.33698760220598D+02
 CCSD(T)
 CCSD(T)= -0.33714873653D+02

 The electronic state is 1-A'.
 Alpha  occ. eigenvalues --   -1.38465  -1.28746  -0.71971  -0.68690  -0.64128
 Alpha  occ. eigenvalues --   -0.52865  -0.42380  -0.29939
 Alpha virt. eigenvalues --    0.20791   0.28964   0.31379   0.33651   0.81610
 Alpha virt. eigenvalues --    0.82104   0.88244   0.88554   1.01046   1.19141
 Alpha virt. eigenvalues --    1.21015   1.24404   1.27323   1.41260   2.53936

 Mulliken charges:
               1
     1  O   -0.690654
     2  H    0.326610
     3  H    0.362493
     4  O   -0.675704
     5  H    0.334661
     6  H    0.342594
 Sum of Mulliken charges =   0.00000

 Dipole moment (field-independent basis, Debye):
    X=             -0.6660    Y=             -0.1850    Z=              0.0000  Tot=              0.6912
 Quadrupole moment (field-independent basis, Debye-Ang):
   XX=             -8.7679   YY=             -8.4782   ZZ=            -15.0039
   XY=             -0.4886   XZ=              0.0000   YZ=              0.0000

 Q=-33.7077656\MP4SDQ=-33.7107163\CCSD=-33.7111129\CCSD(T)=-33.7148737\
 Normal termination of Gaussian 16 at Sun Dec 10 06:24:49 2023.
