 Gaussian 16, Revision A.03,
 Gaussian 16:  ES64L-G16RevA.03 25-Dec-2016

 ------------------
 #p CCSD(T)/CEP-31G
 ------------------

 -----------
 H2O_H2O_161
 -----------
 Symbolic Z-matrix:
 Charge =  0 Multiplicity = 1

                         Standard orientation:
 ---------------------------------------------------------------------
 Center     Atomic      Atomic             Coordinates (Angstroms)
 Number     Number       Type             X           Y           Z
 ---------------------------------------------------------------------
      1          8           0        0.037709   -0.868125    0.000000
      2          1           0       -0.763955   -1.436315    0.000000
      3          1           0        0.835176   -1.442191    0.000000
      4          8           0        0.037709    0.896195    0.000000
      5          1           0        0.265799    1.851957    0.000000
      6          1           0       -0.940368    0.801994    0.000000
 ---------------------------------------------------------------------

 SCF Done:  E(RHF) =  -33.5410202887     A.U. after   11 cycles
 E2 =    -0.2352522831D+00 EUMP2 =    -0.33776272571750D+02
 CCSD(T)
 CCSD(T)= -0.33793211560D+02

 The electronic state is 1-A'.
 Alpha  occ. eigenvalues --   -1.36322  -1.29444  -0.71525  -0.67990  -0.59365
 Alpha  occ. eigenvalues --   -0.50905  -0.43261  -0.38010
 Alpha virt. eigenvalues --    0.20522   0.28050   0.31492   0.33484   0.81271
 Alpha virt. eigenvalues --    0.84407   0.89539   0.93951   0.98785   1.19637
 Alpha virt. eigenvalues --    1.20787   1.25512   1.26841   1.35495   2.53449

 Mulliken charges:
               1
     1  O   -0.742388
     2  H    0.338508
     3  H    0.385605
     4  O   -0.660601
     5  H    0.335222
     6  H    0.343654
 Sum of Mulliken charges =   0.00000

 Dipole moment (field-independent basis, Debye):
    X=             -1.3912    Y=             -0.7159    Z=              0.0000  Tot=              1.5646
 Quadrupole moment (field-independent basis, Debye-Ang):
   XX=             -9.1824   YY=             -6.3757   ZZ=            -14.9870
   XY=             -0.9684   XZ=              0.0000   YZ=              0.0000

 MP4DQ=-33.7866228\MP4SDQ=-33.7891888\CCSD=-33.789958\CCSD(T)=-33.79321
 Normal termination of Gaussian 16 at Sun Dec 10 06:27:45 2023.
