 Gaussian 16, Revision A.03,
 Gaussian 16:  ES64L-G16RevA.03 25-Dec-2016

 ------------------
 #p CCSD(T)/CEP-31G
 ------------------

 ------------
 H2O_H2O_4575
 ------------
 Symbolic Z-matrix:
 Charge =  0 Multiplicity = 1

                         Standard orientation:
 ---------------------------------------------------------------------
 Center     Atomic      Atomic             Coordinates (Angstroms)
 Number     Number       Type             X           Y           Z
 ---------------------------------------------------------------------
      1          8           0        0.000000   -0.000000    3.236751
      2          1           0        0.000000    0.799571    3.807883
      3          1           0       -0.000000   -0.799571    3.807883
      4          8           0        0.000000   -0.000000   -3.236751
      5          1           0       -0.000000   -0.799571   -3.807883
      6          1           0        0.000000    0.799571   -3.807883
 ---------------------------------------------------------------------

 SCF Done:  E(RHF) =  -33.6506822137     A.U. after   10 cycles
 E2 =    -0.2284360917D+00 EUMP2 =    -0.33879118305334D+02
 CCSD(T)
 CCSD(T)= -0.33896150508D+02

 The electronic state is 1-AG.
 Alpha  occ. eigenvalues --   -1.35020  -1.35020  -0.70647  -0.70647  -0.54693
 Alpha  occ. eigenvalues --   -0.54693  -0.49574  -0.49574
 Alpha virt. eigenvalues --    0.20690   0.20691   0.30922   0.30922   0.80980
 Alpha virt. eigenvalues --    0.80980   0.84107   0.84116   0.87182   0.87183
 Alpha virt. eigenvalues --    1.17835   1.17835   1.22302   1.22302   2.57878

 Mulliken charges:
               1
     1  O   -0.737174
     2  H    0.368587
     3  H    0.368587
     4  O   -0.737174
     5  H    0.368587
     6  H    0.368587
 Sum of Mulliken charges =  -0.00000

 Dipole moment (field-independent basis, Debye):
    X=             -0.0000    Y=              0.0000    Z=             -0.0000  Tot=              0.0000
 Quadrupole moment (field-independent basis, Debye-Ang):
   XX=            -14.9868   YY=             -8.0371   ZZ=             22.3440
   XY=              0.0000   XZ=              0.0000   YZ=             -0.0000

 8904977\MP4SDQ=-33.8925283\CCSD=-33.8935859\CCSD(T)=-33.8961505\RMSD=4
 Normal termination of Gaussian 16 at Sun Dec 10 07:04:00 2023.
