 Gaussian 16, Revision A.03,
 Gaussian 16:  ES64L-G16RevA.03 25-Dec-2016

 ------------------
 #p CCSD(T)/CEP-31G
 ------------------

 ------------
 H2O_H2O_1671
 ------------
 Symbolic Z-matrix:
 Charge =  0 Multiplicity = 1

                         Standard orientation:
 ---------------------------------------------------------------------
 Center     Atomic      Atomic             Coordinates (Angstroms)
 Number     Number       Type             X           Y           Z
 ---------------------------------------------------------------------
      1          8           0        0.056148   -1.631369    0.000000
      2          1           0       -0.745062   -2.200199    0.000000
      3          1           0        0.854073   -2.204797    0.000000
      4          8           0        0.056148    1.722988    0.000000
      5          1           0       -0.345445    2.619777    0.000000
      6          1           0       -0.661931    1.052264    0.000000
 ---------------------------------------------------------------------

 SCF Done:  E(RHF) =  -33.6525861251     A.U. after   11 cycles
 E2 =    -0.2288748441D+00 EUMP2 =    -0.33881460969262D+02
 CCSD(T)
 CCSD(T)= -0.33898491942D+02

 The electronic state is 1-A'.
 Alpha  occ. eigenvalues --   -1.35826  -1.33148  -0.71470  -0.68710  -0.55605
 Alpha  occ. eigenvalues --   -0.52870  -0.50408  -0.47736
 Alpha virt. eigenvalues --    0.19270   0.23743   0.30143   0.33311   0.76498
 Alpha virt. eigenvalues --    0.79194   0.83787   0.86248   0.87514   1.03523
 Alpha virt. eigenvalues --    1.17012   1.20441   1.21689   1.27405   2.54623

 Mulliken charges:
               1
     1  O   -0.744530
     2  H    0.364757
     3  H    0.381097
     4  O   -0.739595
     5  H    0.352143
     6  H    0.386128
 Sum of Mulliken charges =  -0.00000

 Dipole moment (field-independent basis, Debye):
    X=             -2.5346    Y=             -2.2797    Z=              0.0000  Tot=              3.4090
 Quadrupole moment (field-independent basis, Debye-Ang):
   XX=            -10.0625   YY=              0.0456   ZZ=            -14.9934
   XY=             -4.3344   XZ=              0.0000   YZ=              0.0000

 P4DQ=-33.8927711\MP4SDQ=-33.8948473\CCSD=-33.8958829\CCSD(T)=-33.89849
 Normal termination of Gaussian 16 at Sun Dec 10 06:55:57 2023.
