 Gaussian 16, Revision A.03,
 Gaussian 16:  ES64L-G16RevA.03 25-Dec-2016

 ------------------
 #p CCSD(T)/CEP-31G
 ------------------

 ------------
 H2O_H2O_1711
 ------------
 Symbolic Z-matrix:
 Charge =  0 Multiplicity = 1

                         Standard orientation:
 ---------------------------------------------------------------------
 Center     Atomic      Atomic             Coordinates (Angstroms)
 Number     Number       Type             X           Y           Z
 ---------------------------------------------------------------------
      1          8           0        0.037684   -1.692402    0.000000
      2          1           0       -0.762970   -2.262014    0.000000
      3          1           0        0.836169   -2.265052    0.000000
      4          8           0        0.037684    1.720605    0.000000
      5          1           0        0.264077    2.676771    0.000000
      6          1           0       -0.940224    1.624669    0.000000
 ---------------------------------------------------------------------

 SCF Done:  E(RHF) =  -33.6467130074     A.U. after   11 cycles
 E2 =    -0.2289337849D+00 EUMP2 =    -0.33875646792329D+02
 CCSD(T)
 CCSD(T)= -0.33892828343D+02

 The electronic state is 1-A'.
 Alpha  occ. eigenvalues --   -1.34314  -1.33555  -0.69941  -0.69137  -0.54017
 Alpha  occ. eigenvalues --   -0.52722  -0.48829  -0.48052
 Alpha virt. eigenvalues --    0.20569   0.22583   0.31421   0.32136   0.75679
 Alpha virt. eigenvalues --    0.80402   0.83831   0.85108   0.90151   1.04441
 Alpha virt. eigenvalues --    1.18370   1.19597   1.22912   1.23746   2.58116

 Mulliken charges:
               1
     1  O   -0.724665
     2  H    0.357241
     3  H    0.367655
     4  O   -0.720406
     5  H    0.353423
     6  H    0.366751
 Sum of Mulliken charges =   0.00000

 Dipole moment (field-independent basis, Debye):
    X=             -1.7025    Y=             -0.6967    Z=              0.0000  Tot=              1.8396
 Quadrupole moment (field-independent basis, Debye-Ang):
   XX=             -9.0020   YY=              4.3219   ZZ=            -14.9854
   XY=             -2.2208   XZ=              0.0000   YZ=              0.0000

 MP4DQ=-33.8870972\MP4SDQ=-33.8891697\CCSD=-33.8902237\CCSD(T)=-33.8928
 Normal termination of Gaussian 16 at Sun Dec 10 06:56:41 2023.
