 Gaussian 16, Revision A.03,
 Gaussian 16:  ES64L-G16RevA.03 25-Dec-2016

 ------------------
 #p CCSD(T)/CEP-31G
 ------------------

 ------------
 H2O_H2O_3436
 ------------
 Symbolic Z-matrix:
 Charge =  0 Multiplicity = 1

                         Standard orientation:
 ---------------------------------------------------------------------
 Center     Atomic      Atomic             Coordinates (Angstroms)
 Number     Number       Type             X           Y           Z
 ---------------------------------------------------------------------
      1          8           0        0.037675   -2.609794    0.000000
      2          1           0       -0.762601   -3.179938    0.000000
      3          1           0        0.836540   -3.181913    0.000000
      4          8           0        0.037675    2.638047    0.000000
      5          1           0        0.263432    3.594363    0.000000
      6          1           0       -0.940169    2.541461    0.000000
 ---------------------------------------------------------------------

 SCF Done:  E(RHF) =  -33.6503726835     A.U. after   11 cycles
 E2 =    -0.2284722084D+00 EUMP2 =    -0.33878844891882D+02
 CCSD(T)
 CCSD(T)= -0.33895886154D+02

 The electronic state is 1-A'.
 Alpha  occ. eigenvalues --   -1.35003  -1.34691  -0.70630  -0.70308  -0.54657
 Alpha  occ. eigenvalues --   -0.54345  -0.49553  -0.49242
 Alpha virt. eigenvalues --    0.20686   0.21011   0.30923   0.31226   0.81000
 Alpha virt. eigenvalues --    0.81306   0.84002   0.84614   0.87216   0.87621
 Alpha virt. eigenvalues --    1.17839   1.18147   1.22309   1.22619   2.57890

 Mulliken charges:
               1
     1  O   -0.736166
     2  H    0.366449
     3  H    0.369718
     4  O   -0.735564
     5  H    0.365318
     6  H    0.370246
 Sum of Mulliken charges =   0.00000

 Dipole moment (field-independent basis, Debye):
    X=             -1.7344    Y=             -0.6657    Z=              0.0000  Tot=              1.8578
 Quadrupole moment (field-independent basis, Debye-Ang):
   XX=             -8.9639   YY=             13.1370   ZZ=            -14.9868
   XY=             -3.7510   XZ=              0.0000   YZ=              0.0000

 MP4DQ=-33.8902307\MP4SDQ=-33.8922624\CCSD=-33.8933197\CCSD(T)=-33.8958
 Normal termination of Gaussian 16 at Sun Dec 10 06:41:43 2023.
