 Gaussian 16, Revision A.03,
 Gaussian 16:  ES64L-G16RevA.03 25-Dec-2016

 ------------------
 #p CCSD(T)/CEP-31G
 ------------------

 ------------
 H2O_H2O_1064
 ------------
 Symbolic Z-matrix:
 Charge =  0 Multiplicity = 1

                         Standard orientation:
 ---------------------------------------------------------------------
 Center     Atomic      Atomic             Coordinates (Angstroms)
 Number     Number       Type             X           Y           Z
 ---------------------------------------------------------------------
      1          8           0        0.045375   -1.337894    0.000000
      2          1           0       -0.755831   -1.906731    0.000000
      3          1           0        0.843305   -1.911317    0.000000
      4          8           0        0.045375    1.382324    0.000000
      5          1           0        0.081830    2.364249    0.000000
      6          1           0       -0.895301    1.098361    0.000000
 ---------------------------------------------------------------------

 SCF Done:  E(RHF) =  -33.6430703226     A.U. after   11 cycles
 E2 =    -0.2297009225D+00 EUMP2 =    -0.33872771245025D+02
 CCSD(T)
 CCSD(T)= -0.33890093483D+02

 The electronic state is 1-A'.
 Alpha  occ. eigenvalues --   -1.34296  -1.32490  -0.69930  -0.68128  -0.54467
 Alpha  occ. eigenvalues --   -0.50964  -0.48860  -0.46906
 Alpha virt. eigenvalues --    0.20234   0.24414   0.31428   0.32890   0.78648
 Alpha virt. eigenvalues --    0.81333   0.84416   0.87208   0.93442   1.16156
 Alpha virt. eigenvalues --    1.18462   1.22457   1.22995   1.27872   2.60147

 Mulliken charges:
               1
     1  O   -0.728866
     2  H    0.352060
     3  H    0.374043
     4  O   -0.706262
     5  H    0.343472
     6  H    0.365553
 Sum of Mulliken charges =   0.00000

 Dipole moment (field-independent basis, Debye):
    X=             -1.9823    Y=             -1.1107    Z=              0.0000  Tot=              2.2723
 Quadrupole moment (field-independent basis, Debye-Ang):
   XX=             -9.4198   YY=              0.0381   ZZ=            -14.9900
   XY=             -2.2175   XZ=              0.0000   YZ=              0.0000

 P4DQ=-33.8842294\MP4SDQ=-33.8863591\CCSD=-33.8874226\CCSD(T)=-33.89009
 Normal termination of Gaussian 16 at Sun Dec 10 06:44:39 2023.
