 Gaussian 16, Revision A.03,
 Gaussian 16:  ES64L-G16RevA.03 25-Dec-2016

 ------------------
 #p CCSD(T)/CEP-31G
 ------------------

 ------------
 H2O_H2O_3065
 ------------
 Symbolic Z-matrix:
 Charge =  0 Multiplicity = 1

                         Standard orientation:
 ---------------------------------------------------------------------
 Center     Atomic      Atomic             Coordinates (Angstroms)
 Number     Number       Type             X           Y           Z
 ---------------------------------------------------------------------
      1          8           0        0.047531   -2.398216    0.000000
      2          1           0       -0.753003   -2.967998    0.000000
      3          1           0        0.846137   -2.970696    0.000000
      4          8           0        0.047531    2.448821    0.000000
      5          1           0        0.018526    3.430994    0.000000
      6          1           0       -0.872151    2.102857    0.000000
 ---------------------------------------------------------------------

 SCF Done:  E(RHF) =  -33.6506943987     A.U. after   11 cycles
 E2 =    -0.2284761886D+00 EUMP2 =    -0.33879170587316D+02
 CCSD(T)
 CCSD(T)= -0.33896202887D+02

 The electronic state is 1-A'.
 Alpha  occ. eigenvalues --   -1.35166  -1.34506  -0.70795  -0.70112  -0.54839
 Alpha  occ. eigenvalues --   -0.54173  -0.49720  -0.49063
 Alpha virt. eigenvalues --    0.20510   0.21251   0.30777   0.31430   0.80830
 Alpha virt. eigenvalues --    0.81481   0.83431   0.84954   0.87027   0.88045
 Alpha virt. eigenvalues --    1.17690   1.18347   1.22152   1.22826   2.57731

 Mulliken charges:
               1
     1  O   -0.737354
     2  H    0.366146
     3  H    0.371217
     4  O   -0.736194
     5  H    0.363826
     6  H    0.372359
 Sum of Mulliken charges =  -0.00000

 Dipole moment (field-independent basis, Debye):
    X=             -2.1844    Y=             -1.1980    Z=              0.0000  Tot=              2.4914
 Quadrupole moment (field-independent basis, Debye-Ang):
   XX=             -9.5051   YY=              9.1821   ZZ=            -14.9876
   XY=             -4.6419   XZ=              0.0000   YZ=              0.0000

 \MP4DQ=-33.8905492\MP4SDQ=-33.8925807\CCSD=-33.8936364\CCSD(T)=-33.896
 Normal termination of Gaussian 16 at Sun Dec 10 06:35:06 2023.
