 Gaussian 16, Revision A.03,
 Gaussian 16:  ES64L-G16RevA.03 25-Dec-2016

 ------------------
 #p CCSD(T)/CEP-31G
 ------------------

 ----------
 H2O_H2O_44
 ----------
 Symbolic Z-matrix:
 Charge =  0 Multiplicity = 1

                         Standard orientation:
 ---------------------------------------------------------------------
 Center     Atomic      Atomic             Coordinates (Angstroms)
 Number     Number       Type             X           Y           Z
 ---------------------------------------------------------------------
      1          8           0        0.054303   -0.775127    0.000000
      2          1           0       -0.748523   -1.341674    0.000000
      3          1           0        0.850593   -1.350825    0.000000
      4          8           0        0.054303    0.852016    0.000000
      5          1           0       -0.224118    1.794348    0.000000
      6          1           0       -0.746802    0.283037    0.000000
 ---------------------------------------------------------------------

 SCF Done:  E(RHF) =  -33.4463418574     A.U. after   12 cycles
 E2 =    -0.2375858473D+00 EUMP2 =    -0.33683927704690D+02
 CCSD(T)
 CCSD(T)= -0.33700260519D+02

 The electronic state is 1-A'.
 Alpha  occ. eigenvalues --   -1.43290  -1.28172  -0.78956  -0.72666  -0.55385
 Alpha  occ. eigenvalues --   -0.52595  -0.42726  -0.38526
 Alpha virt. eigenvalues --    0.19188   0.28621   0.30791   0.34509   0.79686
 Alpha virt. eigenvalues --    0.82520   0.89197   0.94887   0.96584   1.18173
 Alpha virt. eigenvalues --    1.19614   1.26872   1.30262   1.40742   2.74190

 Mulliken charges:
               1
     1  O   -0.773451
     2  H    0.343668
     3  H    0.427286
     4  O   -0.630498
     5  H    0.272209
     6  H    0.360785
 Sum of Mulliken charges =  -0.00000

 Dipole moment (field-independent basis, Debye):
    X=             -1.8815    Y=             -2.1259    Z=              0.0000  Tot=              2.8389
 Quadrupole moment (field-independent basis, Debye-Ang):
   XX=             -9.9750   YY=             -8.7872   ZZ=            -14.8819
   XY=             -1.6575   XZ=              0.0000   YZ=              0.0000

 4DQ=-33.6931931\MP4SDQ=-33.6960634\CCSD=-33.6965345\CCSD(T)=-33.700260
 Normal termination of Gaussian 16 at Sun Dec 10 06:25:33 2023.
