 Gaussian 16, Revision A.03,
 Gaussian 16:  ES64L-G16RevA.03 25-Dec-2016

 ------------------
 #p CCSD(T)/CEP-31G
 ------------------

 ------------
 H2O_H2O_2369
 ------------
 Symbolic Z-matrix:
 Charge =  0 Multiplicity = 1

                         Standard orientation:
 ---------------------------------------------------------------------
 Center     Atomic      Atomic             Coordinates (Angstroms)
 Number     Number       Type             X           Y           Z
 ---------------------------------------------------------------------
      1          8           0        0.054170   -2.011451    0.000000
      2          1           0       -0.746696   -2.580766    0.000000
      3          1           0        0.852442   -2.584398    0.000000
      4          8           0        0.054170    2.088715    0.000000
      5          1           0       -0.227502    3.030080    0.000000
      6          1           0       -0.744966    1.516974    0.000000
 ---------------------------------------------------------------------

 SCF Done:  E(RHF) =  -33.6514850433     A.U. after   11 cycles
 E2 =    -0.2285426970D+00 EUMP2 =    -0.33880027740328D+02
 CCSD(T)
 CCSD(T)= -0.33897041344D+02

 The electronic state is 1-A'.
 Alpha  occ. eigenvalues --   -1.35462  -1.34007  -0.71097  -0.69584  -0.55179
 Alpha  occ. eigenvalues --   -0.53697  -0.50028  -0.48578
 Alpha virt. eigenvalues --    0.19920   0.22096   0.30471   0.32035   0.80386
 Alpha virt. eigenvalues --    0.80429   0.82045   0.85674   0.86633   0.91848
 Alpha virt. eigenvalues --    1.17420   1.19107   1.21800   1.23856   2.57205

 Mulliken charges:
               1
     1  O   -0.739985
     2  H    0.365670
     3  H    0.374625
     4  O   -0.737787
     5  H    0.359914
     6  H    0.377562
 Sum of Mulliken charges =  -0.00000

 Dipole moment (field-independent basis, Debye):
    X=             -2.4764    Y=             -1.8612    Z=              0.0000  Tot=              3.0978
 Quadrupole moment (field-independent basis, Debye-Ang):
   XX=             -9.9344   YY=              3.8259   ZZ=            -14.9896
   XY=             -4.8406   XZ=              0.0000   YZ=              0.0000

 MP4DQ=-33.8913825\MP4SDQ=-33.8934208\CCSD=-33.8944689\CCSD(T)=-33.8970
 Normal termination of Gaussian 16 at Sun Dec 10 07:10:02 2023.
