 Gaussian 16, Revision A.03,
 Gaussian 16:  ES64L-G16RevA.03 25-Dec-2016

 ------------------
 #p CCSD(T)/CEP-31G
 ------------------

 ------------
 H2O_H2O_4137
 ------------
 Symbolic Z-matrix:
 Charge =  0 Multiplicity = 1

                         Standard orientation:
 ---------------------------------------------------------------------
 Center     Atomic      Atomic             Coordinates (Angstroms)
 Number     Number       Type             X           Y           Z
 ---------------------------------------------------------------------
      1          8           0        0.040405   -2.979305    0.000000
      2          1           0       -0.759829   -3.549509    0.000000
      3          1           0        0.839312   -3.551364    0.000000
      4          8           0        0.040405    3.012667    0.000000
      5          1           0        0.203060    3.981713    0.000000
      6          1           0       -0.929016    2.852261    0.000000
 ---------------------------------------------------------------------

 SCF Done:  E(RHF) =  -33.6509239340     A.U. after   11 cycles
 E2 =    -0.2284329050D+00 EUMP2 =    -0.33879356839025D+02
 CCSD(T)
 CCSD(T)= -0.33896382048D+02

 The electronic state is 1-A'.
 Alpha  occ. eigenvalues --   -1.35178  -1.34898  -0.70807  -0.70520  -0.54864
 Alpha  occ. eigenvalues --   -0.54584  -0.49736  -0.49457
 Alpha virt. eigenvalues --    0.20546   0.20830   0.30780   0.31055   0.80817
 Alpha virt. eigenvalues --    0.81093   0.83924   0.84202   0.87004   0.87330
 Alpha virt. eigenvalues --    1.17687   1.17964   1.22152   1.22431   2.57725

 Mulliken charges:
               1
     1  O   -0.738064
     2  H    0.367822
     3  H    0.370242
     4  O   -0.737705
     5  H    0.366917
     6  H    0.370788
 Sum of Mulliken charges =  -0.00000

 Dipole moment (field-independent basis, Debye):
    X=             -1.8638    Y=             -0.7817    Z=              0.0000  Tot=              2.0211
 Quadrupole moment (field-independent basis, Debye-Ang):
   XX=             -9.0980   YY=             16.0482   ZZ=            -14.9873
   XY=             -4.7717   XZ=              0.0000   YZ=              0.0000

 \MP4DQ=-33.8907311\MP4SDQ=-33.8927612\CCSD=-33.893818\CCSD(T)=-33.8963
 Normal termination of Gaussian 16 at Sun Dec 10 06:54:37 2023.
