 Gaussian 16, Revision A.03,
 Gaussian 16:  ES64L-G16RevA.03 25-Dec-2016

 ------------------
 #p CCSD(T)/CEP-31G
 ------------------

 ------------
 H2O_H2O_1128
 ------------
 Symbolic Z-matrix:
 Charge =  0 Multiplicity = 1

                         Standard orientation:
 ---------------------------------------------------------------------
 Center     Atomic      Atomic             Coordinates (Angstroms)
 Number     Number       Type             X           Y           Z
 ---------------------------------------------------------------------
      1          8           0        0.011143   -1.400731    0.000000
      2          1           0       -0.788819   -1.971316    0.000000
      3          1           0        0.810323   -1.972410    0.000000
      4          8           0        0.011143    1.402911    0.000000
      5          1           0        0.684418    2.118596    0.000000
      6          1           0       -0.884210    1.807692    0.000000
 ---------------------------------------------------------------------

 SCF Done:  E(RHF) =  -33.6378133783     A.U. after   11 cycles
 E2 =    -0.2294620835D+00 EUMP2 =    -0.33867275461762D+02
 CCSD(T)
 CCSD(T)= -0.33884684988D+02

 The electronic state is 1-A'.
 Alpha  occ. eigenvalues --   -1.33075  -1.32746  -0.68657  -0.68383  -0.53956
 Alpha  occ. eigenvalues --   -0.49912  -0.47699  -0.46922
 Alpha virt. eigenvalues --    0.21342   0.23405   0.32307   0.32642   0.79625
 Alpha virt. eigenvalues --    0.80860   0.81685   0.87147   1.00368   1.09662
 Alpha virt. eigenvalues --    1.19384   1.20407   1.24285   1.24320   2.58608

 Mulliken charges:
               1
     1  O   -0.705220
     2  H    0.349866
     3  H    0.355153
     4  O   -0.703858
     5  H    0.350517
     6  H    0.353543
 Sum of Mulliken charges =  -0.00000

 Dipole moment (field-independent basis, Debye):
    X=             -0.4908    Y=             -0.0539    Z=              0.0000  Tot=              0.4938
 Quadrupole moment (field-independent basis, Debye-Ang):
   XX=             -8.2800   YY=              2.0369   ZZ=            -14.9872
   XY=             -0.4285   XZ=              0.0000   YZ=              0.0000

 \MP4DQ=-33.8788394\MP4SDQ=-33.880934\CCSD=-33.8820227\CCSD(T)=-33.8846
 Normal termination of Gaussian 16 at Sun Dec 10 06:45:51 2023.
