 Gaussian 16, Revision A.03,
 Gaussian 16:  ES64L-G16RevA.03 25-Dec-2016

 ------------------
 #p CCSD(T)/CEP-31G
 ------------------

 ------------
 H2O_H2O_3100
 ------------
 Symbolic Z-matrix:
 Charge =  0 Multiplicity = 1

                         Standard orientation:
 ---------------------------------------------------------------------
 Center     Atomic      Atomic             Coordinates (Angstroms)
 Number     Number       Type             X           Y           Z
 ---------------------------------------------------------------------
      1          8           0        0.000000   -0.000000    2.452292
      2          1           0        0.000000    0.799571    3.023424
      3          1           0       -0.000000   -0.799571    3.023424
      4          8           0        0.000000   -0.000000   -2.452292
      5          1           0       -0.000000   -0.799571   -3.023424
      6          1           0        0.000000    0.799571   -3.023424
 ---------------------------------------------------------------------

 SCF Done:  E(RHF) =  -33.6492210145     A.U. after   10 cycles
 E2 =    -0.2285250137D+00 EUMP2 =    -0.33877746028220D+02
 CCSD(T)
 CCSD(T)= -0.33894820389D+02

 The electronic state is 1-AG.
 Alpha  occ. eigenvalues --   -1.34599  -1.34598  -0.70223  -0.70222  -0.54216
 Alpha  occ. eigenvalues --   -0.54154  -0.49135  -0.49129
 Alpha virt. eigenvalues --    0.20978   0.21088   0.31248   0.31272   0.81377
 Alpha virt. eigenvalues --    0.81463   0.83864   0.85582   0.87598   0.87797
 Alpha virt. eigenvalues --    1.18195   1.18196   1.22661   1.22691   2.58273

 Mulliken charges:
               1
     1  O   -0.732135
     2  H    0.366067
     3  H    0.366067
     4  O   -0.732135
     5  H    0.366067
     6  H    0.366067
 Sum of Mulliken charges =  -0.00000

 Dipole moment (field-independent basis, Debye):
    X=             -0.0000    Y=              0.0000    Z=             -0.0000  Tot=              0.0000
 Quadrupole moment (field-independent basis, Debye-Ang):
   XX=            -14.9854   YY=             -8.0601   ZZ=             13.9246
   XY=              0.0000   XZ=              0.0000   YZ=             -0.0000

 .8891555\MP4SDQ=-33.8911904\CCSD=-33.8922499\CCSD(T)=-33.8948204\RMSD=
 Normal termination of Gaussian 16 at Sun Dec 10 06:35:43 2023.
