 Gaussian 16, Revision A.03,
 Gaussian 16:  ES64L-G16RevA.03 25-Dec-2016

 ------------------
 #p CCSD(T)/CEP-31G
 ------------------

 -----------
 H2O_H2O_228
 -----------
 Symbolic Z-matrix:
 Charge =  0 Multiplicity = 1

                         Standard orientation:
 ---------------------------------------------------------------------
 Center     Atomic      Atomic             Coordinates (Angstroms)
 Number     Number       Type             X           Y           Z
 ---------------------------------------------------------------------
      1          8           0        0.011143   -0.922082    0.000000
      2          1           0       -0.789020   -1.492383    0.000000
      3          1           0        0.810121   -1.494044    0.000000
      4          8           0        0.011143    0.924254    0.000000
      5          1           0        0.684672    1.639702    0.000000
      6          1           0       -0.884066    1.329353    0.000000
 ---------------------------------------------------------------------

 SCF Done:  E(RHF) =  -33.5574718981     A.U. after   11 cycles
 E2 =    -0.2344398319D+00 EUMP2 =    -0.33791911729994D+02
 CCSD(T)
 CCSD(T)= -0.33808791442D+02

 The electronic state is 1-A'.
 Alpha  occ. eigenvalues --   -1.34269  -1.29688  -0.68950  -0.65963  -0.61567
 Alpha  occ. eigenvalues --   -0.49230  -0.43205  -0.37352
 Alpha virt. eigenvalues --    0.21410   0.27087   0.32452   0.33608   0.79193
 Alpha virt. eigenvalues --    0.81650   0.89986   0.91351   1.06124   1.20256
 Alpha virt. eigenvalues --    1.21736   1.23568   1.27995   1.30859   2.48489

 Mulliken charges:
               1
     1  O   -0.700755
     2  H    0.341801
     3  H    0.357335
     4  O   -0.694033
     5  H    0.350470
     6  H    0.345182
 Sum of Mulliken charges =  -0.00000

 Dipole moment (field-independent basis, Debye):
    X=             -0.4162    Y=             -0.0546    Z=              0.0000  Tot=              0.4198
 Quadrupole moment (field-independent basis, Debye-Ang):
   XX=             -8.4735   YY=             -5.4041   ZZ=            -15.0341
   XY=             -0.2344   XZ=              0.0000   YZ=              0.0000

 MP4DQ=-33.802327\MP4SDQ=-33.8047749\CCSD=-33.8056315\CCSD(T)=-33.80879
 Normal termination of Gaussian 16 at Sun Dec 10 06:29:01 2023.
