 Gaussian 16, Revision A.03,
 Gaussian 16:  ES64L-G16RevA.03 25-Dec-2016

 ------------------
 #p CCSD(T)/CEP-31G
 ------------------

 ------------
 H2O_H2O_2523
 ------------
 Symbolic Z-matrix:
 Charge =  0 Multiplicity = 1

                         Standard orientation:
 ---------------------------------------------------------------------
 Center     Atomic      Atomic             Coordinates (Angstroms)
 Number     Number       Type             X           Y           Z
 ---------------------------------------------------------------------
      1          8           0        0.057114   -2.075354    0.000000
      2          1           0       -0.743771   -2.644642    0.000000
      3          1           0        0.855366   -2.648328    0.000000
      4          8           0        0.057114    2.181847    0.000000
      5          1           0       -0.458575    3.018251    0.000000
      6          1           0       -0.566841    1.422777    0.000000
 ---------------------------------------------------------------------

 SCF Done:  E(RHF) =  -33.6529196400     A.U. after   11 cycles
 E2 =    -0.2284582562D+00 EUMP2 =    -0.33881377896174D+02
 CCSD(T)
 CCSD(T)= -0.33898349435D+02

 The electronic state is 1-A'.
 Alpha  occ. eigenvalues --   -1.35898  -1.34040  -0.71537  -0.69620  -0.55700
 Alpha  occ. eigenvalues --   -0.53787  -0.50485  -0.48626
 Alpha virt. eigenvalues --    0.19558   0.22150   0.30127   0.32147   0.80044
 Alpha virt. eigenvalues --    0.81740   0.81915   0.85464   0.86070   0.89609
 Alpha virt. eigenvalues --    1.17044   1.19139   1.21438   1.24372   2.56793

 Mulliken charges:
               1
     1  O   -0.744745
     2  H    0.368531
     3  H    0.376660
     4  O   -0.744033
     5  H    0.361471
     6  H    0.382116
 Sum of Mulliken charges =   0.00000

 Dipole moment (field-independent basis, Debye):
    X=             -2.6154    Y=             -2.5602    Z=              0.0000  Tot=              3.6599
 Quadrupole moment (field-independent basis, Debye-Ang):
   XX=            -10.1459   YY=              1.6162   ZZ=            -14.9917
   XY=             -5.8372   XZ=              0.0000   YZ=              0.0000

 \MP4DQ=-33.8926999\MP4SDQ=-33.8947358\CCSD=-33.895781\CCSD(T)=-33.8983
 Normal termination of Gaussian 16 at Sun Dec 10 06:25:09 2023.
