 Gaussian 16, Revision A.03,
 Gaussian 16:  ES64L-G16RevA.03 25-Dec-2016

 ------------------
 #p CCSD(T)/CEP-31G
 ------------------

 ---------
 H2O_H2O_1
 ---------
 Symbolic Z-matrix:
 Charge =  0 Multiplicity = 1

                         Standard orientation:
 ---------------------------------------------------------------------
 Center     Atomic      Atomic             Coordinates (Angstroms)
 Number     Number       Type             X           Y           Z
 ---------------------------------------------------------------------
      1          8           0        0.003735   -0.803468    0.000000
      2          1           0       -0.796064   -1.374280    0.000000
      3          1           0        0.803078   -1.374920    0.000000
      4          8           0        0.003735    0.803709    0.000000
      5          1           0        0.764490    1.425608    0.000000
      6          1           0       -0.831270    1.321658    0.000000
 ---------------------------------------------------------------------

 SCF Done:  E(RHF) =  -33.4540660669     A.U. after   11 cycles
 E2 =    -0.2410966133D+00 EUMP2 =    -0.33695162680142D+02
 CCSD(T)
 CCSD(T)= -0.33711167038D+02

 The electronic state is 1-A'.
 Alpha  occ. eigenvalues --   -1.38210  -1.28776  -0.71252  -0.68318  -0.65290
 Alpha  occ. eigenvalues --   -0.52724  -0.42324  -0.29147
 Alpha virt. eigenvalues --    0.20990   0.29218   0.31199   0.33683   0.79968
 Alpha virt. eigenvalues --    0.82215   0.87062   0.88547   1.03121   1.18504
 Alpha virt. eigenvalues --    1.20356   1.25348   1.27658   1.41659   2.53088

 Mulliken charges:
               1
     1  O   -0.680949
     2  H    0.336541
     3  H    0.344359
     4  O   -0.680365
     5  H    0.339501
     6  H    0.340913
 Sum of Mulliken charges =  -0.00000

 Dipole moment (field-independent basis, Debye):
    X=             -0.1366    Y=             -0.0077    Z=              0.0000  Tot=              0.1368
 Quadrupole moment (field-independent basis, Debye-Ang):
   XX=             -8.6493   YY=             -8.5208   ZZ=            -15.0245
   XY=             -0.1026   XZ=              0.0000   YZ=              0.0000

 DQ=-33.7040113\MP4SDQ=-33.7069945\CCSD=-33.7073636\CCSD(T)=-33.711167\
 Normal termination of Gaussian 16 at Sun Dec 10 06:24:45 2023.
