 Gaussian 16, Revision A.03,
 Gaussian 16:  ES64L-G16RevA.03 25-Dec-2016

 ------------------
 #p CCSD(T)/CEP-31G
 ------------------

 ------------
 H2O_H2O_1519
 ------------
 Symbolic Z-matrix:
 Charge =  0 Multiplicity = 1

                         Standard orientation:
 ---------------------------------------------------------------------
 Center     Atomic      Atomic             Coordinates (Angstroms)
 Number     Number       Type             X           Y           Z
 ---------------------------------------------------------------------
      1          8           0        0.054195   -1.559427    0.000000
      2          1           0       -0.747037   -2.128227    0.000000
      3          1           0        0.852099   -2.132886    0.000000
      4          8           0        0.054195    1.636621    0.000000
      5          1           0       -0.226872    2.578167    0.000000
      6          1           0       -0.745309    1.065394    0.000000
 ---------------------------------------------------------------------

 SCF Done:  E(RHF) =  -33.6508496322     A.U. after   11 cycles
 E2 =    -0.2290454611D+00 EUMP2 =    -0.33879895093319D+02
 CCSD(T)
 CCSD(T)= -0.33896990446D+02

 The electronic state is 1-A'.
 Alpha  occ. eigenvalues --   -1.35467  -1.33018  -0.71111  -0.68585  -0.55172
 Alpha  occ. eigenvalues --   -0.52647  -0.50032  -0.47587
 Alpha virt. eigenvalues --    0.19508   0.23874   0.30439   0.33116   0.75940
 Alpha virt. eigenvalues --    0.79079   0.84486   0.86194   0.88332   1.08186
 Alpha virt. eigenvalues --    1.17297   1.20805   1.22035   1.26953   2.55755

 Mulliken charges:
               1
     1  O   -0.739980
     2  H    0.361464
     3  H    0.379489
     4  O   -0.731644
     5  H    0.349452
     6  H    0.381219
 Sum of Mulliken charges =  -0.00000

 Dipole moment (field-independent basis, Debye):
    X=             -2.4317    Y=             -1.9289    Z=              0.0000  Tot=              3.1039
 Quadrupole moment (field-independent basis, Debye-Ang):
   XX=             -9.9297   YY=              0.4561   ZZ=            -14.9919
   XY=             -3.7476   XZ=              0.0000   YZ=              0.0000

 \MP4DQ=-33.8912424\MP4SDQ=-33.8933315\CCSD=-33.8943705\CCSD(T)=-33.896
 Normal termination of Gaussian 16 at Sun Dec 10 06:53:07 2023.
