 Gaussian 16, Revision A.03,
 Gaussian 16:  ES64L-G16RevA.03 25-Dec-2016

 ------------------
 #p CCSD(T)/CEP-31G
 ------------------

 -----------
 H2O_H2O_678
 -----------
 Symbolic Z-matrix:
 Charge =  0 Multiplicity = 1

                         Standard orientation:
 ---------------------------------------------------------------------
 Center     Atomic      Atomic             Coordinates (Angstroms)
 Number     Number       Type             X           Y           Z
 ---------------------------------------------------------------------
      1          8           0        0.011143   -1.161406    0.000000
      2          1           0       -0.788899   -1.731878    0.000000
      3          1           0        0.810243   -1.733198    0.000000
      4          8           0        0.011143    1.163583    0.000000
      5          1           0        0.684519    1.879173    0.000000
      6          1           0       -0.884153    1.568490    0.000000
 ---------------------------------------------------------------------

 SCF Done:  E(RHF) =  -33.6227850193     A.U. after   11 cycles
 E2 =    -0.2305670809D+00 EUMP2 =    -0.33853352100144D+02
 CCSD(T)
 CCSD(T)= -0.33870736089D+02

 The electronic state is 1-A'.
 Alpha  occ. eigenvalues --   -1.32731  -1.31556  -0.68174  -0.67300  -0.55747
 Alpha  occ. eigenvalues --   -0.47530  -0.45924  -0.45424
 Alpha virt. eigenvalues --    0.21513   0.24756   0.32797   0.33103   0.78697
 Alpha virt. eigenvalues --    0.79718   0.89610   0.94727   1.02496   1.12820
 Alpha virt. eigenvalues --    1.19888   1.22385   1.24002   1.26171   2.52875

 Mulliken charges:
               1
     1  O   -0.700428
     2  H    0.345395
     3  H    0.354119
     4  O   -0.696814
     5  H    0.349412
     6  H    0.348316
 Sum of Mulliken charges =  -0.00000

 Dipole moment (field-independent basis, Debye):
    X=             -0.4619    Y=             -0.0514    Z=              0.0000  Tot=              0.4648
 Quadrupole moment (field-independent basis, Debye-Ang):
   XX=             -8.3475   YY=             -1.2089   ZZ=            -15.0044
   XY=             -0.3127   XZ=              0.0000   YZ=              0.0000

 P4DQ=-33.8647428\MP4SDQ=-33.8668775\CCSD=-33.8679572\CCSD(T)=-33.87073
 Normal termination of Gaussian 16 at Sun Dec 10 06:37:24 2023.
