 Gaussian 16, Revision A.03,
 Gaussian 16:  ES64L-G16RevA.03 25-Dec-2016

 ------------------
 #p CCSD(T)/CEP-31G
 ------------------

 -----------
 H2O_H2O_544
 -----------
 Symbolic Z-matrix:
 Charge =  0 Multiplicity = 1

                         Standard orientation:
 ---------------------------------------------------------------------
 Center     Atomic      Atomic             Coordinates (Angstroms)
 Number     Number       Type             X           Y           Z
 ---------------------------------------------------------------------
      1          8           0        0.054249   -1.040966    0.000000
      2          1           0       -0.747778   -1.608644    0.000000
      3          1           0        0.851349   -1.615541    0.000000
      4          8           0        0.054249    1.118008    0.000000
      5          1           0       -0.225500    2.059945    0.000000
      6          1           0       -0.746053    0.547900    0.000000
 ---------------------------------------------------------------------

 SCF Done:  E(RHF) =  -33.6226517643     A.U. after   11 cycles
 E2 =    -0.2314944795D+00 EUMP2 =    -0.33854146243853D+02
 CCSD(T)
 CCSD(T)= -0.33871150100D+02

 The electronic state is 1-A'.
 Alpha  occ. eigenvalues --   -1.36161  -1.30709  -0.71985  -0.68609  -0.53869
 Alpha  occ. eigenvalues --   -0.50684  -0.49194  -0.45080
 Alpha virt. eigenvalues --    0.19476   0.27351   0.30214   0.34833   0.77961
 Alpha virt. eigenvalues --    0.84626   0.89691   0.95313   0.98506   1.14140
 Alpha virt. eigenvalues --    1.18917   1.22035   1.26207   1.31690   2.65979

 Mulliken charges:
               1
     1  O   -0.775548
     2  H    0.358392
     3  H    0.404895
     4  O   -0.684142
     5  H    0.324055
     6  H    0.372347
 Sum of Mulliken charges =   0.00000

 Dipole moment (field-independent basis, Debye):
    X=             -2.2027    Y=             -1.9920    Z=              0.0000  Tot=              2.9699
 Quadrupole moment (field-independent basis, Debye-Ang):
   XX=             -9.9372   YY=             -4.3493   ZZ=            -14.9973
   XY=             -2.4534   XZ=              0.0000   YZ=              0.0000

 MP4DQ=-33.8650041\MP4SDQ=-33.8672791\CCSD=-33.8682315\CCSD(T)=-33.8711
 Normal termination of Gaussian 16 at Sun Dec 10 06:34:55 2023.
