 Gaussian 16, Revision A.03,
 Gaussian 16:  ES64L-G16RevA.03 25-Dec-2016

 ------------------
 #p CCSD(T)/CEP-31G
 ------------------

 ------------
 H2O_H2O_4110
 ------------
 Symbolic Z-matrix:
 Charge =  0 Multiplicity = 1

                         Standard orientation:
 ---------------------------------------------------------------------
 Center     Atomic      Atomic             Coordinates (Angstroms)
 Number     Number       Type             X           Y           Z
 ---------------------------------------------------------------------
      1          8           0        0.034780   -2.971346    0.000000
      2          1           0       -0.765363   -3.541676    0.000000
      3          1           0        0.833778   -3.543280    0.000000
      4          8           0        0.034780    2.994881    0.000000
      5          1           0        0.322383    3.934451    0.000000
      6          1           0       -0.947279    2.962228    0.000000
 ---------------------------------------------------------------------

 SCF Done:  E(RHF) =  -33.6507511176     A.U. after   11 cycles
 E2 =    -0.2284405092D+00 EUMP2 =    -0.33879191626743D+02
 CCSD(T)
 CCSD(T)= -0.33896221825D+02

 The electronic state is 1-A'.
 Alpha  occ. eigenvalues --   -1.35099  -1.34899  -0.70727  -0.70522  -0.54775
 Alpha  occ. eigenvalues --   -0.54576  -0.49654  -0.49456
 Alpha virt. eigenvalues --    0.20615   0.20818   0.30849   0.31044   0.80899
 Alpha virt. eigenvalues --    0.81095   0.84022   0.84223   0.87096   0.87332
 Alpha virt. eigenvalues --    1.17759   1.17956   1.22226   1.22424   2.57801

 Mulliken charges:
               1
     1  O   -0.737448
     2  H    0.367664
     3  H    0.369784
     4  O   -0.737157
     5  H    0.366965
     6  H    0.370192
 Sum of Mulliken charges =   0.00000

 Dipole moment (field-independent basis, Debye):
    X=             -1.6043    Y=             -0.5515    Z=              0.0000  Tot=              1.6964
 Quadrupole moment (field-independent basis, Debye-Ang):
   XX=             -8.8242   YY=             17.0579   ZZ=            -14.9871
   XY=             -3.9768   XZ=              0.0000   YZ=              0.0000

 MP4DQ=-33.8905696\MP4SDQ=-33.8926001\CCSD=-33.8936572\CCSD(T)=-33.8962
 Normal termination of Gaussian 16 at Sun Dec 10 06:54:08 2023.
