 Gaussian 16, Revision A.03,
 Gaussian 16:  ES64L-G16RevA.03 25-Dec-2016

 ------------------
 #p CCSD(T)/CEP-31G
 ------------------

 ------------
 H2O_H2O_3538
 ------------
 Symbolic Z-matrix:
 Charge =  0 Multiplicity = 1

                         Standard orientation:
 ---------------------------------------------------------------------
 Center     Atomic      Atomic             Coordinates (Angstroms)
 Number     Number       Type             X           Y           Z
 ---------------------------------------------------------------------
      1          8           0        0.042967   -2.657254    0.000000
      2          1           0       -0.757392   -3.227281    0.000000
      3          1           0        0.841748   -3.229489    0.000000
      4          8           0        0.042967    2.696047    0.000000
      5          1           0        0.142111    3.673634    0.000000
      6          1           0       -0.913936    2.472792    0.000000
 ---------------------------------------------------------------------

 SCF Done:  E(RHF) =  -33.6506960159     A.U. after   11 cycles
 E2 =    -0.2284558663D+00 EUMP2 =    -0.33879151882159D+02
 CCSD(T)
 CCSD(T)= -0.33896183776D+02

 The electronic state is 1-A'.
 Alpha  occ. eigenvalues --   -1.35126  -1.34715  -0.70754  -0.70330  -0.54799
 Alpha  occ. eigenvalues --   -0.54386  -0.49680  -0.49271
 Alpha virt. eigenvalues --    0.20582   0.21007   0.30820   0.31222   0.80873
 Alpha virt. eigenvalues --    0.81276   0.83927   0.84473   0.87070   0.87576
 Alpha virt. eigenvalues --    1.17730   1.18136   1.22197   1.22607   2.57772

 Mulliken charges:
               1
     1  O   -0.737302
     2  H    0.366896
     3  H    0.370406
     4  O   -0.736642
     5  H    0.365504
     6  H    0.371137
 Sum of Mulliken charges =  -0.00000

 Dipole moment (field-independent basis, Debye):
    X=             -1.9787    Y=             -0.9131    Z=              0.0000  Tot=              2.1793
 Quadrupole moment (field-independent basis, Debye-Ang):
   XX=             -9.2381   YY=             12.5596   ZZ=            -14.9872
   XY=             -4.5256   XZ=              0.0000   YZ=              0.0000

 MP4DQ=-33.8905309\MP4SDQ=-33.8925617\CCSD=-33.8936184\CCSD(T)=-33.8961
 Normal termination of Gaussian 16 at Sun Dec 10 06:43:35 2023.
