 Gaussian 16, Revision A.03,
 Gaussian 16:  ES64L-G16RevA.03 25-Dec-2016

 ------------------
 #p CCSD(T)/CEP-31G
 ------------------

 ------------
 H2O_H2O_3419
 ------------
 Symbolic Z-matrix:
 Charge =  0 Multiplicity = 1

                         Standard orientation:
 ---------------------------------------------------------------------
 Center     Atomic      Atomic             Coordinates (Angstroms)
 Number     Number       Type             X           Y           Z
 ---------------------------------------------------------------------
      1          8           0        0.054151   -2.569852    0.000000
      2          1           0       -0.746438   -3.139557    0.000000
      3          1           0        0.852702   -3.142411    0.000000
      4          8           0        0.054151    2.647169    0.000000
      5          1           0       -0.227978    3.588397    0.000000
      6          1           0       -0.744707    2.075040    0.000000
 ---------------------------------------------------------------------

 SCF Done:  E(RHF) =  -33.6515702986     A.U. after   11 cycles
 E2 =    -0.2284189810D+00 EUMP2 =    -0.33879989279593D+02
 CCSD(T)
 CCSD(T)= -0.33896995791D+02

 The electronic state is 1-A'.
 Alpha  occ. eigenvalues --   -1.35484  -1.34620  -0.71116  -0.70229  -0.55208
 Alpha  occ. eigenvalues --   -0.54331  -0.50052  -0.49189
 Alpha virt. eigenvalues --    0.20259   0.21178   0.30513   0.31386   0.80502
 Alpha virt. eigenvalues --    0.81347   0.83465   0.84472   0.86647   0.87651
 Alpha virt. eigenvalues --    1.17409   1.18268   1.21866   1.22751   2.57423

 Mulliken charges:
               1
     1  O   -0.740400
     2  H    0.367904
     3  H    0.372501
     4  O   -0.739644
     5  H    0.365160
     6  H    0.374478
 Sum of Mulliken charges =  -0.00000

 Dipole moment (field-independent basis, Debye):
    X=             -2.4928    Y=             -1.8233    Z=              0.0000  Tot=              3.0884
 Quadrupole moment (field-independent basis, Debye-Ang):
   XX=             -9.9397   YY=              7.8354   ZZ=            -14.9887
   XY=             -6.2068   XZ=              0.0000   YZ=              0.0000

 MP4DQ=-33.8913495\MP4SDQ=-33.8933782\CCSD=-33.8944328\CCSD(T)=-33.8969
 Normal termination of Gaussian 16 at Sun Dec 10 06:41:24 2023.
