 Gaussian 16, Revision A.03,
 Gaussian 16:  ES64L-G16RevA.03 25-Dec-2016

 ------------------
 #p CCSD(T)/CEP-31G
 ------------------

 -----------
 H2O_H2O_828
 -----------
 Symbolic Z-matrix:
 Charge =  0 Multiplicity = 1

                         Standard orientation:
 ---------------------------------------------------------------------
 Center     Atomic      Atomic             Coordinates (Angstroms)
 Number     Number       Type             X           Y           Z
 ---------------------------------------------------------------------
      1          8           0        0.011143   -1.241181    0.000000
      2          1           0       -0.788869   -1.811696    0.000000
      3          1           0        0.810273   -1.812930    0.000000
      4          8           0        0.011143    1.243359    0.000000
      5          1           0        0.684481    1.958985    0.000000
      6          1           0       -0.884175    1.648219    0.000000
 ---------------------------------------------------------------------

 SCF Done:  E(RHF) =  -33.6299722847     A.U. after   11 cycles
 E2 =    -0.2300683295D+00 EUMP2 =    -0.33860040614128D+02
 CCSD(T)
 CCSD(T)= -0.33877466155D+02

 The electronic state is 1-A'.
 Alpha  occ. eigenvalues --   -1.32780  -1.32018  -0.68293  -0.67708  -0.54871
 Alpha  occ. eigenvalues --   -0.47583  -0.47505  -0.46003
 Alpha virt. eigenvalues --    0.21472   0.24232   0.32660   0.32943   0.79232
 Alpha virt. eigenvalues --    0.79485   0.88905   0.89591   1.04318   1.10039
 Alpha virt. eigenvalues --    1.19702   1.21701   1.24221   1.25433   2.55268

 Mulliken charges:
               1
     1  O   -0.701159
     2  H    0.346612
     3  H    0.353941
     4  O   -0.698499
     5  H    0.349189
     6  H    0.349915
 Sum of Mulliken charges =   0.00000

 Dipole moment (field-independent basis, Debye):
    X=             -0.4739    Y=             -0.0523    Z=              0.0000  Tot=              0.4768
 Quadrupole moment (field-independent basis, Debye-Ang):
   XX=             -8.3230   YY=             -0.0624   ZZ=            -14.9964
   XY=             -0.3511   XZ=              0.0000   YZ=              0.0000

 MP4DQ=-33.8715366\MP4SDQ=-33.8736481\CCSD=-33.8747406\CCSD(T)=-33.8774
 Normal termination of Gaussian 16 at Sun Dec 10 06:40:14 2023.
