 Gaussian 16, Revision A.03,
 Gaussian 16:  ES64L-G16RevA.03 25-Dec-2016

 ------------------
 #p CCSD(T)/CEP-31G
 ------------------

 ------------
 H2O_H2O_3638
 ------------
 Symbolic Z-matrix:
 Charge =  0 Multiplicity = 1

                         Standard orientation:
 ---------------------------------------------------------------------
 Center     Atomic      Atomic             Coordinates (Angstroms)
 Number     Number       Type             X           Y           Z
 ---------------------------------------------------------------------
      1          8           0        0.042966   -2.710436    0.000000
      2          1           0       -0.757377   -3.280485    0.000000
      3          1           0        0.841763   -3.282650    0.000000
      4          8           0        0.042966    2.749231    0.000000
      5          1           0        0.142084    3.726821    0.000000
      6          1           0       -0.913931    2.525951    0.000000
 ---------------------------------------------------------------------

 SCF Done:  E(RHF) =  -33.6507585525     A.U. after   11 cycles
 E2 =    -0.2284503675D+00 EUMP2 =    -0.33879208920036D+02
 CCSD(T)
 CCSD(T)= -0.33896238968D+02

 The electronic state is 1-A'.
 Alpha  occ. eigenvalues --   -1.35143  -1.34749  -0.70772  -0.70366  -0.54820
 Alpha  occ. eigenvalues --   -0.54424  -0.49699  -0.49306
 Alpha virt. eigenvalues --    0.20569   0.20975   0.30806   0.31193   0.80854
 Alpha virt. eigenvalues --    0.81241   0.83935   0.84405   0.87049   0.87525
 Alpha virt. eigenvalues --    1.17715   1.18105   1.22182   1.22575   2.57756

 Mulliken charges:
               1
     1  O   -0.737513
     2  H    0.367095
     3  H    0.370419
     4  O   -0.736912
     5  H    0.365777
     6  H    0.371135
 Sum of Mulliken charges =   0.00000

 Dipole moment (field-independent basis, Debye):
    X=             -1.9794    Y=             -0.9123    Z=              0.0000  Tot=              2.1795
 Quadrupole moment (field-independent basis, Debye-Ang):
   XX=             -9.2378   YY=             13.0348   ZZ=            -14.9873
   XY=             -4.6293   XZ=              0.0000   YZ=              0.0000

 \MP4DQ=-33.8905866\MP4SDQ=-33.8926173\CCSD=-33.893674\CCSD(T)=-33.8962
 Normal termination of Gaussian 16 at Sun Dec 10 06:45:24 2023.
