 Gaussian 16, Revision A.03,
 Gaussian 16:  ES64L-G16RevA.03 25-Dec-2016

 ------------------
 #p CCSD(T)/CEP-31G
 ------------------

 ------------
 H2O_H2O_3006
 ------------
 Symbolic Z-matrix:
 Charge =  0 Multiplicity = 1

                         Standard orientation:
 ---------------------------------------------------------------------
 Center     Atomic      Atomic             Coordinates (Angstroms)
 Number     Number       Type             X           Y           Z
 ---------------------------------------------------------------------
      1          8           0        0.021860   -2.394404    0.000000
      2          1           0       -0.778159   -2.964909    0.000000
      3          1           0        0.820982   -2.966163    0.000000
      4          8           0        0.021860    2.403065    0.000000
      5          1           0        0.542658    3.236296    0.000000
      6          1           0       -0.935236    2.625490    0.000000
 ---------------------------------------------------------------------

 SCF Done:  E(RHF) =  -33.6493214766     A.U. after   11 cycles
 E2 =    -0.2285289524D+00 EUMP2 =    -0.33877850429080D+02
 CCSD(T)
 CCSD(T)= -0.33894922104D+02

 The electronic state is 1-A'.
 Alpha  occ. eigenvalues --   -1.34659  -1.34544  -0.70284  -0.70164  -0.54263
 Alpha  occ. eigenvalues --   -0.54126  -0.49194  -0.49080
 Alpha virt. eigenvalues --    0.20937   0.21133   0.31206   0.31315   0.81332
 Alpha virt. eigenvalues --    0.81495   0.83625   0.85667   0.87600   0.87936
 Alpha virt. eigenvalues --    1.18139   1.18252   1.22619   1.22733   2.58217

 Mulliken charges:
               1
     1  O   -0.732515
     2  H    0.365037
     3  H    0.367480
     4  O   -0.732170
     5  H    0.364466
     6  H    0.367702
 Sum of Mulliken charges =   0.00000

 Dipole moment (field-independent basis, Debye):
    X=             -1.0045    Y=             -0.2052    Z=              0.0000  Tot=              1.0252
 Quadrupole moment (field-independent basis, Debye-Ang):
   XX=             -8.3672   YY=             12.6544   ZZ=            -14.9856
   XY=             -1.8189   XZ=              0.0000   YZ=              0.0000

 \MP4DQ=-33.8892578\MP4SDQ=-33.8912926\CCSD=-33.8923516\CCSD(T)=-33.894
 Normal termination of Gaussian 16 at Sun Dec 10 06:34:04 2023.
