 Gaussian 16, Revision A.03,
 Gaussian 16:  ES64L-G16RevA.03 25-Dec-2016

 ------------------
 #p CCSD(T)/CEP-31G
 ------------------

 ------------
 H2O_H2O_2581
 ------------
 Symbolic Z-matrix:
 Charge =  0 Multiplicity = 1

                         Standard orientation:
 ---------------------------------------------------------------------
 Center     Atomic      Atomic             Coordinates (Angstroms)
 Number     Number       Type             X           Y           Z
 ---------------------------------------------------------------------
      1          8           0        0.021860   -2.168376    0.000000
      2          1           0       -0.778205   -2.738815    0.000000
      3          1           0        0.820936   -2.740200    0.000000
      4          8           0        0.021860    2.177033    0.000000
      5          1           0        0.542727    3.010222    0.000000
      6          1           0       -0.935218    2.399536    0.000000
 ---------------------------------------------------------------------

 SCF Done:  E(RHF) =  -33.6484980267     A.U. after   11 cycles
 E2 =    -0.2285955686D+00 EUMP2 =    -0.33877093595225D+02
 CCSD(T)
 CCSD(T)= -0.33894189644D+02

 The electronic state is 1-A'.
 Alpha  occ. eigenvalues --   -1.34469  -1.34328  -0.70092  -0.69945  -0.54066
 Alpha  occ. eigenvalues --   -0.53813  -0.48994  -0.48852
 Alpha virt. eigenvalues --    0.20981   0.21401   0.31349   0.31487   0.81400
 Alpha virt. eigenvalues --    0.81850   0.82002   0.86794   0.87983   0.89389
 Alpha virt. eigenvalues --    1.18296   1.18434   1.22780   1.22934   2.58320

 Mulliken charges:
               1
     1  O   -0.729723
     2  H    0.363270
     3  H    0.366465
     4  O   -0.729189
     5  H    0.362542
     6  H    0.366634
 Sum of Mulliken charges =   0.00000

 Dipole moment (field-independent basis, Debye):
    X=             -1.0017    Y=             -0.2069    Z=              0.0000  Tot=              1.0228
 Quadrupole moment (field-independent basis, Debye-Ang):
   XX=             -8.3789   YY=             10.2939   ZZ=            -14.9850
   XY=             -1.5998   XZ=              0.0000   YZ=              0.0000

 MP4DQ=-33.8885162\MP4SDQ=-33.8905552\CCSD=-33.8916142\CCSD(T)=-33.8941
 Normal termination of Gaussian 16 at Sun Dec 10 06:26:14 2023.
