 Gaussian 16, Revision A.03,
 Gaussian 16:  ES64L-G16RevA.03 25-Dec-2016

 ------------------
 #p CCSD(T)/CEP-31G
 ------------------

 ----------
 H2O_H2O_32
 ----------
 Symbolic Z-matrix:
 Charge =  0 Multiplicity = 1

                         Standard orientation:
 ---------------------------------------------------------------------
 Center     Atomic      Atomic             Coordinates (Angstroms)
 Number     Number       Type             X           Y           Z
 ---------------------------------------------------------------------
      1          8           0        0.025276   -0.810568    0.000000
      2          1           0       -0.775813   -1.379569    0.000000
      3          1           0        0.823323   -1.383828    0.000000
      4          8           0        0.025276    0.822214    0.000000
      5          1           0        0.492089    1.686847    0.000000
      6          1           0       -0.944017    0.983387    0.000000
 ---------------------------------------------------------------------

 SCF Done:  E(RHF) =  -33.4768648714     A.U. after   12 cycles
 E2 =    -0.2391318449D+00 EUMP2 =    -0.33715996716286D+02
 CCSD(T)
 CCSD(T)= -0.33732339932D+02

 The electronic state is 1-A'.
 Alpha  occ. eigenvalues --   -1.38031  -1.28813  -0.72072  -0.68478  -0.62930
 Alpha  occ. eigenvalues --   -0.52445  -0.42497  -0.31730
 Alpha virt. eigenvalues --    0.20704   0.28698   0.31482   0.33621   0.82006
 Alpha virt. eigenvalues --    0.82756   0.88789   0.89620   1.00204   1.19331
 Alpha virt. eigenvalues --    1.22369   1.23495   1.27115   1.39950   2.53990

 Mulliken charges:
               1
     1  O   -0.704479
     2  H    0.327813
     3  H    0.372000
     4  O   -0.672528
     5  H    0.334431
     6  H    0.342764
 Sum of Mulliken charges =   0.00000

 Dipole moment (field-independent basis, Debye):
    X=             -0.9121    Y=             -0.3403    Z=              0.0000  Tot=              0.9735
 Quadrupole moment (field-independent basis, Debye-Ang):
   XX=             -8.8642   YY=             -8.0398   ZZ=            -14.9930
   XY=             -0.6344   XZ=              0.0000   YZ=              0.0000

 4DQ=-33.7253605\MP4SDQ=-33.7282189\CCSD=-33.7287122\CCSD(T)=-33.732339
 Normal termination of Gaussian 16 at Sun Dec 10 06:25:19 2023.
