 Gaussian 16, Revision A.03,
 Gaussian 16:  ES64L-G16RevA.03 25-Dec-2016

 ------------------
 #p CCSD(T)/CEP-31G
 ------------------

 ------------
 H2O_H2O_2663
 ------------
 Symbolic Z-matrix:
 Charge =  0 Multiplicity = 1

                         Standard orientation:
 ---------------------------------------------------------------------
 Center     Atomic      Atomic             Coordinates (Angstroms)
 Number     Number       Type             X           Y           Z
 ---------------------------------------------------------------------
      1          8           0        0.042972   -2.191910    0.000000
      2          1           0       -0.757552   -2.761704    0.000000
      3          1           0        0.841588   -2.764377    0.000000
      4          8           0        0.042972    2.230678    0.000000
      5          1           0        0.142401    3.208236    0.000000
      6          1           0       -0.913996    2.007701    0.000000
 ---------------------------------------------------------------------

 SCF Done:  E(RHF) =  -33.6498879385     A.U. after   11 cycles
 E2 =    -0.2285434166D+00 EUMP2 =    -0.33878431355052D+02
 CCSD(T)
 CCSD(T)= -0.33895487672D+02

 The electronic state is 1-A'.
 Alpha  occ. eigenvalues --   -1.34926  -1.34315  -0.70554  -0.69916  -0.54556
 Alpha  occ. eigenvalues --   -0.53931  -0.49470  -0.48861
 Alpha virt. eigenvalues --    0.20624   0.21465   0.30966   0.31569   0.81036
 Alpha virt. eigenvalues --    0.81725   0.82187   0.85733   0.87343   0.89547
 Alpha virt. eigenvalues --    1.17896   1.18515   1.22356   1.22998   2.57958

 Mulliken charges:
               1
     1  O   -0.734583
     2  H    0.364345
     3  H    0.370275
     4  O   -0.732984
     5  H    0.361952
     6  H    0.370996
 Sum of Mulliken charges =  -0.00000

 Dipole moment (field-independent basis, Debye):
    X=             -1.9696    Y=             -0.9244    Z=              0.0000  Tot=              2.1757
 Quadrupole moment (field-independent basis, Debye-Ang):
   XX=             -9.2437   YY=              8.3773   ZZ=            -14.9868
   XY=             -3.6250   XZ=              0.0000   YZ=              0.0000

 \MP4DQ=-33.8898256\MP4SDQ=-33.8918608\CCSD=-33.8929166\CCSD(T)=-33.895
 Normal termination of Gaussian 16 at Sun Dec 10 06:27:46 2023.
