 Gaussian 16, Revision A.03,
 Gaussian 16:  ES64L-G16RevA.03 25-Dec-2016

 ------------------
 #p CCSD(T)/CEP-31G
 ------------------

 ------------
 H2O_H2O_4301
 ------------
 Symbolic Z-matrix:
 Charge =  0 Multiplicity = 1

                         Standard orientation:
 ---------------------------------------------------------------------
 Center     Atomic      Atomic             Coordinates (Angstroms)
 Number     Number       Type             X           Y           Z
 ---------------------------------------------------------------------
      1          8           0        0.003735   -3.090363    0.000000
      2          1           0       -0.795895   -3.661412    0.000000
      3          1           0        0.803247   -3.661578    0.000000
      4          8           0        0.003735    3.090607    0.000000
      5          1           0        0.764306    3.712731    0.000000
      6          1           0       -0.831424    3.608308    0.000000
 ---------------------------------------------------------------------

 SCF Done:  E(RHF) =  -33.6505156713     A.U. after   10 cycles
 E2 =    -0.2284459690D+00 EUMP2 =    -0.33878961640243D+02
 CCSD(T)
 CCSD(T)= -0.33895998594D+02

 The electronic state is 1-A'.
 Alpha  occ. eigenvalues --   -1.34965  -1.34963  -0.70592  -0.70590  -0.54629
 Alpha  occ. eigenvalues --   -0.54626  -0.49517  -0.49515
 Alpha virt. eigenvalues --    0.20736   0.20739   0.30967   0.30969   0.81037
 Alpha virt. eigenvalues --    0.81039   0.84173   0.84202   0.87248   0.87252
 Alpha virt. eigenvalues --    1.17883   1.17885   1.22351   1.22353   2.57930

 Mulliken charges:
               1
     1  O   -0.736592
     2  H    0.368192
     3  H    0.368400
     4  O   -0.736589
     5  H    0.368150
     6  H    0.368439
 Sum of Mulliken charges =   0.00000

 Dipole moment (field-independent basis, Debye):
    X=             -0.1724    Y=             -0.0057    Z=              0.0000  Tot=              0.1725
 Quadrupole moment (field-independent basis, Debye-Ang):
   XX=             -8.0488   YY=             20.7536   ZZ=            -14.9866
   XY=             -0.4173   XZ=              0.0000   YZ=              0.0000

 DQ=-33.8903445\MP4SDQ=-33.8923756\CCSD=-33.8934334\CCSD(T)=-33.8959986
 Normal termination of Gaussian 16 at Sun Dec 10 06:57:29 2023.
