 Gaussian 16, Revision A.03,
 Gaussian 16:  ES64L-G16RevA.03 25-Dec-2016

 ------------------
 #p CCSD(T)/CEP-31G
 ------------------

 ------------
 H2O_H2O_2495
 ------------
 Symbolic Z-matrix:
 Charge =  0 Multiplicity = 1

                         Standard orientation:
 ---------------------------------------------------------------------
 Center     Atomic      Atomic             Coordinates (Angstroms)
 Number     Number       Type             X           Y           Z
 ---------------------------------------------------------------------
      1          8           0        0.055262   -2.074048    0.000000
      2          1           0       -0.745589   -2.643384    0.000000
      3          1           0        0.853549   -2.646973    0.000000
      4          8           0        0.055262    2.158463    0.000000
      5          1           0       -0.287399    3.079380    0.000000
      6          1           0       -0.704753    1.535660    0.000000
 ---------------------------------------------------------------------

 SCF Done:  E(RHF) =  -33.6518487871     A.U. after   11 cycles
 E2 =    -0.2284999820D+00 EUMP2 =    -0.33880348769130D+02
 CCSD(T)
 CCSD(T)= -0.33897350155D+02

 The electronic state is 1-A'.
 Alpha  occ. eigenvalues --   -1.35571  -1.34085  -0.71206  -0.69666  -0.55310
 Alpha  occ. eigenvalues --   -0.53794  -0.50142  -0.48660
 Alpha virt. eigenvalues --    0.19885   0.21990   0.30393   0.31981   0.80366
 Alpha virt. eigenvalues --    0.81265   0.81911   0.85536   0.86483   0.90414
 Alpha virt. eigenvalues --    1.17329   1.18995   1.21718   1.23773   2.57213

 Mulliken charges:
               1
     1  O   -0.741246
     2  H    0.366604
     3  H    0.374908
     4  O   -0.739514
     5  H    0.360917
     6  H    0.378331
 Sum of Mulliken charges =   0.00000

 Dipole moment (field-independent basis, Debye):
    X=             -2.5298    Y=             -2.0267    Z=              0.0000  Tot=              3.2416
 Quadrupole moment (field-independent basis, Debye-Ang):
   XX=            -10.0117   YY=              3.6558   ZZ=            -14.9900
   XY=             -5.2284   XZ=              0.0000   YZ=              0.0000

 \MP4DQ=-33.8916968\MP4SDQ=-33.8937322\CCSD=-33.8947807\CCSD(T)=-33.897
 Normal termination of Gaussian 16 at Sun Dec 10 07:12:17 2023.
