 Gaussian 16, Revision A.03,
 Gaussian 16:  ES64L-G16RevA.03 25-Dec-2016

 ------------------
 #p CCSD(T)/CEP-31G
 ------------------

 -----------
 H2O_H2O_129
 -----------
 Symbolic Z-matrix:
 Charge =  0 Multiplicity = 1

                         Standard orientation:
 ---------------------------------------------------------------------
 Center     Atomic      Atomic             Coordinates (Angstroms)
 Number     Number       Type             X           Y           Z
 ---------------------------------------------------------------------
      1          8           0        0.014785   -0.867987    0.000000
      2          1           0       -0.785621   -1.437949    0.000000
      3          1           0        0.813520   -1.440288    0.000000
      4          8           0        0.014785    0.871836    0.000000
      5          1           0        0.640401    1.629537    0.000000
      6          1           0       -0.904857    1.217909    0.000000
 ---------------------------------------------------------------------

 SCF Done:  E(RHF) =  -33.5230511276     A.U. after   11 cycles
 E2 =    -0.2364768087D+00 EUMP2 =    -0.33759527936267D+02
 CCSD(T)
 CCSD(T)= -0.33776154897D+02

 The electronic state is 1-A'.
 Alpha  occ. eigenvalues --   -1.35593  -1.29232  -0.69876  -0.66278  -0.63244
 Alpha  occ. eigenvalues --   -0.50439  -0.42747  -0.34453
 Alpha virt. eigenvalues --    0.21212   0.27886   0.32017   0.33667   0.80191
 Alpha virt. eigenvalues --    0.82029   0.89528   0.89696   1.04791   1.19952
 Alpha virt. eigenvalues --    1.21610   1.24008   1.27892   1.35413   2.50138

 Mulliken charges:
               1
     1  O   -0.700784
     2  H    0.337366
     3  H    0.360975
     4  O   -0.688837
     5  H    0.347686
     6  H    0.343594
 Sum of Mulliken charges =   0.00000

 Dipole moment (field-independent basis, Debye):
    X=             -0.5418    Y=             -0.1043    Z=              0.0000  Tot=              0.5518
 Quadrupole moment (field-independent basis, Debye-Ang):
   XX=             -8.5851   YY=             -6.6231   ZZ=            -15.0292
   XY=             -0.3277   XZ=              0.0000   YZ=              0.0000

 MP4DQ=-33.7694591\MP4SDQ=-33.772091\CCSD=-33.7728011\CCSD(T)=-33.77615
 Normal termination of Gaussian 16 at Sun Dec 10 06:27:09 2023.
