 Gaussian 16, Revision A.03,
 Gaussian 16:  ES64L-G16RevA.03 25-Dec-2016

 ------------------
 #p CCSD(T)/CEP-31G
 ------------------

 ------------
 H2O_H2O_4835
 ------------
 Symbolic Z-matrix:
 Charge =  0 Multiplicity = 1

                         Standard orientation:
 ---------------------------------------------------------------------
 Center     Atomic      Atomic             Coordinates (Angstroms)
 Number     Number       Type             X           Y           Z
 ---------------------------------------------------------------------
      1          8           0        0.034779   -3.356923    0.000000
      2          1           0       -0.765299   -3.927345    0.000000
      3          1           0        0.833842   -3.928766    0.000000
      4          8           0        0.034779    3.380466    0.000000
      5          1           0        0.322274    4.320068    0.000000
      6          1           0       -0.947277    3.347700    0.000000
 ---------------------------------------------------------------------

 SCF Done:  E(RHF) =  -33.6510780219     A.U. after   11 cycles
 E2 =    -0.2284178350D+00 EUMP2 =    -0.33879495856868D+02
 CCSD(T)
 CCSD(T)= -0.33896516705D+02

 The electronic state is 1-A'.
 Alpha  occ. eigenvalues --   -1.35208  -1.35053  -0.70837  -0.70679  -0.54903
 Alpha  occ. eigenvalues --   -0.54748  -0.49769  -0.49614
 Alpha virt. eigenvalues --    0.20524   0.20681   0.30759   0.30911   0.80784
 Alpha virt. eigenvalues --    0.80938   0.83877   0.84030   0.86964   0.87140
 Alpha virt. eigenvalues --    1.17663   1.17817   1.22127   1.22281   2.57698

 Mulliken charges:
               1
     1  O   -0.738585
     2  H    0.368538
     3  H    0.370047
     4  O   -0.738420
     5  H    0.368028
     6  H    0.370392
 Sum of Mulliken charges =  -0.00000

 Dipole moment (field-independent basis, Debye):
    X=             -1.6062    Y=             -0.5497    Z=              0.0000  Tot=              1.6977
 Quadrupole moment (field-independent basis, Debye-Ang):
   XX=             -8.8211   YY=             20.7562   ZZ=            -14.9874
   XY=             -4.5886   XZ=              0.0000   YZ=              0.0000

 MP4DQ=-33.890867\MP4SDQ=-33.8928966\CCSD=-33.8939534\CCSD(T)=-33.89651
 Normal termination of Gaussian 16 at Sun Dec 10 07:08:47 2023.
