 Gaussian 16, Revision A.03,
 Gaussian 16:  ES64L-G16RevA.03 25-Dec-2016

 ------------------
 #p CCSD(T)/CEP-31G
 ------------------

 ------------
 H2O_H2O_1046
 ------------
 Symbolic Z-matrix:
 Charge =  0 Multiplicity = 1

                         Standard orientation:
 ---------------------------------------------------------------------
 Center     Atomic      Atomic             Coordinates (Angstroms)
 Number     Number       Type             X           Y           Z
 ---------------------------------------------------------------------
      1          8           0        0.056180   -1.299012    0.000000
      2          1           0       -0.745433   -1.867274    0.000000
      3          1           0        0.853698   -1.873008    0.000000
      4          8           0        0.056180    1.390552    0.000000
      5          1           0       -0.344775    2.287626    0.000000
      6          1           0       -0.662375    0.720339    0.000000
 ---------------------------------------------------------------------

 SCF Done:  E(RHF) =  -33.6498229220     A.U. after   11 cycles
 E2 =    -0.2297416512D+00 EUMP2 =    -0.33879564573277D+02
 CCSD(T)
 CCSD(T)= -0.33896614908D+02

 The electronic state is 1-A'.
 Alpha  occ. eigenvalues --   -1.36073  -1.31920  -0.71737  -0.67973  -0.55449
 Alpha  occ. eigenvalues --   -0.51656  -0.50666  -0.46484
 Alpha virt. eigenvalues --    0.19206   0.25763   0.30027   0.34871   0.77408
 Alpha virt. eigenvalues --    0.79889   0.87188   0.87732   0.93787   1.14059
 Alpha virt. eigenvalues --    1.18715   1.19936   1.22623   1.29936   2.60888

 Mulliken charges:
               1
     1  O   -0.757065
     2  H    0.362709
     3  H    0.394307
     4  O   -0.727324
     5  H    0.338781
     6  H    0.388592
 Sum of Mulliken charges =  -0.00000

 Dipole moment (field-independent basis, Debye):
    X=             -2.4479    Y=             -2.3571    Z=              0.0000  Tot=              3.3982
 Quadrupole moment (field-independent basis, Debye-Ang):
   XX=            -10.0532   YY=             -2.4296   ZZ=            -15.0000
   XY=             -3.4896   XZ=              0.0000   YZ=              0.0000

 6\MP4DQ=-33.8907351\MP4SDQ=-33.8928832\CCSD=-33.8938997\CCSD(T)=-33.89
 Normal termination of Gaussian 16 at Sun Dec 10 06:44:19 2023.
