 Gaussian 16, Revision A.03,
 Gaussian 16:  ES64L-G16RevA.03 25-Dec-2016

 ------------------
 #p CCSD(T)/CEP-31G
 ------------------

 -----------
 H2O_H2O_131
 -----------
 Symbolic Z-matrix:
 Charge =  0 Multiplicity = 1

                         Standard orientation:
 ---------------------------------------------------------------------
 Center     Atomic      Atomic             Coordinates (Angstroms)
 Number     Number       Type             X           Y           Z
 ---------------------------------------------------------------------
      1          8           0        0.021866   -0.865406    0.000000
      2          1           0       -0.778939   -1.434807    0.000000
      3          1           0        0.820199   -1.438266    0.000000
      4          8           0        0.021866    0.874006    0.000000
      5          1           0        0.543813    1.706519    0.000000
      6          1           0       -0.934923    1.097752    0.000000
 ---------------------------------------------------------------------

 SCF Done:  E(RHF) =  -33.5255263173     A.U. after   11 cycles
 E2 =    -0.2362742614D+00 EUMP2 =    -0.33761800578711D+02
 CCSD(T)
 CCSD(T)= -0.33778484585D+02

 The electronic state is 1-A'.
 Alpha  occ. eigenvalues --   -1.35796  -1.29258  -0.70277  -0.66808  -0.62370
 Alpha  occ. eigenvalues --   -0.50587  -0.42833  -0.35020
 Alpha virt. eigenvalues --    0.21052   0.27917   0.31912   0.33622   0.81385
 Alpha virt. eigenvalues --    0.81908   0.89501   0.90634   1.02942   1.19769
 Alpha virt. eigenvalues --    1.22728   1.23246   1.27542   1.35630   2.50755

 Mulliken charges:
               1
     1  O   -0.709468
     2  H    0.335326
     3  H    0.368575
     4  O   -0.682933
     5  H    0.346245
     6  H    0.342255
 Sum of Mulliken charges =   0.00000

 Dipole moment (field-independent basis, Debye):
    X=             -0.8014    Y=             -0.2299    Z=              0.0000  Tot=              0.8337
 Quadrupole moment (field-independent basis, Debye-Ang):
   XX=             -8.7149   YY=             -6.6085   ZZ=            -15.0182
   XY=             -0.4978   XZ=              0.0000   YZ=              0.0000

 P4DQ=-33.771807\MP4SDQ=-33.7744296\CCSD=-33.7751478\CCSD(T)=-33.778484
 Normal termination of Gaussian 16 at Sun Dec 10 06:27:11 2023.
