 Gaussian 16, Revision A.03,
 Gaussian 16:  ES64L-G16RevA.03 25-Dec-2016

 ------------------
 #p CCSD(T)/CEP-31G
 ------------------

 ------------
 H2O_H2O_4494
 ------------
 Symbolic Z-matrix:
 Charge =  0 Multiplicity = 1

                         Standard orientation:
 ---------------------------------------------------------------------
 Center     Atomic      Atomic             Coordinates (Angstroms)
 Number     Number       Type             X           Y           Z
 ---------------------------------------------------------------------
      1          8           0        0.054139   -3.141558    0.000000
      2          1           0       -0.746267   -3.711519    0.000000
      3          1           0        0.852873   -3.713860    0.000000
      4          8           0        0.054139    3.218909    0.000000
      5          1           0       -0.228293    4.160047    0.000000
      6          1           0       -0.744536    2.646524    0.000000
 ---------------------------------------------------------------------

 SCF Done:  E(RHF) =  -33.6516585782     A.U. after   11 cycles
 E2 =    -0.2283928519D+00 EUMP2 =    -0.33880051430102D+02
 CCSD(T)
 CCSD(T)= -0.33897055312D+02

 The electronic state is 1-A'.
 Alpha  occ. eigenvalues --   -1.35518  -1.34949  -0.71150  -0.70570  -0.55245
 Alpha  occ. eigenvalues --   -0.54671  -0.50087  -0.49519
 Alpha virt. eigenvalues --    0.20247   0.20830   0.30486   0.31060   0.80465
 Alpha virt. eigenvalues --    0.81025   0.83501   0.84074   0.86609   0.87231
 Alpha virt. eigenvalues --    1.17379   1.17944   1.21838   1.22412   2.57399

 Mulliken charges:
               1
     1  O   -0.740672
     2  H    0.369018
     3  H    0.371653
     4  O   -0.740381
     5  H    0.367496
     6  H    0.372886
 Sum of Mulliken charges =   0.00000

 Dipole moment (field-independent basis, Debye):
    X=             -2.4988    Y=             -1.8092    Z=              0.0000  Tot=              3.0850
 Quadrupole moment (field-independent basis, Debye-Ang):
   XX=             -9.9424   YY=             11.8965   ZZ=            -14.9885
   XY=             -7.6201   XZ=              0.0000   YZ=              0.0000

 \MP4DQ=-33.8914102\MP4SDQ=-33.8934382\CCSD=-33.8944937\CCSD(T)=-33.897
 Normal termination of Gaussian 16 at Sun Dec 10 07:01:38 2023.
