 Gaussian 16, Revision A.03,
 Gaussian 16:  ES64L-G16RevA.03 25-Dec-2016

 ------------------
 #p CCSD(T)/CEP-31G
 ------------------

 -----------
 H2O_H2O_912
 -----------
 Symbolic Z-matrix:
 Charge =  0 Multiplicity = 1

                         Standard orientation:
 ---------------------------------------------------------------------
 Center     Atomic      Atomic             Coordinates (Angstroms)
 Number     Number       Type             X           Y           Z
 ---------------------------------------------------------------------
      1          8           0        0.040430   -1.264198    0.000000
      2          1           0       -0.760688   -1.833157    0.000000
      3          1           0        0.838448   -1.837498    0.000000
      4          8           0        0.040430    1.297435    0.000000
      5          1           0        0.204592    2.266227    0.000000
      6          1           0       -0.929238    1.138535    0.000000
 ---------------------------------------------------------------------

 SCF Done:  E(RHF) =  -33.6382294735     A.U. after   11 cycles
 E2 =    -0.2299776714D+00 EUMP2 =    -0.33868207144844D+02
 CCSD(T)
 CCSD(T)= -0.33885593827D+02

 The electronic state is 1-A'.
 Alpha  occ. eigenvalues --   -1.33799  -1.32253  -0.69414  -0.67938  -0.54642
 Alpha  occ. eigenvalues --   -0.49698  -0.48419  -0.46533
 Alpha virt. eigenvalues --    0.20543   0.24613   0.31831   0.32876   0.78756
 Alpha virt. eigenvalues --    0.82732   0.85896   0.88181   0.96389   1.15642
 Alpha virt. eigenvalues --    1.18885   1.22467   1.23572   1.28575   2.57636

 Mulliken charges:
               1
     1  O   -0.724934
     2  H    0.348752
     3  H    0.371309
     4  O   -0.697858
     5  H    0.343786
     6  H    0.358945
 Sum of Mulliken charges =  -0.00000

 Dipole moment (field-independent basis, Debye):
    X=             -1.7413    Y=             -0.8220    Z=              0.0000  Tot=              1.9256
 Quadrupole moment (field-independent basis, Debye-Ang):
   XX=             -9.1866   YY=             -0.4110   ZZ=            -14.9914
   XY=             -1.7085   XZ=              0.0000   YZ=              0.0000

 P4DQ=-33.8796821\MP4SDQ=-33.8818216\CCSD=-33.8828953\CCSD(T)=-33.88559
 Normal termination of Gaussian 16 at Sun Dec 10 06:41:49 2023.
