 Gaussian 16, Revision A.03,
 Gaussian 16:  ES64L-G16RevA.03 25-Dec-2016

 ------------------
 #p CCSD(T)/CEP-31G
 ------------------

 ------------
 H2O_H2O_3503
 ------------
 Symbolic Z-matrix:
 Charge =  0 Multiplicity = 1

                         Standard orientation:
 ---------------------------------------------------------------------
 Center     Atomic      Atomic             Coordinates (Angstroms)
 Number     Number       Type             X           Y           Z
 ---------------------------------------------------------------------
      1          8           0        0.011143   -2.663839    0.000000
      2          1           0       -0.788634   -3.234683    0.000000
      3          1           0        0.810508   -3.235258    0.000000
      4          8           0        0.011143    2.666026    0.000000
      5          1           0        0.684185    3.381929    0.000000
      6          1           0       -0.884342    3.070517    0.000000
 ---------------------------------------------------------------------

 SCF Done:  E(RHF) =  -33.6498353408     A.U. after   11 cycles
 E2 =    -0.2284880422D+00 EUMP2 =    -0.33878323382982D+02
 CCSD(T)
 CCSD(T)= -0.33895379938D+02

 The electronic state is 1-A'.
 Alpha  occ. eigenvalues --   -1.34768  -1.34744  -0.70393  -0.70369  -0.54395
 Alpha  occ. eigenvalues --   -0.54365  -0.49310  -0.49287
 Alpha virt. eigenvalues --    0.20886   0.20931   0.31125   0.31148   0.81239
 Alpha virt. eigenvalues --    0.81270   0.84224   0.84734   0.87478   0.87534
 Alpha virt. eigenvalues --    1.18051   1.18074   1.22526   1.22550   2.58112

 Mulliken charges:
               1
     1  O   -0.734244
     2  H    0.366654
     3  H    0.367590
     4  O   -0.734187
     5  H    0.366470
     6  H    0.367716
 Sum of Mulliken charges =  -0.00000

 Dipole moment (field-independent basis, Debye):
    X=             -0.5132    Y=             -0.0515    Z=              0.0000  Tot=              0.5158
 Quadrupole moment (field-independent basis, Debye-Ang):
   XX=             -8.1309   YY=             16.0173   ZZ=            -14.9860
   XY=             -1.0372   XZ=              0.0000   YZ=              0.0000

 P4DQ=-33.8897203\MP4SDQ=-33.8917533\CCSD=-33.892812\CCSD(T)=-33.895379
 Normal termination of Gaussian 16 at Sun Dec 10 06:42:56 2023.
