 Gaussian 16, Revision A.03,
 Gaussian 16:  ES64L-G16RevA.03 25-Dec-2016

 ------------------
 #p CCSD(T)/CEP-31G
 ------------------

 ------------
 H2O_H2O_3695
 ------------
 Symbolic Z-matrix:
 Charge =  0 Multiplicity = 1

                         Standard orientation:
 ---------------------------------------------------------------------
 Center     Atomic      Atomic             Coordinates (Angstroms)
 Number     Number       Type             X           Y           Z
 ---------------------------------------------------------------------
      1          8           0        0.055240   -2.712222    0.000000
      2          1           0       -0.745315   -3.281974    0.000000
      3          1           0        0.853825   -3.284731    0.000000
      4          8           0        0.055240    2.796694    0.000000
      5          1           0       -0.287900    3.717433    0.000000
      6          1           0       -0.704451    2.173496    0.000000
 ---------------------------------------------------------------------

 SCF Done:  E(RHF) =  -33.6517450497     A.U. after   11 cycles
 E2 =    -0.2284012751D+00 EUMP2 =    -0.33880146324815D+02
 CCSD(T)
 CCSD(T)= -0.33897147637D+02

 The electronic state is 1-A'.
 Alpha  occ. eigenvalues --   -1.35555  -1.34715  -0.71188  -0.70328  -0.55289
 Alpha  occ. eigenvalues --   -0.54436  -0.50126  -0.49286
 Alpha virt. eigenvalues --    0.20208   0.21084   0.30453   0.31305   0.80428
 Alpha virt. eigenvalues --    0.81251   0.83434   0.84315   0.86564   0.87503
 Alpha virt. eigenvalues --    1.17345   1.18179   1.21802   1.22658   2.57358

 Mulliken charges:
               1
     1  O   -0.741002
     2  H    0.368508
     3  H    0.372496
     4  O   -0.740473
     5  H    0.365983
     6  H    0.374488
 Sum of Mulliken charges =   0.00000

 Dipole moment (field-independent basis, Debye):
    X=             -2.5452    Y=             -1.9867    Z=              0.0000  Tot=              3.2288
 Quadrupole moment (field-independent basis, Debye-Ang):
   XX=            -10.0183   YY=              8.0099   ZZ=            -14.9889
   XY=             -6.8263   XZ=              0.0000   YZ=              0.0000

 MP4DQ=-33.8915029\MP4SDQ=-33.893531\CCSD=-33.8945856\CCSD(T)=-33.89714
 Normal termination of Gaussian 16 at Sun Dec 10 06:46:27 2023.
