 Gaussian 16, Revision A.03,
 Gaussian 16:  ES64L-G16RevA.03 25-Dec-2016

 ------------------
 #p CCSD(T)/CEP-31G
 ------------------

 -----------
 H2O_H2O_532
 -----------
 Symbolic Z-matrix:
 Charge =  0 Multiplicity = 1

                         Standard orientation:
 ---------------------------------------------------------------------
 Center     Atomic      Atomic             Coordinates (Angstroms)
 Number     Number       Type             X           Y           Z
 ---------------------------------------------------------------------
      1          8           0        0.025272   -1.076469    0.000000
      2          1           0       -0.775445   -1.645993    0.000000
      3          1           0        0.823694   -1.649206    0.000000
      4          8           0        0.025272    1.088147    0.000000
      5          1           0        0.491519    1.953086    0.000000
      6          1           0       -0.944126    1.248686    0.000000
 ---------------------------------------------------------------------

 SCF Done:  E(RHF) =  -33.6138478317     A.U. after   11 cycles
 E2 =    -0.2312682158D+00 EUMP2 =    -0.33845116047509D+02
 CCSD(T)
 CCSD(T)= -0.33862439255D+02

 The electronic state is 1-A'.
 Alpha  occ. eigenvalues --   -1.33127  -1.31126  -0.68524  -0.67047  -0.56820
 Alpha  occ. eigenvalues --   -0.47996  -0.44936  -0.44495
 Alpha virt. eigenvalues --    0.21213   0.25552   0.32571   0.33179   0.79947
 Alpha virt. eigenvalues --    0.80118   0.89981   0.98152   0.99913   1.15060
 Alpha virt. eigenvalues --    1.19826   1.23211   1.25014   1.28226   2.50961

 Mulliken charges:
               1
     1  O   -0.713709
     2  H    0.342505
     3  H    0.364830
     4  O   -0.689393
     5  H    0.349725
     6  H    0.346042
 Sum of Mulliken charges =   0.00000

 Dipole moment (field-independent basis, Debye):
    X=             -1.0203    Y=             -0.2757    Z=              0.0000  Tot=              1.0569
 Quadrupole moment (field-independent basis, Debye-Ang):
   XX=             -8.6733   YY=             -2.5530   ZZ=            -15.0088
   XY=             -0.7011   XZ=              0.0000   YZ=              0.0000

 4DQ=-33.8563518\MP4SDQ=-33.8585478\CCSD=-33.8595946\CCSD(T)=-33.862439
 Normal termination of Gaussian 16 at Sun Dec 10 06:34:42 2023.
