 Gaussian 16, Revision A.03,
 Gaussian 16:  ES64L-G16RevA.03 25-Dec-2016

 ------------------
 #p CCSD(T)/CEP-31G
 ------------------

 -----------
 H2O_H2O_440
 -----------
 Symbolic Z-matrix:
 Charge =  0 Multiplicity = 1

                         Standard orientation:
 ---------------------------------------------------------------------
 Center     Atomic      Atomic             Coordinates (Angstroms)
 Number     Number       Type             X           Y           Z
 ---------------------------------------------------------------------
      1          8           0        0.047589   -1.002259    0.000000
      2          1           0       -0.754249   -1.570205    0.000000
      3          1           0        0.844881   -1.576568    0.000000
      4          8           0        0.047589    1.052646    0.000000
      5          1           0        0.020835    2.034884    0.000000
      6          1           0       -0.872884    0.708790    0.000000
 ---------------------------------------------------------------------

 SCF Done:  E(RHF) =  -33.6091870016     A.U. after   11 cycles
 E2 =    -0.2320321332D+00 EUMP2 =    -0.33841219134871D+02
 CCSD(T)
 CCSD(T)= -0.33858461843D+02

 The electronic state is 1-A'.
 Alpha  occ. eigenvalues --   -1.35017  -1.30737  -0.70718  -0.67992  -0.55629
 Alpha  occ. eigenvalues --   -0.49695  -0.46025  -0.44850
 Alpha virt. eigenvalues --    0.20119   0.27004   0.31246   0.33631   0.79248
 Alpha virt. eigenvalues --    0.84709   0.89882   0.96602   0.99435   1.15213
 Alpha virt. eigenvalues --    1.19104   1.23742   1.25405   1.32161   2.56505

 Mulliken charges:
               1
     1  O   -0.761113
     2  H    0.349554
     3  H    0.390866
     4  O   -0.668150
     5  H    0.332398
     6  H    0.356444
 Sum of Mulliken charges =  -0.00000

 Dipole moment (field-independent basis, Debye):
    X=             -1.8948    Y=             -1.2457    Z=              0.0000  Tot=              2.2676
 Quadrupole moment (field-independent basis, Debye-Ang):
   XX=             -9.5811   YY=             -4.1642   ZZ=            -14.9948
   XY=             -1.7063   XZ=              0.0000   YZ=              0.0000

 P4DQ=-33.8522604\MP4SDQ=-33.8545576\CCSD=-33.8555301\CCSD(T)=-33.85846
 Normal termination of Gaussian 16 at Sun Dec 10 06:33:00 2023.
