 Gaussian 16, Revision A.03,
 Gaussian 16:  ES64L-G16RevA.03 25-Dec-2016

 ------------------
 #p CCSD(T)/CEP-31G
 ------------------

 ------------
 H2O_H2O_4936
 ------------
 Symbolic Z-matrix:
 Charge =  0 Multiplicity = 1

                         Standard orientation:
 ---------------------------------------------------------------------
 Center     Atomic      Atomic             Coordinates (Angstroms)
 Number     Number       Type             X           Y           Z
 ---------------------------------------------------------------------
      1          8           0        0.037671   -3.407537    0.000000
      2          1           0       -0.762441   -3.977911    0.000000
      3          1           0        0.836700   -3.979426    0.000000
      4          8           0        0.037671    3.435812    0.000000
      5          1           0        0.263153    4.392193    0.000000
      6          1           0       -0.940145    3.338943    0.000000
 ---------------------------------------------------------------------

 SCF Done:  E(RHF) =  -33.6511631435     A.U. after   11 cycles
 E2 =    -0.2284133649D+00 EUMP2 =    -0.33879576508364D+02
 CCSD(T)
 CCSD(T)= -0.33896594914D+02

 The electronic state is 1-A'.
 Alpha  occ. eigenvalues --   -1.35248  -1.35068  -0.70878  -0.70694  -0.54948
 Alpha  occ. eigenvalues --   -0.54768  -0.49810  -0.49630
 Alpha virt. eigenvalues --    0.20489   0.20672   0.30724   0.30902   0.80743
 Alpha virt. eigenvalues --    0.80921   0.83828   0.84005   0.86917   0.87121
 Alpha virt. eigenvalues --    1.17627   1.17805   1.22090   1.22270   2.57659

 Mulliken charges:
               1
     1  O   -0.738888
     2  H    0.368664
     3  H    0.370224
     4  O   -0.738714
     5  H    0.368105
     6  H    0.370609
 Sum of Mulliken charges =  -0.00000

 Dipole moment (field-independent basis, Debye):
    X=             -1.7400    Y=             -0.6599    Z=              0.0000  Tot=              1.8609
 Quadrupole moment (field-independent basis, Debye-Ang):
   XX=             -8.9572   YY=             20.6277   ZZ=            -14.9875
   XY=             -5.1193   XZ=              0.0000   YZ=              0.0000

 \MP4DQ=-33.8909459\MP4SDQ=-33.8929753\CCSD=-33.8940319\CCSD(T)=-33.896
 Normal termination of Gaussian 16 at Sun Dec 10 07:10:39 2023.
