 Gaussian 16, Revision A.03,
 Gaussian 16:  ES64L-G16RevA.03 25-Dec-2016

 ------------------
 #p CCSD(T)/CEP-31G
 ------------------

 ------------
 H2O_H2O_1404
 ------------
 Symbolic Z-matrix:
 Charge =  0 Multiplicity = 1

                         Standard orientation:
 ---------------------------------------------------------------------
 Center     Atomic      Atomic             Coordinates (Angstroms)
 Number     Number       Type             X           Y           Z
 ---------------------------------------------------------------------
      1          8           0        0.014784   -1.546069    0.000000
      2          1           0       -0.785257   -2.116544    0.000000
      3          1           0        0.813885   -2.117858    0.000000
      4          8           0        0.014784    1.549937    0.000000
      5          1           0        0.639914    2.308038    0.000000
      6          1           0       -0.905080    1.895419    0.000000
 ---------------------------------------------------------------------

 SCF Done:  E(RHF) =  -33.6418972198     A.U. after   11 cycles
 E2 =    -0.2291523972D+00 EUMP2 =    -0.33871049617015D+02
 CCSD(T)
 CCSD(T)= -0.33888378080D+02

 The electronic state is 1-A'.
 Alpha  occ. eigenvalues --   -1.33433  -1.33245  -0.69042  -0.68860  -0.53692
 Alpha  occ. eigenvalues --   -0.51340  -0.48000  -0.47558
 Alpha virt. eigenvalues --    0.21171   0.22846   0.32019   0.32352   0.77397
 Alpha virt. eigenvalues --    0.80119   0.83126   0.85503   0.95717   1.07457
 Alpha virt. eigenvalues --    1.19100   1.19574   1.23664   1.24064   2.59839

 Mulliken charges:
               1
     1  O   -0.711462
     2  H    0.353024
     3  H    0.358373
     4  O   -0.710166
     5  H    0.352654
     6  H    0.357577
 Sum of Mulliken charges =  -0.00000

 Dipole moment (field-independent basis, Debye):
    X=             -0.6627    Y=             -0.0966    Z=              0.0000  Tot=              0.6697
 Quadrupole moment (field-independent basis, Debye-Ang):
   XX=             -8.3012   YY=              3.7462   ZZ=            -14.9841
   XY=             -0.6673   XZ=              0.0000   YZ=              0.0000

 \MP4DQ=-33.8825877\MP4SDQ=-33.8846739\CCSD=-33.8857473\CCSD(T)=-33.888
 Normal termination of Gaussian 16 at Sun Dec 10 06:51:00 2023.
