 Gaussian 16, Revision A.03,
 Gaussian 16:  ES64L-G16RevA.03 25-Dec-2016

 ------------------
 #p CCSD(T)/CEP-31G
 ------------------

 ------------
 H2O_H2O_2849
 ------------
 Symbolic Z-matrix:
 Charge =  0 Multiplicity = 1

                         Standard orientation:
 ---------------------------------------------------------------------
 Center     Atomic      Atomic             Coordinates (Angstroms)
 Number     Number       Type             X           Y           Z
 ---------------------------------------------------------------------
      1          8           0        0.057235   -2.244134    0.000000
      2          1           0       -0.743554   -2.813557    0.000000
      3          1           0        0.855584   -2.816973    0.000000
      4          8           0        0.057235    2.358116    0.000000
      5          1           0       -0.512187    3.158907    0.000000
      6          1           0       -0.515604    1.559767    0.000000
 ---------------------------------------------------------------------

 SCF Done:  E(RHF) =  -33.6528974476     A.U. after   11 cycles
 E2 =    -0.2283992014D+00 EUMP2 =    -0.33881296649073D+02
 CCSD(T)
 CCSD(T)= -0.33898265146D+02

 The electronic state is 1-A'.
 Alpha  occ. eigenvalues --   -1.35926  -1.34259  -0.71564  -0.69852  -0.55727
 Alpha  occ. eigenvalues --   -0.54011  -0.50513  -0.48844
 Alpha virt. eigenvalues --    0.19699   0.21787   0.30127   0.31894   0.80044
 Alpha virt. eigenvalues --    0.81672   0.82570   0.85054   0.86057   0.88182
 Alpha virt. eigenvalues --    1.17021   1.18786   1.21440   1.23626   2.57007

 Mulliken charges:
               1
     1  O   -0.744864
     2  H    0.369311
     3  H    0.375762
     4  O   -0.744491
     5  H    0.363443
     6  H    0.380839
 Sum of Mulliken charges =   0.00000

 Dipole moment (field-independent basis, Debye):
    X=             -2.6268    Y=             -2.7171    Z=              0.0000  Tot=              3.7793
 Quadrupole moment (field-independent basis, Debye-Ang):
   XX=            -10.1592   YY=              1.7998   ZZ=            -14.9914
   XY=             -6.4334   XZ=              0.0000   YZ=              0.0000

 3\MP4DQ=-33.8926233\MP4SDQ=-33.8946534\CCSD=-33.8957018\CCSD(T)=-33.89
 Normal termination of Gaussian 16 at Sun Dec 10 06:31:15 2023.
