 Gaussian 16, Revision A.03,
 Gaussian 16:  ES64L-G16RevA.03 25-Dec-2016

 ------------------
 #p CCSD(T)/CEP-31G
 ------------------

 ------------
 H2O_H2O_2132
 ------------
 Symbolic Z-matrix:
 Charge =  0 Multiplicity = 1

                         Standard orientation:
 ---------------------------------------------------------------------
 Center     Atomic      Atomic             Coordinates (Angstroms)
 Number     Number       Type             X           Y           Z
 ---------------------------------------------------------------------
      1          8           0        0.025267   -1.927384    0.000000
      2          1           0       -0.774946   -2.497616    0.000000
      3          1           0        0.824195   -2.499415    0.000000
      4          8           0        0.025267    1.939107    0.000000
      5          1           0        0.490749    2.804458    0.000000
      6          1           0       -0.944273    2.098788    0.000000
 ---------------------------------------------------------------------

 SCF Done:  E(RHF) =  -33.6473434129     A.U. after   11 cycles
 E2 =    -0.2287233764D+00 EUMP2 =    -0.33876066789342D+02
 CCSD(T)
 CCSD(T)= -0.33893201668D+02

 The electronic state is 1-A'.
 Alpha  occ. eigenvalues --   -1.34261  -1.34016  -0.69883  -0.69625  -0.53898
 Alpha  occ. eigenvalues --   -0.53311  -0.48775  -0.48520
 Alpha virt. eigenvalues --    0.20930   0.21839   0.31501   0.31732   0.78747
 Alpha virt. eigenvalues --    0.81203   0.82591   0.86399   0.89120   0.94749
 Alpha virt. eigenvalues --    1.18459   1.18717   1.22965   1.23237   2.58200

 Mulliken charges:
               1
     1  O   -0.725915
     2  H    0.360466
     3  H    0.365514
     4  O   -0.724753
     5  H    0.359181
     6  H    0.365507
 Sum of Mulliken charges =  -0.00000

 Dipole moment (field-independent basis, Debye):
    X=             -1.1522    Y=             -0.2846    Z=              0.0000  Tot=              1.1869
 Quadrupole moment (field-independent basis, Debye-Ang):
   XX=             -8.4980   YY=              7.5865   ZZ=            -14.9846
   XY=             -1.6094   XZ=              0.0000   YZ=              0.0000

 \MP4DQ=-33.8875078\MP4SDQ=-33.8895579\CCSD=-33.8906153\CCSD(T)=-33.893
 Normal termination of Gaussian 16 at Sun Dec 10 07:05:47 2023.
