 Gaussian 16, Revision A.03,
 Gaussian 16:  ES64L-G16RevA.03 25-Dec-2016

 ------------------
 #p CCSD(T)/CEP-31G
 ------------------

 ----------
 H2O_H2O_68
 ----------
 Symbolic Z-matrix:
 Charge =  0 Multiplicity = 1

                         Standard orientation:
 ---------------------------------------------------------------------
 Center     Atomic      Atomic             Coordinates (Angstroms)
 Number     Number       Type             X           Y           Z
 ---------------------------------------------------------------------
      1          8           0        0.052959   -0.792201    0.000000
      2          1           0       -0.749737   -1.358934    0.000000
      3          1           0        0.849381   -1.367716    0.000000
      4          8           0        0.052959    0.862135    0.000000
      5          1           0       -0.163455    1.820608    0.000000
      6          1           0       -0.783525    0.346575    0.000000
 ---------------------------------------------------------------------

 SCF Done:  E(RHF) =  -33.4731216266     A.U. after   12 cycles
 E2 =    -0.2369845387D+00 EUMP2 =    -0.33710106165285D+02
 CCSD(T)
 CCSD(T)= -0.33726677047D+02

 The electronic state is 1-A'.
 Alpha  occ. eigenvalues --   -1.41625  -1.28486  -0.77428  -0.71727  -0.54398
 Alpha  occ. eigenvalues --   -0.53712  -0.42940  -0.38980
 Alpha virt. eigenvalues --    0.19389   0.29189   0.30344   0.34145   0.80032
 Alpha virt. eigenvalues --    0.82885   0.89198   0.95574   0.96388   1.18470
 Alpha virt. eigenvalues --    1.20947   1.26501   1.29285   1.39687   2.69730

 Mulliken charges:
               1
     1  O   -0.777697
     2  H    0.344234
     3  H    0.419253
     4  O   -0.628214
     5  H    0.283100
     6  H    0.359324
 Sum of Mulliken charges =  -0.00000

 Dipole moment (field-independent basis, Debye):
    X=             -1.8616    Y=             -1.8855    Z=              0.0000  Tot=              2.6497
 Quadrupole moment (field-independent basis, Debye-Ang):
   XX=             -9.8981   YY=             -8.2991   ZZ=            -14.9048
   XY=             -1.5933   XZ=              0.0000   YZ=              0.0000

 MP4DQ=-33.7197378\MP4SDQ=-33.7225325\CCSD=-33.7230782\CCSD(T)=-33.7266
 Normal termination of Gaussian 16 at Sun Dec 10 06:26:00 2023.
