 Gaussian 16, Revision A.03,
 Gaussian 16:  ES64L-G16RevA.03 25-Dec-2016

 ------------------
 #p CCSD(T)/CEP-31G
 ------------------

 ------------
 H2O_H2O_3943
 ------------
 Symbolic Z-matrix:
 Charge =  0 Multiplicity = 1

                         Standard orientation:
 ---------------------------------------------------------------------
 Center     Atomic      Atomic             Coordinates (Angstroms)
 Number     Number       Type             X           Y           Z
 ---------------------------------------------------------------------
      1          8           0        0.052821   -2.852851    0.000000
      2          1           0       -0.747647   -3.422725    0.000000
      3          1           0        0.851493   -3.425240    0.000000
      4          8           0        0.052821    2.923199    0.000000
      5          1           0       -0.167347    3.880817    0.000000
      6          1           0       -0.781636    2.404367    0.000000
 ---------------------------------------------------------------------

 SCF Done:  E(RHF) =  -33.6514917569     A.U. after   11 cycles
 E2 =    -0.2284093031D+00 EUMP2 =    -0.33879901059951D+02
 CCSD(T)
 CCSD(T)= -0.33896909752D+02

 The electronic state is 1-A'.
 Alpha  occ. eigenvalues --   -1.35446  -1.34811  -0.71077  -0.70428  -0.55164
 Alpha  occ. eigenvalues --   -0.54523  -0.50012  -0.49379
 Alpha virt. eigenvalues --    0.20308   0.20961   0.30548   0.31185   0.80540
 Alpha virt. eigenvalues --    0.81164   0.83586   0.84231   0.86693   0.87406
 Alpha virt. eigenvalues --    1.17444   1.18073   1.21904   1.22544   2.57467

 Mulliken charges:
               1
     1  O   -0.740095
     2  H    0.368348
     3  H    0.371748
     4  O   -0.739604
     5  H    0.366482
     6  H    0.373122
 Sum of Mulliken charges =   0.00000

 Dipole moment (field-independent basis, Debye):
    X=             -2.4354    Y=             -1.6509    Z=              0.0000  Tot=              2.9422
 Quadrupole moment (field-independent basis, Debye-Ang):
   XX=             -9.8491   YY=             10.6990   ZZ=            -14.9884
   XY=             -6.6087   XZ=              0.0000   YZ=              0.0000

 \MP4DQ=-33.8912632\MP4SDQ=-33.8932918\CCSD=-33.8943473\CCSD(T)=-33.896
 Normal termination of Gaussian 16 at Sun Dec 10 06:51:03 2023.
