 Gaussian 16, Revision A.03,
 Gaussian 16:  ES64L-G16RevA.03 25-Dec-2016

 ------------------
 #p CCSD(T)/CEP-31G
 ------------------

 -----------
 H2O_H2O_600
 -----------
 Symbolic Z-matrix:
 Charge =  0 Multiplicity = 1

                         Standard orientation:
 ---------------------------------------------------------------------
 Center     Atomic      Atomic             Coordinates (Angstroms)
 Number     Number       Type             X           Y           Z
 ---------------------------------------------------------------------
      1          8           0       -0.000000   -0.000000    1.122701
      2          1           0        0.000000   -0.799571    1.693833
      3          1           0        0.000000    0.799571    1.693833
      4          8           0        0.000000   -0.000000   -1.122701
      5          1           0        0.000000    0.799571   -1.693833
      6          1           0        0.000000   -0.799571   -1.693833
 ---------------------------------------------------------------------

 SCF Done:  E(RHF) =  -33.6170541001     A.U. after   10 cycles
 E2 =    -0.2309114542D+00 EUMP2 =    -0.33847965554287D+02
 CCSD(T)
 CCSD(T)= -0.33865305628D+02

 The electronic state is 1-AG.
 Alpha  occ. eigenvalues --   -1.32706  -1.31262  -0.68082  -0.67036  -0.56365
 Alpha  occ. eigenvalues --   -0.47543  -0.45055  -0.44778
 Alpha virt. eigenvalues --    0.21599   0.25018   0.32897   0.33217   0.78216
 Alpha virt. eigenvalues --    0.79979   0.89906   0.97712   1.00718   1.15283
 Alpha virt. eigenvalues --    1.19979   1.22319   1.23673   1.26513   2.51555

 Mulliken charges:
               1
     1  O   -0.697528
     2  H    0.348764
     3  H    0.348764
     4  O   -0.697528
     5  H    0.348764
     6  H    0.348764
 Sum of Mulliken charges =  -0.00000

 Dipole moment (field-independent basis, Debye):
    X=              0.0000    Y=              0.0000    Z=             -0.0000  Tot=              0.0000
 Quadrupole moment (field-independent basis, Debye-Ang):
   XX=            -15.0105   YY=             -8.2884   ZZ=             -1.7934
   XY=             -0.0000   XZ=             -0.0000   YZ=              0.0000

 .8592709\MP4SDQ=-33.8614217\CCSD=-33.8624885\CCSD(T)=-33.8653056\RMSD=
 Normal termination of Gaussian 16 at Sun Dec 10 06:35:58 2023.
