 Gaussian 16, Revision A.03,
 Gaussian 16:  ES64L-G16RevA.03 25-Dec-2016

 ------------------
 #p CCSD(T)/CEP-31G
 ------------------

 ----------
 H2O_H2O_58
 ----------
 Symbolic Z-matrix:
 Charge =  0 Multiplicity = 1

                         Standard orientation:
 ---------------------------------------------------------------------
 Center     Atomic      Atomic             Coordinates (Angstroms)
 Number     Number       Type             X           Y           Z
 ---------------------------------------------------------------------
      1          8           0        0.028579   -0.821969    0.000000
      2          1           0       -0.772681   -1.390728    0.000000
      3          1           0        0.826454   -1.395468    0.000000
      4          8           0        0.028579    0.837103    0.000000
      5          1           0        0.438112    1.730294    0.000000
      6          1           0       -0.949151    0.934830    0.000000
 ---------------------------------------------------------------------

 SCF Done:  E(RHF) =  -33.4924995103     A.U. after   12 cycles
 E2 =    -0.2380891716D+00 EUMP2 =    -0.33730588681843D+02
 CCSD(T)
 CCSD(T)= -0.33747094641D+02

 The electronic state is 1-A'.
 Alpha  occ. eigenvalues --   -1.37578  -1.28916  -0.71945  -0.68266  -0.62130
 Alpha  occ. eigenvalues --   -0.52039  -0.42622  -0.33149
 Alpha virt. eigenvalues --    0.20677   0.28531   0.31513   0.33594   0.81909
 Alpha virt. eigenvalues --    0.83265   0.88987   0.90563   0.99918   1.19432
 Alpha virt. eigenvalues --    1.22911   1.23295   1.26996   1.38895   2.53757

 Mulliken charges:
               1
     1  O   -0.713932
     2  H    0.330163
     3  H    0.376265
     4  O   -0.670315
     5  H    0.335299
     6  H    0.342520
 Sum of Mulliken charges =   0.00000

 Dipole moment (field-independent basis, Debye):
    X=             -1.0322    Y=             -0.4254    Z=              0.0000  Tot=              1.1164
 Quadrupole moment (field-independent basis, Debye-Ang):
   XX=             -8.9255   YY=             -7.6484   ZZ=            -14.9903
   XY=             -0.6997   XZ=              0.0000   YZ=              0.0000

 4DQ=-33.7402152\MP4SDQ=-33.7429998\CCSD=-33.7435674\CCSD(T)=-33.747094
 Normal termination of Gaussian 16 at Sun Dec 10 06:25:49 2023.
