 Gaussian 16, Revision A.03,
 Gaussian 16:  ES64L-G16RevA.03 25-Dec-2016

 ------------------
 #p CCSD(T)/CEP-31G
 ------------------

 ------------
 H2O_H2O_2293
 ------------
 Symbolic Z-matrix:
 Charge =  0 Multiplicity = 1

                         Standard orientation:
 ---------------------------------------------------------------------
 Center     Atomic      Atomic             Coordinates (Angstroms)
 Number     Number       Type             X           Y           Z
 ---------------------------------------------------------------------
      1          8           0        0.052845   -1.975359    0.000000
      2          1           0       -0.748014   -2.544683    0.000000
      3          1           0        0.851124   -2.548296    0.000000
      4          8           0        0.052845    2.045634    0.000000
      5          1           0       -0.166665    3.003404    0.000000
      6          1           0       -0.781968    1.527375    0.000000
 ---------------------------------------------------------------------

 SCF Done:  E(RHF) =  -33.6510739978     A.U. after   11 cycles
 E2 =    -0.2285773035D+00 EUMP2 =    -0.33879651301332D+02
 CCSD(T)
 CCSD(T)= -0.33896677908D+02

 The electronic state is 1-A'.
 Alpha  occ. eigenvalues --   -1.35343  -1.33967  -0.70977  -0.69542  -0.55038
 Alpha  occ. eigenvalues --   -0.53635  -0.49904  -0.48532
 Alpha virt. eigenvalues --    0.19991   0.22136   0.30563   0.32040   0.79731
 Alpha virt. eigenvalues --    0.80500   0.82145   0.85763   0.86808   0.92973
 Alpha virt. eigenvalues --    1.17520   1.19150   1.21899   1.23821   2.57261

 Mulliken charges:
               1
     1  O   -0.738588
     2  H    0.364816
     3  H    0.374089
     4  O   -0.736020
     5  H    0.359240
     6  H    0.376465
 Sum of Mulliken charges =  -0.00000

 Dipole moment (field-independent basis, Debye):
    X=             -2.4134    Y=             -1.6961    Z=              0.0000  Tot=              2.9498
 Quadrupole moment (field-independent basis, Debye-Ang):
   XX=             -9.8440   YY=              4.1212   ZZ=            -14.9891
   XY=             -4.5112   XZ=              0.0000   YZ=              0.0000

 MP4DQ=-33.8910144\MP4SDQ=-33.8930548\CCSD=-33.8941032\CCSD(T)=-33.8966
 Normal termination of Gaussian 16 at Sun Dec 10 07:08:40 2023.
