 Gaussian 16, Revision A.03,
 Gaussian 16:  ES64L-G16RevA.03 25-Dec-2016

 ------------------
 #p CCSD(T)/CEP-31G
 ------------------

 ------------
 H2O_H2O_1642
 ------------
 Symbolic Z-matrix:
 Charge =  0 Multiplicity = 1

                         Standard orientation:
 ---------------------------------------------------------------------
 Center     Atomic      Atomic             Coordinates (Angstroms)
 Number     Number       Type             X           Y           Z
 ---------------------------------------------------------------------
      1          8           0        0.051307   -1.633380    0.000000
      2          1           0       -0.749773   -2.202392    0.000000
      3          1           0        0.849363   -2.206627    0.000000
      4          8           0        0.051307    1.696814    0.000000
      5          1           0       -0.104715    2.666949    0.000000
      6          1           0       -0.815794    1.234599    0.000000
 ---------------------------------------------------------------------

 SCF Done:  E(RHF) =  -33.6497087110     A.U. after   11 cycles
 E2 =    -0.2289491544D+00 EUMP2 =    -0.33878657865396D+02
 CCSD(T)
 CCSD(T)= -0.33895768897D+02

 The electronic state is 1-A'.
 Alpha  occ. eigenvalues --   -1.35124  -1.33291  -0.70762  -0.68846  -0.54794
 Alpha  occ. eigenvalues --   -0.52833  -0.49673  -0.47843
 Alpha virt. eigenvalues --    0.19798   0.23278   0.30707   0.32624   0.75533
 Alpha virt. eigenvalues --    0.79665   0.83958   0.85731   0.88256   1.06003
 Alpha virt. eigenvalues --    1.17630   1.20612   1.22172   1.25349   2.56532

 Mulliken charges:
               1
     1  O   -0.734907
     2  H    0.360283
     3  H    0.375365
     4  O   -0.728260
     5  H    0.351493
     6  H    0.376026
 Sum of Mulliken charges =   0.00000

 Dipole moment (field-independent basis, Debye):
    X=             -2.3114    Y=             -1.5728    Z=              0.0000  Tot=              2.7958
 Quadrupole moment (field-independent basis, Debye-Ang):
   XX=             -9.7445   YY=              1.8775   ZZ=            -14.9894
   XY=             -3.4819   XZ=              0.0000   YZ=              0.0000

 MP4DQ=-33.8900407\MP4SDQ=-33.8921186\CCSD=-33.893162\CCSD(T)=-33.89576
 Normal termination of Gaussian 16 at Sun Dec 10 06:55:25 2023.
