 Gaussian 16, Revision A.03,
 Gaussian 16:  ES64L-G16RevA.03 25-Dec-2016

 ------------------
 #p CCSD(T)/CEP-31G
 ------------------

 ------------
 H2O_H2O_1147
 ------------
 Symbolic Z-matrix:
 Charge =  0 Multiplicity = 1

                         Standard orientation:
 ---------------------------------------------------------------------
 Center     Atomic      Atomic             Coordinates (Angstroms)
 Number     Number       Type             X           Y           Z
 ---------------------------------------------------------------------
      1          8           0        0.056797   -1.348188    0.000000
      2          1           0       -0.744761   -1.916528    0.000000
      3          1           0        0.854372   -1.922105    0.000000
      4          8           0        0.056797    1.447109    0.000000
      5          1           0       -0.402056    2.315994    0.000000
      6          1           0       -0.616314    0.731269    0.000000
 ---------------------------------------------------------------------

 SCF Done:  E(RHF) =  -33.6521480689     A.U. after   11 cycles
 E2 =    -0.2295186611D+00 EUMP2 =    -0.33881666730064D+02
 CCSD(T)
 CCSD(T)= -0.33898675764D+02

 The electronic state is 1-A'.
 Alpha  occ. eigenvalues --   -1.36290  -1.32060  -0.71947  -0.68010  -0.55845
 Alpha  occ. eigenvalues --   -0.51854  -0.50892  -0.46648
 Alpha virt. eigenvalues --    0.19070   0.25593   0.29848   0.35156   0.77456
 Alpha virt. eigenvalues --    0.78333   0.86566   0.87246   0.93139   1.12870
 Alpha virt. eigenvalues --    1.17549   1.19977   1.22359   1.30004   2.57447

 Mulliken charges:
               1
     1  O   -0.758244
     2  H    0.364931
     3  H    0.394466
     4  O   -0.735677
     5  H    0.341313
     6  H    0.393210
 Sum of Mulliken charges =   0.00000

 Dipole moment (field-independent basis, Debye):
    X=             -2.4966    Y=             -2.5448    Z=              0.0000  Tot=              3.5649
 Quadrupole moment (field-independent basis, Debye-Ang):
   XX=            -10.0943   YY=             -2.4568   ZZ=            -15.0006
   XY=             -3.7947   XZ=              0.0000   YZ=              0.0000

 MP4DQ=-33.8928298\MP4SDQ=-33.8949626\CCSD=-33.8959783\CCSD(T)=-33.8986
 Normal termination of Gaussian 16 at Sun Dec 10 06:46:12 2023.
