 Gaussian 16, Revision A.03,
 Gaussian 16:  ES64L-G16RevA.03 25-Dec-2016

 ------------------
 #p CCSD(T)/CEP-31G
 ------------------

 -----------
 H2O_H2O_980
 -----------
 Symbolic Z-matrix:
 Charge =  0 Multiplicity = 1

                         Standard orientation:
 ---------------------------------------------------------------------
 Center     Atomic      Atomic             Coordinates (Angstroms)
 Number     Number       Type             X           Y           Z
 ---------------------------------------------------------------------
      1          8           0        0.018362   -1.318870    0.000000
      2          1           0       -0.781891   -1.889046    0.000000
      3          1           0        0.817250   -1.890958    0.000000
      4          8           0        0.018362    1.324888    0.000000
      5          1           0        0.592870    2.122038    0.000000
      6          1           0       -0.922020    1.609821    0.000000
 ---------------------------------------------------------------------

 SCF Done:  E(RHF) =  -33.6353106194     A.U. after   11 cycles
 E2 =    -0.2297267287D+00 EUMP2 =    -0.33865037348047D+02
 CCSD(T)
 CCSD(T)= -0.33882465205D+02

 The electronic state is 1-A'.
 Alpha  occ. eigenvalues --   -1.32997  -1.32445  -0.68562  -0.68095  -0.54330
 Alpha  occ. eigenvalues --   -0.49049  -0.47661  -0.46556
 Alpha virt. eigenvalues --    0.21298   0.23844   0.32439   0.32743   0.79392
 Alpha virt. eigenvalues --    0.80332   0.84840   0.88013   1.01309   1.11547
 Alpha virt. eigenvalues --    1.19465   1.21498   1.24221   1.24838   2.57170

 Mulliken charges:
               1
     1  O   -0.705677
     2  H    0.347303
     3  H    0.357400
     4  O   -0.700527
     5  H    0.348800
     6  H    0.352701
 Sum of Mulliken charges =  -0.00000

 Dipole moment (field-independent basis, Debye):
    X=             -0.7969    Y=             -0.1473    Z=              0.0000  Tot=              0.8104
 Quadrupole moment (field-independent basis, Debye-Ang):
   XX=             -8.4257   YY=              0.9127   ZZ=            -14.9905
   XY=             -0.6633   XZ=              0.0000   YZ=              0.0000

 P4DQ=-33.8765816\MP4SDQ=-33.878687\CCSD=-33.8797787\CCSD(T)=-33.882465
 Normal termination of Gaussian 16 at Sun Dec 10 06:43:05 2023.
