 Gaussian 16, Revision A.03,
 Gaussian 16:  ES64L-G16RevA.03 25-Dec-2016

 ------------------
 #p CCSD(T)/CEP-31G
 ------------------

 -----------
 H2O_H2O_394
 -----------
 Symbolic Z-matrix:
 Charge =  0 Multiplicity = 1

                         Standard orientation:
 ---------------------------------------------------------------------
 Center     Atomic      Atomic             Coordinates (Angstroms)
 Number     Number       Type             X           Y           Z
 ---------------------------------------------------------------------
      1          8           0        0.054262   -0.961210    0.000000
      2          1           0       -0.747960   -1.528612    0.000000
      3          1           0        0.851165   -1.536059    0.000000
      4          8           0        0.054262    1.038215    0.000000
      5          1           0       -0.225163    1.980248    0.000000
      6          1           0       -0.746236    0.468382    0.000000
 ---------------------------------------------------------------------

 SCF Done:  E(RHF) =  -33.5989257912     A.U. after   11 cycles
 E2 =    -0.2324740167D+00 EUMP2 =    -0.33831399807945D+02
 CCSD(T)
 CCSD(T)= -0.33848272099D+02

 The electronic state is 1-A'.
 Alpha  occ. eigenvalues --   -1.36979  -1.30102  -0.73033  -0.69299  -0.53304
 Alpha  occ. eigenvalues --   -0.51304  -0.47504  -0.44430
 Alpha virt. eigenvalues --    0.19451   0.28125   0.29982   0.34933   0.78522
 Alpha virt. eigenvalues --    0.84589   0.89962   0.95558   0.99528   1.15225
 Alpha virt. eigenvalues --    1.19463   1.23715   1.28068   1.32380   2.65461

 Mulliken charges:
               1
     1  O   -0.786177
     2  H    0.358088
     3  H    0.412059
     4  O   -0.668966
     5  H    0.316065
     6  H    0.368932
 Sum of Mulliken charges =   0.00000

 Dipole moment (field-independent basis, Debye):
    X=             -2.1279    Y=             -2.0076    Z=              0.0000  Tot=              2.9255
 Quadrupole moment (field-independent basis, Debye-Ang):
   XX=             -9.9412   YY=             -5.3836   ZZ=            -14.9878
   XY=             -2.2315   XZ=              0.0000   YZ=              0.0000

 P4DQ=-33.8419783\MP4SDQ=-33.8443394\CCSD=-33.8452252\CCSD(T)=-33.84827
 Normal termination of Gaussian 16 at Sun Dec 10 06:32:08 2023.
