 Gaussian 16, Revision A.03,
 Gaussian 16:  ES64L-G16RevA.03 25-Dec-2016

 ------------------
 #p CCSD(T)/CEP-31G
 ------------------

 -----------
 H2O_H2O_407
 -----------
 Symbolic Z-matrix:
 Charge =  0 Multiplicity = 1

                         Standard orientation:
 ---------------------------------------------------------------------
 Center     Atomic      Atomic             Coordinates (Angstroms)
 Number     Number       Type             X           Y           Z
 ---------------------------------------------------------------------
      1          8           0        0.025273   -1.009993    0.000000
      2          1           0       -0.775519   -1.579412    0.000000
      3          1           0        0.823620   -1.582835    0.000000
      4          8           0        0.025273    1.021665    0.000000
      5          1           0        0.491634    1.886542    0.000000
      6          1           0       -0.944104    1.182331    0.000000
 ---------------------------------------------------------------------

 SCF Done:  E(RHF) =  -33.5986632544     A.U. after   11 cycles
 E2 =    -0.2321522691D+00 EUMP2 =    -0.33830815523568D+02
 CCSD(T)
 CCSD(T)= -0.33848032153D+02

 The electronic state is 1-A'.
 Alpha  occ. eigenvalues --   -1.33476  -1.30608  -0.68744  -0.66755  -0.58126
 Alpha  occ. eigenvalues --   -0.48394  -0.44322  -0.42350
 Alpha virt. eigenvalues --    0.21193   0.26167   0.32488   0.33325   0.80471
 Alpha virt. eigenvalues --    0.80500   0.90141   0.97071   1.01181   1.18023
 Alpha virt. eigenvalues --    1.19894   1.23484   1.25974   1.29014   2.49586

 Mulliken charges:
               1
     1  O   -0.716226
     2  H    0.341277
     3  H    0.367140
     4  O   -0.686757
     5  H    0.350542
     6  H    0.344024
 Sum of Mulliken charges =   0.00000

 Dipole moment (field-independent basis, Debye):
    X=             -0.9909    Y=             -0.2765    Z=              0.0000  Tot=              1.0288
 Quadrupole moment (field-independent basis, Debye-Ang):
   XX=             -8.7005   YY=             -3.6438   ZZ=            -15.0151
   XY=             -0.6406   XZ=              0.0000   YZ=              0.0000

 P4DQ=-33.8418344\MP4SDQ=-33.8440993\CCSD=-33.8450979\CCSD(T)=-33.84803
 Normal termination of Gaussian 16 at Sun Dec 10 06:32:23 2023.
