 Gaussian 16, Revision A.03,
 Gaussian 16:  ES64L-G16RevA.03 25-Dec-2016

 ------------------
 #p CCSD(T)/CEP-31G
 ------------------

 ------------
 H2O_H2O_1329
 ------------
 Symbolic Z-matrix:
 Charge =  0 Multiplicity = 1

                         Standard orientation:
 ---------------------------------------------------------------------
 Center     Atomic      Atomic             Coordinates (Angstroms)
 Number     Number       Type             X           Y           Z
 ---------------------------------------------------------------------
      1          8           0        0.014784   -1.506181    0.000000
      2          1           0       -0.785269   -2.076639    0.000000
      3          1           0        0.813872   -2.077988    0.000000
      4          8           0        0.014784    1.510049    0.000000
      5          1           0        0.639931    2.268137    0.000000
      6          1           0       -0.905072    1.855552    0.000000
 ---------------------------------------------------------------------

 SCF Done:  E(RHF) =  -33.6410265997     A.U. after   11 cycles
 E2 =    -0.2292237025D+00 EUMP2 =    -0.33870250302168D+02
 CCSD(T)
 CCSD(T)= -0.33887602779D+02

 The electronic state is 1-A'.
 Alpha  occ. eigenvalues --   -1.33346  -1.33126  -0.68950  -0.68744  -0.53736
 Alpha  occ. eigenvalues --   -0.51019  -0.47925  -0.47408
 Alpha virt. eigenvalues --    0.21203   0.22991   0.32089   0.32423   0.78132
 Alpha virt. eigenvalues --    0.79961   0.82609   0.85927   0.96729   1.08583
 Alpha virt. eigenvalues --    1.19166   1.19785   1.23797   1.24134   2.59634

 Mulliken charges:
               1
     1  O   -0.709944
     2  H    0.352045
     3  H    0.357782
     4  O   -0.708422
     5  H    0.351847
     6  H    0.356692
 Sum of Mulliken charges =   0.00000

 Dipole moment (field-independent basis, Debye):
    X=             -0.6602    Y=             -0.0965    Z=              0.0000  Tot=              0.6672
 Quadrupole moment (field-independent basis, Debye-Ang):
   XX=             -8.3102   YY=              3.2759   ZZ=            -14.9846
   XY=             -0.6425   XZ=              0.0000   YZ=              0.0000

 \MP4DQ=-33.8817984\MP4SDQ=-33.8838877\CCSD=-33.884965\CCSD(T)=-33.8876
 Normal termination of Gaussian 16 at Sun Dec 10 06:49:36 2023.
