 Gaussian 16, Revision A.03,
 Gaussian 16:  ES64L-G16RevA.03 25-Dec-2016

 ------------------
 #p CCSD(T)/CEP-31G
 ------------------

 ------------
 H2O_H2O_3536
 ------------
 Symbolic Z-matrix:
 Charge =  0 Multiplicity = 1

                         Standard orientation:
 ---------------------------------------------------------------------
 Center     Atomic      Atomic             Coordinates (Angstroms)
 Number     Number       Type             X           Y           Z
 ---------------------------------------------------------------------
      1          8           0        0.037675   -2.662976    0.000000
      2          1           0       -0.762587   -3.233140    0.000000
      3          1           0        0.836553   -3.235076    0.000000
      4          8           0        0.037675    2.691232    0.000000
      5          1           0        0.263409    3.647553    0.000000
      6          1           0       -0.940167    2.594621    0.000000
 ---------------------------------------------------------------------

 SCF Done:  E(RHF) =  -33.6504552577     A.U. after   11 cycles
 E2 =    -0.2284656730D+00 EUMP2 =    -0.33878920930705D+02
 CCSD(T)
 CCSD(T)= -0.33895959763D+02

 The electronic state is 1-A'.
 Alpha  occ. eigenvalues --   -1.35025  -1.34726  -0.70653  -0.70344  -0.54685
 Alpha  occ. eigenvalues --   -0.54385  -0.49577  -0.49279
 Alpha virt. eigenvalues --    0.20670   0.20979   0.30905   0.31196   0.80976
 Alpha virt. eigenvalues --    0.81270   0.84031   0.84517   0.87188   0.87565
 Alpha virt. eigenvalues --    1.17820   1.18116   1.22290   1.22586   2.57869

 Mulliken charges:
               1
     1  O   -0.736447
     2  H    0.366677
     3  H    0.369770
     4  O   -0.735898
     5  H    0.365605
     6  H    0.370293
 Sum of Mulliken charges =  -0.00000

 Dipole moment (field-independent basis, Debye):
    X=             -1.7350    Y=             -0.6650    Z=              0.0000  Tot=              1.8581
 Quadrupole moment (field-independent basis, Debye-Ang):
   XX=             -8.9632   YY=             13.6391   ZZ=            -14.9869
   XY=             -3.8416   XZ=              0.0000   YZ=              0.0000

 \MP4DQ=-33.890305\MP4SDQ=-33.8923365\CCSD=-33.8933937\CCSD(T)=-33.8959
 Normal termination of Gaussian 16 at Sun Dec 10 06:43:32 2023.
