 Gaussian 16, Revision A.03,
 Gaussian 16:  ES64L-G16RevA.03 25-Dec-2016

 ------------------
 #p CCSD(T)/CEP-31G
 ------------------

 -----------
 H2O_H2O_433
 -----------
 Symbolic Z-matrix:
 Charge =  0 Multiplicity = 1

                         Standard orientation:
 ---------------------------------------------------------------------
 Center     Atomic      Atomic             Coordinates (Angstroms)
 Number     Number       Type             X           Y           Z
 ---------------------------------------------------------------------
      1          8           0        0.028575   -1.021390    0.000000
      2          1           0       -0.772359   -1.590610    0.000000
      3          1           0        0.826779   -1.594431    0.000000
      4          8           0        0.028575    1.036557    0.000000
      5          1           0        0.437595    1.929983    0.000000
      6          1           0       -0.949211    1.133722    0.000000
 ---------------------------------------------------------------------

 SCF Done:  E(RHF) =  -33.6032838801     A.U. after   11 cycles
 E2 =    -0.2319326038D+00 EUMP2 =    -0.33835216483920D+02
 CCSD(T)
 CCSD(T)= -0.33852471559D+02

 The electronic state is 1-A'.
 Alpha  occ. eigenvalues --   -1.33504  -1.30748  -0.68842  -0.66911  -0.57678
 Alpha  occ. eigenvalues --   -0.48402  -0.44511  -0.43111
 Alpha virt. eigenvalues --    0.21089   0.26107   0.32404   0.33276   0.80285
 Alpha virt. eigenvalues --    0.81013   0.90096   0.97941   1.00120   1.16936
 Alpha virt. eigenvalues --    1.19750   1.23530   1.25640   1.29434   2.50164

 Mulliken charges:
               1
     1  O   -0.720770
     2  H    0.341729
     3  H    0.369462
     4  O   -0.684459
     5  H    0.349516
     6  H    0.344522
 Sum of Mulliken charges =   0.00000

 Dipole moment (field-independent basis, Debye):
    X=             -1.1293    Y=             -0.3597    Z=              0.0000  Tot=              1.1852
 Quadrupole moment (field-independent basis, Debye-Ang):
   XX=             -8.7944   YY=             -3.4545   ZZ=            -15.0113
   XY=             -0.7653   XZ=              0.0000   YZ=              0.0000

 MP4DQ=-33.8462986\MP4SDQ=-33.8485513\CCSD=-33.849561\CCSD(T)=-33.85247
 Normal termination of Gaussian 16 at Sun Dec 10 06:32:52 2023.
