 Gaussian 16, Revision A.03,
 Gaussian 16:  ES64L-G16RevA.03 25-Dec-2016

 ------------------
 #p CCSD(T)/CEP-31G
 ------------------

 -----------
 H2O_H2O_739
 -----------
 Symbolic Z-matrix:
 Charge =  0 Multiplicity = 1

                         Standard orientation:
 ---------------------------------------------------------------------
 Center     Atomic      Atomic             Coordinates (Angstroms)
 Number     Number       Type             X           Y           Z
 ---------------------------------------------------------------------
      1          8           0        0.045384   -1.165067    0.000000
      2          1           0       -0.756059   -1.733569    0.000000
      3          1           0        0.843074   -1.738823    0.000000
      4          8           0        0.045384    1.209459    0.000000
      5          1           0        0.082249    2.191369    0.000000
      6          1           0       -0.895411    0.925889    0.000000
 ---------------------------------------------------------------------

 SCF Done:  E(RHF) =  -33.6340865473     A.U. after   11 cycles
 E2 =    -0.2305175692D+00 EUMP2 =    -0.33864604116513D+02
 CCSD(T)
 CCSD(T)= -0.33881959434D+02

 The electronic state is 1-A'.
 Alpha  occ. eigenvalues --   -1.34179  -1.31763  -0.69806  -0.67738  -0.55019
 Alpha  occ. eigenvalues --   -0.48934  -0.48844  -0.46014
 Alpha virt. eigenvalues --    0.20276   0.25518   0.31561   0.33227   0.78552
 Alpha virt. eigenvalues --    0.83640   0.89013   0.91762   0.96616   1.15207
 Alpha virt. eigenvalues --    1.18935   1.22178   1.23658   1.30687   2.57624

 Mulliken charges:
               1
     1  O   -0.738589
     2  H    0.349573
     3  H    0.379242
     4  O   -0.690054
     5  H    0.339877
     6  H    0.359951
 Sum of Mulliken charges =   0.00000

 Dipole moment (field-independent basis, Debye):
    X=             -1.9118    Y=             -1.0983    Z=              0.0000  Tot=              2.2049
 Quadrupole moment (field-independent basis, Debye-Ang):
   XX=             -9.4426   YY=             -1.8843   ZZ=            -14.9948
   XY=             -1.8776   XZ=              0.0000   YZ=              0.0000

 4DQ=-33.8759707\MP4SDQ=-33.8781492\CCSD=-33.8792027\CCSD(T)=-33.881959
 Normal termination of Gaussian 16 at Sun Dec 10 06:38:33 2023.
