 Gaussian 16, Revision A.03,
 Gaussian 16:  ES64L-G16RevA.03 25-Dec-2016

 ------------------
 #p CCSD(T)/CEP-31G
 ------------------

 -----------
 H2O_H2O_136
 -----------
 Symbolic Z-matrix:
 Charge =  0 Multiplicity = 1

                         Standard orientation:
 ---------------------------------------------------------------------
 Center     Atomic      Atomic             Coordinates (Angstroms)
 Number     Number       Type             X           Y           Z
 ---------------------------------------------------------------------
      1          8           0        0.037710   -0.854832    0.000000
      2          1           0       -0.763986   -1.422977    0.000000
      3          1           0        0.835145   -1.428943    0.000000
      4          8           0        0.037710    0.882897    0.000000
      5          1           0        0.265853    1.838646    0.000000
      6          1           0       -0.940372    0.788751    0.000000
 ---------------------------------------------------------------------

 SCF Done:  E(RHF) =  -33.5310528318     A.U. after   12 cycles
 E2 =    -0.2357523827D+00 EUMP2 =    -0.33766805214489D+02
 CCSD(T)
 CCSD(T)= -0.33783688769D+02

 The electronic state is 1-A'.
 Alpha  occ. eigenvalues --   -1.36728  -1.29305  -0.71868  -0.68199  -0.59568
 Alpha  occ. eigenvalues --   -0.51238  -0.43134  -0.37251
 Alpha virt. eigenvalues --    0.20483   0.28218   0.31426   0.33492   0.81366
 Alpha virt. eigenvalues --    0.84486   0.89421   0.93531   0.98637   1.19692
 Alpha virt. eigenvalues --    1.21017   1.25514   1.26741   1.36360   2.54022

 Mulliken charges:
               1
     1  O   -0.741210
     2  H    0.337391
     3  H    0.386143
     4  O   -0.659058
     5  H    0.333041
     6  H    0.343694
 Sum of Mulliken charges =  -0.00000

 Dipole moment (field-independent basis, Debye):
    X=             -1.3814    Y=             -0.7252    Z=              0.0000  Tot=              1.5602
 Quadrupole moment (field-independent basis, Debye-Ang):
   XX=             -9.1889   YY=             -6.6802   ZZ=            -14.9823
   XY=             -0.9602   XZ=              0.0000   YZ=              0.0000

 MP4DQ=-33.7770416\MP4SDQ=-33.7796525\CCSD=-33.7803825\CCSD(T)=-33.7836
 Normal termination of Gaussian 16 at Sun Dec 10 06:27:17 2023.
