 Gaussian 16, Revision A.03,
 Gaussian 16:  ES64L-G16RevA.03 25-Dec-2016

 ------------------
 #p CCSD(T)/CEP-31G
 ------------------

 ------------
 H2O_H2O_3525
 ------------
 Symbolic Z-matrix:
 Charge =  0 Multiplicity = 1

                         Standard orientation:
 ---------------------------------------------------------------------
 Center     Atomic      Atomic             Coordinates (Angstroms)
 Number     Number       Type             X           Y           Z
 ---------------------------------------------------------------------
      1          8           0        0.000000   -0.000000    2.678322
      2          1           0        0.000000    0.799571    3.249454
      3          1           0       -0.000000   -0.799571    3.249454
      4          8           0        0.000000   -0.000000   -2.678322
      5          1           0       -0.000000   -0.799571   -3.249454
      6          1           0        0.000000    0.799571   -3.249454
 ---------------------------------------------------------------------

 SCF Done:  E(RHF) =  -33.6498150195     A.U. after   10 cycles
 E2 =    -0.2284877688D+00 EUMP2 =    -0.33878302788320D+02
 CCSD(T)
 CCSD(T)= -0.33895359903D+02

 The electronic state is 1-AG.
 Alpha  occ. eigenvalues --   -1.34755  -1.34755  -0.70380  -0.70380  -0.54387
 Alpha  occ. eigenvalues --   -0.54368  -0.49297  -0.49296
 Alpha virt. eigenvalues --    0.20891   0.20926   0.31134   0.31140   0.81247
 Alpha virt. eigenvalues --    0.81266   0.84244   0.84724   0.87482   0.87527
 Alpha virt. eigenvalues --    1.18063   1.18064   1.22535   1.22542   2.58119

 Mulliken charges:
               1
     1  O   -0.734167
     2  H    0.367084
     3  H    0.367084
     4  O   -0.734167
     5  H    0.367084
     6  H    0.367084
 Sum of Mulliken charges =  -0.00000

 Dipole moment (field-independent basis, Debye):
    X=             -0.0000    Y=              0.0000    Z=              0.0000  Tot=              0.0000
 Quadrupole moment (field-independent basis, Debye-Ang):
   XX=            -14.9859   YY=             -8.0507   ZZ=             16.3607
   XY=              0.0000   XZ=              0.0000   YZ=             -0.0000

 33.8897002\MP4SDQ=-33.8917332\CCSD=-33.892792\CCSD(T)=-33.8953599\RMSD
 Normal termination of Gaussian 16 at Sun Dec 10 06:43:20 2023.
