 Gaussian 16, Revision A.03,
 Gaussian 16:  ES64L-G16RevA.03 25-Dec-2016

 ------------------
 #p CCSD(T)/CEP-31G
 ------------------

 ------------
 H2O_H2O_4095
 ------------
 Symbolic Z-matrix:
 Charge =  0 Multiplicity = 1

                         Standard orientation:
 ---------------------------------------------------------------------
 Center     Atomic      Atomic             Coordinates (Angstroms)
 Number     Number       Type             X           Y           Z
 ---------------------------------------------------------------------
      1          8           0        0.055235   -2.924949    0.000000
      2          1           0       -0.745249   -3.494801    0.000000
      3          1           0        0.853891   -3.497360    0.000000
      4          8           0        0.055235    3.009435    0.000000
      5          1           0       -0.288019    3.930132    0.000000
      6          1           0       -0.704379    2.386144    0.000000
 ---------------------------------------------------------------------

 SCF Done:  E(RHF) =  -33.6517470084     A.U. after   11 cycles
 E2 =    -0.2283931325D+00 EUMP2 =    -0.33880140140871D+02
 CCSD(T)
 CCSD(T)= -0.33897141380D+02

 The electronic state is 1-A'.
 Alpha  occ. eigenvalues --   -1.35559  -1.34842  -0.71192  -0.70459  -0.55292
 Alpha  occ. eigenvalues --   -0.54565  -0.50130  -0.49413
 Alpha virt. eigenvalues --    0.20209   0.20949   0.30450   0.31177   0.80423
 Alpha virt. eigenvalues --    0.81128   0.83446   0.84175   0.86560   0.87350
 Alpha virt. eigenvalues --    1.17341   1.18054   1.21799   1.22526   2.57358

 Mulliken charges:
               1
     1  O   -0.740995
     2  H    0.368880
     3  H    0.372116
     4  O   -0.740627
     5  H    0.366861
     6  H    0.373766
 Sum of Mulliken charges =  -0.00000

 Dipole moment (field-independent basis, Debye):
    X=             -2.5474    Y=             -1.9808    Z=              0.0000  Tot=              3.2269
 Quadrupole moment (field-independent basis, Debye-Ang):
   XX=            -10.0195   YY=              9.4502   ZZ=            -14.9888
   XY=             -7.3630   XZ=              0.0000   YZ=              0.0000

 MP4DQ=-33.8914969\MP4SDQ=-33.8935247\CCSD=-33.8945798\CCSD(T)=-33.8971
 Normal termination of Gaussian 16 at Sun Dec 10 06:53:51 2023.
