 Gaussian 16, Revision A.03,
 Gaussian 16:  ES64L-G16RevA.03 25-Dec-2016

 ------------------
 #p CCSD(T)/CEP-31G
 ------------------

 ------------
 H2O_H2O_1541
 ------------
 Symbolic Z-matrix:
 Charge =  0 Multiplicity = 1

                         Standard orientation:
 ---------------------------------------------------------------------
 Center     Atomic      Atomic             Coordinates (Angstroms)
 Number     Number       Type             X           Y           Z
 ---------------------------------------------------------------------
      1          8           0        0.049537   -1.583771    0.000000
      2          1           0       -0.751540   -2.152789    0.000000
      3          1           0        0.847596   -2.157013    0.000000
      4          8           0        0.049537    1.640622    0.000000
      5          1           0       -0.042709    2.618885    0.000000
      6          1           0       -0.845935    1.236103    0.000000
 ---------------------------------------------------------------------

 SCF Done:  E(RHF) =  -33.6486921321     A.U. after   11 cycles
 E2 =    -0.2290508136D+00 EUMP2 =    -0.33877742945704D+02
 CCSD(T)
 CCSD(T)= -0.33894894799D+02

 The electronic state is 1-A'.
 Alpha  occ. eigenvalues --   -1.34927  -1.33191  -0.70564  -0.68749  -0.54606
 Alpha  occ. eigenvalues --   -0.52623  -0.49467  -0.47728
 Alpha virt. eigenvalues --    0.19919   0.23395   0.30877   0.32617   0.75522
 Alpha virt. eigenvalues --    0.79534   0.84442   0.85427   0.89073   1.08668
 Alpha virt. eigenvalues --    1.17786   1.20928   1.22368   1.25297   2.57204

 Mulliken charges:
               1
     1  O   -0.732380
     2  H    0.358535
     3  H    0.374374
     4  O   -0.724272
     5  H    0.349994
     6  H    0.373748
 Sum of Mulliken charges =  -0.00000

 Dipole moment (field-independent basis, Debye):
    X=             -2.2235    Y=             -1.4144    Z=              0.0000  Tot=              2.6352
 Quadrupole moment (field-independent basis, Debye-Ang):
   XX=             -9.6373   YY=              1.8236   ZZ=            -14.9888
   XY=             -3.1462   XZ=              0.0000   YZ=              0.0000

 1\MP4DQ=-33.8891473\MP4SDQ=-33.8912337\CCSD=-33.89228\CCSD(T)=-33.8948
 Normal termination of Gaussian 16 at Sun Dec 10 06:53:32 2023.
