 Gaussian 16, Revision A.03,
 Gaussian 16:  ES64L-G16RevA.03 25-Dec-2016

 ------------------
 #p CCSD(T)/CEP-31G
 ------------------

 ------------
 H2O_H2O_2645
 ------------
 Symbolic Z-matrix:
 Charge =  0 Multiplicity = 1

                         Standard orientation:
 ---------------------------------------------------------------------
 Center     Atomic      Atomic             Coordinates (Angstroms)
 Number     Number       Type             X           Y           Z
 ---------------------------------------------------------------------
      1          8           0        0.055259   -2.153818    0.000000
      2          1           0       -0.745546   -2.723220    0.000000
      3          1           0        0.853593   -2.726678    0.000000
      4          8           0        0.055259    2.238242    0.000000
      5          1           0       -0.287478    3.159132    0.000000
      6          1           0       -0.704705    1.615378    0.000000
 ---------------------------------------------------------------------

 SCF Done:  E(RHF) =  -33.6518195130     A.U. after   11 cycles
 E2 =    -0.2284725366D+00 EUMP2 =    -0.33880292049638D+02
 CCSD(T)
 CCSD(T)= -0.33897292782D+02

 The electronic state is 1-A'.
 Alpha  occ. eigenvalues --   -1.35564  -1.34195  -0.71198  -0.69782  -0.55302
 Alpha  occ. eigenvalues --   -0.53905  -0.50134  -0.48768
 Alpha virt. eigenvalues --    0.19978   0.21804   0.30413   0.31856   0.80400
 Alpha virt. eigenvalues --    0.81777   0.81995   0.85376   0.86496   0.89346
 Alpha virt. eigenvalues --    1.17337   1.18812   1.21744   1.23487   2.57327

 Mulliken charges:
               1
     1  O   -0.741208
     2  H    0.366938
     3  H    0.374438
     4  O   -0.739701
     5  H    0.361877
     6  H    0.377656
 Sum of Mulliken charges =  -0.00000

 Dipole moment (field-independent basis, Debye):
    X=             -2.5330    Y=             -2.0184    Z=              0.0000  Tot=              3.2388
 Quadrupole moment (field-independent basis, Debye-Ang):
   XX=            -10.0129   YY=              4.2036   ZZ=            -14.9898
   XY=             -5.4268   XZ=              0.0000   YZ=              0.0000

 \MP4DQ=-33.8916428\MP4SDQ=-33.8936755\CCSD=-33.8947257\CCSD(T)=-33.897
 Normal termination of Gaussian 16 at Sun Dec 10 06:27:26 2023.
