 Gaussian 16, Revision A.03,
 Gaussian 16:  ES64L-G16RevA.03 25-Dec-2016

 ------------------
 #p CCSD(T)/CEP-31G
 ------------------

 ------------
 H2O_H2O_3618
 ------------
 Symbolic Z-matrix:
 Charge =  0 Multiplicity = 1

                         Standard orientation:
 ---------------------------------------------------------------------
 Center     Atomic      Atomic             Coordinates (Angstroms)
 Number     Number       Type             X           Y           Z
 ---------------------------------------------------------------------
      1          8           0        0.052825   -2.680010    0.000000
      2          1           0       -0.747701   -3.249804    0.000000
      3          1           0        0.851439   -3.252479    0.000000
      4          8           0        0.052825    2.750347    0.000000
      5          1           0       -0.167248    3.707987    0.000000
      6          1           0       -0.781684    2.231598    0.000000
 ---------------------------------------------------------------------

 SCF Done:  E(RHF) =  -33.6514357085     A.U. after   11 cycles
 E2 =    -0.2284194161D+00 EUMP2 =    -0.33879855124591D+02
 CCSD(T)
 CCSD(T)= -0.33896865498D+02

 The electronic state is 1-A'.
 Alpha  occ. eigenvalues --   -1.35427  -1.34705  -0.71059  -0.70317  -0.55143
 Alpha  occ. eigenvalues --   -0.54412  -0.49993  -0.49272
 Alpha virt. eigenvalues --    0.20319   0.21071   0.30562   0.31287   0.80560
 Alpha virt. eigenvalues --    0.81268   0.83585   0.84362   0.86714   0.87543
 Alpha virt. eigenvalues --    1.17459   1.18176   1.21920   1.22651   2.57481

 Mulliken charges:
               1
     1  O   -0.739914
     2  H    0.367937
     3  H    0.371978
     4  O   -0.739253
     5  H    0.365700
     6  H    0.373552
 Sum of Mulliken charges =  -0.00000

 Dipole moment (field-independent basis, Debye):
    X=             -2.4334    Y=             -1.6551    Z=              0.0000  Tot=              2.9429
 Quadrupole moment (field-independent basis, Debye-Ang):
   XX=             -9.8484   YY=              9.4130   ZZ=            -14.9884
   XY=             -6.1926   XZ=              0.0000   YZ=              0.0000

 MP4DQ=-33.8912184\MP4SDQ=-33.8932473\CCSD=-33.8943025\CCSD(T)=-33.8968
 Normal termination of Gaussian 16 at Sun Dec 10 06:45:02 2023.
