 Gaussian 16, Revision A.03,
 Gaussian 16:  ES64L-G16RevA.03 25-Dec-2016

 ------------------
 #p CCSD(T)/CEP-31G
 ------------------

 -----------
 H2O_H2O_142
 -----------
 Symbolic Z-matrix:
 Charge =  0 Multiplicity = 1

                         Standard orientation:
 ---------------------------------------------------------------------
 Center     Atomic      Atomic             Coordinates (Angstroms)
 Number     Number       Type             X           Y           Z
 ---------------------------------------------------------------------
      1          8           0        0.051385   -0.835756    0.000000
      2          1           0       -0.751080   -1.402816    0.000000
      3          1           0        0.848042   -1.410945    0.000000
      4          8           0        0.051385    0.898940    0.000000
      5          1           0       -0.102274    1.869452    0.000000
      6          1           0       -0.816840    0.438839    0.000000
 ---------------------------------------------------------------------

 SCF Done:  E(RHF) =  -33.5219363464     A.U. after   11 cycles
 E2 =    -0.2354530699D+00 EUMP2 =    -0.33757389416359D+02
 CCSD(T)
 CCSD(T)= -0.33774220891D+02

 The electronic state is 1-A'.
 Alpha  occ. eigenvalues --   -1.39088  -1.29064  -0.75099  -0.70290  -0.54711
 Alpha  occ. eigenvalues --   -0.52758  -0.43345  -0.40870
 Alpha virt. eigenvalues --    0.19647   0.29212   0.30164   0.33966   0.80167
 Alpha virt. eigenvalues --    0.83783   0.89475   0.95757   0.97141   1.18382
 Alpha virt. eigenvalues --    1.21479   1.25973   1.28888   1.37043   2.63973

 Mulliken charges:
               1
     1  O   -0.781763
     2  H    0.347533
     3  H    0.410989
     4  O   -0.635838
     5  H    0.301512
     6  H    0.357566
 Sum of Mulliken charges =  -0.00000

 Dipole moment (field-independent basis, Debye):
    X=             -1.8669    Y=             -1.6487    Z=              0.0000  Tot=              2.4907
 Quadrupole moment (field-independent basis, Debye-Ang):
   XX=             -9.8030   YY=             -7.2481   ZZ=            -14.9438
   XY=             -1.5942   XZ=              0.0000   YZ=              0.0000

 P4DQ=-33.7675255\MP4SDQ=-33.7701588\CCSD=-33.7708521\CCSD(T)=-33.77422
 Normal termination of Gaussian 16 at Sun Dec 10 06:27:24 2023.
