 Gaussian 16, Revision A.03,
 Gaussian 16:  ES64L-G16RevA.03 25-Dec-2016

 ------------------
 #p CCSD(T)/CEP-31G
 ------------------

 ------------
 H2O_H2O_4753
 ------------
 Symbolic Z-matrix:
 Charge =  0 Multiplicity = 1

                         Standard orientation:
 ---------------------------------------------------------------------
 Center     Atomic      Atomic             Coordinates (Angstroms)
 Number     Number       Type             X           Y           Z
 ---------------------------------------------------------------------
      1          8           0        0.011143   -3.328633    0.000000
      2          1           0       -0.788593   -3.899535    0.000000
      3          1           0        0.810549   -3.899996    0.000000
      4          8           0        0.011143    3.330822    0.000000
      5          1           0        0.684134    4.046774    0.000000
      6          1           0       -0.884371    3.735249    0.000000
 ---------------------------------------------------------------------

 SCF Done:  E(RHF) =  -33.6508013068     A.U. after   11 cycles
 E2 =    -0.2284296392D+00 EUMP2 =    -0.33879230946089D+02
 CCSD(T)
 CCSD(T)= -0.33896259752D+02

 The electronic state is 1-A'.
 Alpha  occ. eigenvalues --   -1.35066  -1.35051  -0.70694  -0.70679  -0.54746
 Alpha  occ. eigenvalues --   -0.54731  -0.49622  -0.49607
 Alpha virt. eigenvalues --    0.20651   0.20666   0.30883   0.30898   0.80932
 Alpha virt. eigenvalues --    0.80946   0.84051   0.84066   0.87128   0.87145
 Alpha virt. eigenvalues --    1.17794   1.17808   1.22259   1.22274   2.57835

 Mulliken charges:
               1
     1  O   -0.737593
     2  H    0.368544
     3  H    0.369049
     4  O   -0.737573
     5  H    0.368427
     6  H    0.369146
 Sum of Mulliken charges =   0.00000

 Dipole moment (field-independent basis, Debye):
    X=             -0.5146    Y=             -0.0511    Z=              0.0000  Tot=              0.5171
 Quadrupole moment (field-independent basis, Debye-Ang):
   XX=             -8.1162   YY=             23.0697   ZZ=            -14.9870
   XY=             -1.3733   XZ=              0.0000   YZ=              0.0000

 MP4DQ=-33.8906079\MP4SDQ=-33.8926382\CCSD=-33.8936956\CCSD(T)=-33.8962
 Normal termination of Gaussian 16 at Sun Dec 10 07:07:15 2023.
