 Gaussian 16, Revision A.03,
 Gaussian 16:  ES64L-G16RevA.03 25-Dec-2016

 ------------------
 #p CCSD(T)/CEP-31G
 ------------------

 ------------
 H2O_H2O_4353
 ------------
 Symbolic Z-matrix:
 Charge =  0 Multiplicity = 1

                         Standard orientation:
 ---------------------------------------------------------------------
 Center     Atomic      Atomic             Coordinates (Angstroms)
 Number     Number       Type             X           Y           Z
 ---------------------------------------------------------------------
      1          8           0        0.011143   -3.115899    0.000000
      2          1           0       -0.788604   -3.686785    0.000000
      3          1           0        0.810538   -3.687277    0.000000
      4          8           0        0.011143    3.118087    0.000000
      5          1           0        0.684148    3.834027    0.000000
      6          1           0       -0.884363    3.522531    0.000000
 ---------------------------------------------------------------------

 SCF Done:  E(RHF) =  -33.6505765593     A.U. after   11 cycles
 E2 =    -0.2284430561D+00 EUMP2 =    -0.33879019615472D+02
 CCSD(T)
 CCSD(T)= -0.33896054831D+02

 The electronic state is 1-A'.
 Alpha  occ. eigenvalues --   -1.34989  -1.34972  -0.70617  -0.70599  -0.54656
 Alpha  occ. eigenvalues --   -0.54640  -0.49542  -0.49525
 Alpha virt. eigenvalues --    0.20715   0.20732   0.30946   0.30963   0.81011
 Alpha virt. eigenvalues --    0.81028   0.84149   0.84177   0.87220   0.87240
 Alpha virt. eigenvalues --    1.17861   1.17877   1.22328   1.22345   2.57907

 Mulliken charges:
               1
     1  O   -0.736807
     2  H    0.368100
     3  H    0.368707
     4  O   -0.736779
     5  H    0.367966
     6  H    0.368814
 Sum of Mulliken charges =  -0.00000

 Dipole moment (field-independent basis, Debye):
    X=             -0.5143    Y=             -0.0512    Z=              0.0000  Tot=              0.5168
 Quadrupole moment (field-independent basis, Debye-Ang):
   XX=             -8.1196   YY=             20.8187   ZZ=            -14.9867
   XY=             -1.2653   XZ=              0.0000   YZ=              0.0000

 \MP4DQ=-33.8904012\MP4SDQ=-33.8924321\CCSD=-33.8934898\CCSD(T)=-33.896
 Normal termination of Gaussian 16 at Sun Dec 10 06:58:23 2023.
