 Gaussian 16, Revision A.03,
 Gaussian 16:  ES64L-G16RevA.03 25-Dec-2016

 ------------------
 #p CCSD(T)/CEP-31G
 ------------------

 ------------
 H2O_H2O_2795
 ------------
 Symbolic Z-matrix:
 Charge =  0 Multiplicity = 1

                         Standard orientation:
 ---------------------------------------------------------------------
 Center     Atomic      Atomic             Coordinates (Angstroms)
 Number     Number       Type             X           Y           Z
 ---------------------------------------------------------------------
      1          8           0        0.055255   -2.233590    0.000000
      2          1           0       -0.745506   -2.803052    0.000000
      3          1           0        0.853633   -2.806389    0.000000
      4          8           0        0.055255    2.318022    0.000000
      5          1           0       -0.287551    3.238885    0.000000
      6          1           0       -0.704661    1.695099    0.000000
 ---------------------------------------------------------------------

 SCF Done:  E(RHF) =  -33.6517953569     A.U. after   11 cycles
 E2 =    -0.2284521166D+00 EUMP2 =    -0.33880247473506D+02
 CCSD(T)
 CCSD(T)= -0.33897248149D+02

 The electronic state is 1-A'.
 Alpha  occ. eigenvalues --   -1.35559  -1.34293  -0.71193  -0.69885  -0.55296
 Alpha  occ. eigenvalues --   -0.54005  -0.50129  -0.48866
 Alpha virt. eigenvalues --    0.20054   0.21644   0.30429   0.31746   0.80418
 Alpha virt. eigenvalues --    0.81668   0.82535   0.85178   0.86517   0.88637
 Alpha virt. eigenvalues --    1.17342   1.18664   1.21765   1.23267   2.57364

 Mulliken charges:
               1
     1  O   -0.741164
     2  H    0.367234
     3  H    0.374031
     4  O   -0.739861
     5  H    0.362709
     6  H    0.377051
 Sum of Mulliken charges =  -0.00000

 Dipole moment (field-independent basis, Debye):
    X=             -2.5356    Y=             -2.0114    Z=              0.0000  Tot=              3.2366
 Quadrupole moment (field-independent basis, Debye-Ang):
   XX=            -10.0139   YY=              4.7500   ZZ=            -14.9896
   XY=             -5.6256   XZ=              0.0000   YZ=              0.0000

 3\MP4DQ=-33.8916002\MP4SDQ=-33.8936311\CCSD=-33.8946827\CCSD(T)=-33.89
 Normal termination of Gaussian 16 at Sun Dec 10 06:30:14 2023.
