 Gaussian 16, Revision A.03,
 Gaussian 16:  ES64L-G16RevA.03 25-Dec-2016

 ------------------
 #p CCSD(T)/CEP-31G
 ------------------

 ------------
 H2O_H2O_1142
 ------------
 Symbolic Z-matrix:
 Charge =  0 Multiplicity = 1

                         Standard orientation:
 ---------------------------------------------------------------------
 Center     Atomic      Atomic             Coordinates (Angstroms)
 Number     Number       Type             X           Y           Z
 ---------------------------------------------------------------------
      1          8           0        0.051323   -1.367489    0.000000
      2          1           0       -0.750044   -1.936098    0.000000
      3          1           0        0.849090   -1.941138    0.000000
      4          8           0        0.051323    1.430871    0.000000
      5          1           0       -0.104211    2.401085    0.000000
      6          1           0       -0.816010    0.969093    0.000000
 ---------------------------------------------------------------------

 SCF Done:  E(RHF) =  -33.6468585466     A.U. after   11 cycles
 E2 =    -0.2295855772D+00 EUMP2 =    -0.33876444123809D+02
 CCSD(T)
 CCSD(T)= -0.33893669982D+02

 The electronic state is 1-A'.
 Alpha  occ. eigenvalues --   -1.34987  -1.32475  -0.70634  -0.68139  -0.54734
 Alpha  occ. eigenvalues --   -0.51702  -0.49548  -0.46983
 Alpha virt. eigenvalues --    0.19793   0.24665   0.30871   0.33246   0.78360
 Alpha virt. eigenvalues --    0.79454   0.86147   0.86643   0.91346   1.15821
 Alpha virt. eigenvalues --    1.18024   1.21647   1.22546   1.28176   2.61879

 Mulliken charges:
               1
     1  O   -0.737591
     2  H    0.356212
     3  H    0.380024
     4  O   -0.715942
     5  H    0.342852
     6  H    0.374446
 Sum of Mulliken charges =   0.00000

 Dipole moment (field-independent basis, Debye):
    X=             -2.2548    Y=             -1.5976    Z=              0.0000  Tot=              2.7634
 Quadrupole moment (field-independent basis, Debye-Ang):
   XX=             -9.7517   YY=             -0.4454   ZZ=            -14.9921
   XY=             -2.8808   XZ=              0.0000   YZ=              0.0000

 \MP4DQ=-33.8878284\MP4SDQ=-33.8899562\CCSD=-33.8910042\CCSD(T)=-33.893
 Normal termination of Gaussian 16 at Sun Dec 10 06:46:06 2023.
