 Gaussian 16, Revision A.03,
 Gaussian 16:  ES64L-G16RevA.03 25-Dec-2016

 ------------------
 #p CCSD(T)/CEP-31G
 ------------------

 ------------
 H2O_H2O_1445
 ------------
 Symbolic Z-matrix:
 Charge =  0 Multiplicity = 1

                         Standard orientation:
 ---------------------------------------------------------------------
 Center     Atomic      Atomic             Coordinates (Angstroms)
 Number     Number       Type             X           Y           Z
 ---------------------------------------------------------------------
      1          8           0        0.055296   -1.515666    0.000000
      2          1           0       -0.746012   -2.084358    0.000000
      3          1           0        0.853122   -2.089233    0.000000
      4          8           0        0.055296    1.599992    0.000000
      5          1           0       -0.286624    2.521185    0.000000
      6          1           0       -0.705219    0.977801    0.000000
 ---------------------------------------------------------------------

 SCF Done:  E(RHF) =  -33.6515136099     A.U. after   11 cycles
 E2 =    -0.2291164171D+00 EUMP2 =    -0.33880630027039D+02
 CCSD(T)
 CCSD(T)= -0.33897712577D+02

 The electronic state is 1-A'.
 Alpha  occ. eigenvalues --   -1.35673  -1.32838  -0.71320  -0.68430  -0.55394
 Alpha  occ. eigenvalues --   -0.52514  -0.50248  -0.47416
 Alpha virt. eigenvalues --    0.19368   0.24249   0.30286   0.33504   0.76310
 Alpha virt. eigenvalues --    0.78715   0.84847   0.86468   0.88808   1.09427
 Alpha virt. eigenvalues --    1.17106   1.20712   1.22008   1.27858   2.55433

 Mulliken charges:
               1
     1  O   -0.743575
     2  H    0.362320
     3  H    0.382326
     4  O   -0.733788
     5  H    0.348120
     6  H    0.384596
 Sum of Mulliken charges =  -0.00000

 Dipole moment (field-independent basis, Debye):
    X=             -2.4741    Y=             -2.1184    Z=              0.0000  Tot=              3.2571
 Quadrupole moment (field-independent basis, Debye-Ang):
   XX=            -10.0015   YY=             -0.3164   ZZ=            -14.9936
   XY=             -3.8469   XZ=              0.0000   YZ=              0.0000

 P4DQ=-33.8919493\MP4SDQ=-33.8940457\CCSD=-33.8950817\CCSD(T)=-33.89771
 Normal termination of Gaussian 16 at Sun Dec 10 06:51:45 2023.
