 Gaussian 16, Revision A.03,
 Gaussian 16:  ES64L-G16RevA.03 25-Dec-2016

 ------------------
 #p CCSD(T)/CEP-31G
 ------------------

 ------------
 H2O_H2O_3135
 ------------
 Symbolic Z-matrix:
 Charge =  0 Multiplicity = 1

                         Standard orientation:
 ---------------------------------------------------------------------
 Center     Atomic      Atomic             Coordinates (Angstroms)
 Number     Number       Type             X           Y           Z
 ---------------------------------------------------------------------
      1          8           0        0.034783   -2.452813    0.000000
      2          1           0       -0.765481   -3.022974    0.000000
      3          1           0        0.833659   -3.024916    0.000000
      4          8           0        0.034783    2.476333    0.000000
      5          1           0        0.322584    3.415842    0.000000
      6          1           0       -0.947284    2.443888    0.000000
 ---------------------------------------------------------------------

 SCF Done:  E(RHF) =  -33.6499450105     A.U. after   11 cycles
 E2 =    -0.2285012008D+00 EUMP2 =    -0.33878446211255D+02
 CCSD(T)
 CCSD(T)= -0.33895499989D+02

 The electronic state is 1-A'.
 Alpha  occ. eigenvalues --   -1.34874  -1.34579  -0.70501  -0.70194  -0.54505
 Alpha  occ. eigenvalues --   -0.54206  -0.49418  -0.49124
 Alpha virt. eigenvalues --    0.20778   0.21112   0.31028   0.31311   0.81129
 Alpha virt. eigenvalues --    0.81428   0.83771   0.85102   0.87372   0.87869
 Alpha virt. eigenvalues --    1.17950   1.18241   1.22424   1.22717   2.58011

 Mulliken charges:
               1
     1  O   -0.734698
     2  H    0.365554
     3  H    0.369146
     4  O   -0.733990
     5  H    0.364402
     6  H    0.369585
 Sum of Mulliken charges =   0.00000

 Dipole moment (field-independent basis, Debye):
    X=             -1.5992    Y=             -0.5561    Z=              0.0000  Tot=              1.6931
 Quadrupole moment (field-independent basis, Debye-Ang):
   XX=             -8.8325   YY=             12.0533   ZZ=            -14.9864
   XY=             -3.1606   XZ=              0.0000   YZ=              0.0000

 P4DQ=-33.8898408\MP4SDQ=-33.8918739\CCSD=-33.8929317\CCSD(T)=-33.8955\
 Normal termination of Gaussian 16 at Sun Dec 10 06:36:19 2023.
