 Gaussian 16, Revision A.03,
 Gaussian 16:  ES64L-G16RevA.03 25-Dec-2016

 ------------------
 #p CCSD(T)/CEP-31G
 ------------------

 ------------
 H2O_H2O_2684
 ------------
 Symbolic Z-matrix:
 Charge =  0 Multiplicity = 1

                         Standard orientation:
 ---------------------------------------------------------------------
 Center     Atomic      Atomic             Coordinates (Angstroms)
 Number     Number       Type             X           Y           Z
 ---------------------------------------------------------------------
      1          8           0        0.031742   -2.215848    0.000000
      2          1           0       -0.768529   -2.785998    0.000000
      3          1           0        0.830612   -2.787961    0.000000
      4          8           0        0.031742    2.235021    0.000000
      5          1           0        0.380385    3.153690    0.000000
      6          1           0       -0.950342    2.266887    0.000000
 ---------------------------------------------------------------------

 SCF Done:  E(RHF) =  -33.6491360443     A.U. after   11 cycles
 E2 =    -0.2285648799D+00 EUMP2 =    -0.33877700924151D+02
 CCSD(T)
 CCSD(T)= -0.33894778577D+02

 The electronic state is 1-A'.
 Alpha  occ. eigenvalues --   -1.34663  -1.34366  -0.70288  -0.69978  -0.54261
 Alpha  occ. eigenvalues --   -0.53928  -0.49196  -0.48900
 Alpha virt. eigenvalues --    0.20865   0.21354   0.31194   0.31475   0.81283
 Alpha virt. eigenvalues --    0.81717   0.82442   0.86170   0.87670   0.89141
 Alpha virt. eigenvalues --    1.18128   1.18422   1.22610   1.22907   2.58198

 Mulliken charges:
               1
     1  O   -0.731940
     2  H    0.363811
     3  H    0.368145
     4  O   -0.730978
     5  H    0.362525
     6  H    0.368436
 Sum of Mulliken charges =  -0.00000

 Dipole moment (field-independent basis, Debye):
    X=             -1.4553    Y=             -0.4570    Z=              0.0000  Tot=              1.5254
 Quadrupole moment (field-independent basis, Debye-Ang):
   XX=             -8.7111   YY=             10.0605   ZZ=            -14.9857
   XY=             -2.5015   XZ=              0.0000   YZ=              0.0000

 MP4DQ=-33.8891111\MP4SDQ=-33.8911478\CCSD=-33.8922057\CCSD(T)=-33.8947
 Normal termination of Gaussian 16 at Sun Dec 10 06:28:10 2023.
