 Gaussian 16, Revision A.03,
 Gaussian 16:  ES64L-G16RevA.03 25-Dec-2016

 ------------------
 #p CCSD(T)/CEP-31G
 ------------------

 ------------
 H2O_H2O_4383
 ------------
 Symbolic Z-matrix:
 Charge =  0 Multiplicity = 1

                         Standard orientation:
 ---------------------------------------------------------------------
 Center     Atomic      Atomic             Coordinates (Angstroms)
 Number     Number       Type             X           Y           Z
 ---------------------------------------------------------------------
      1          8           0        0.028563   -3.122096    0.000000
      2          1           0       -0.771457   -3.692600    0.000000
      3          1           0        0.827685   -3.693856    0.000000
      4          8           0        0.028563    3.137355    0.000000
      5          1           0        0.436149    4.031435    0.000000
      6          1           0       -0.949378    3.232952    0.000000
 ---------------------------------------------------------------------

 SCF Done:  E(RHF) =  -33.6507767112     A.U. after   11 cycles
 E2 =    -0.2284351930D+00 EUMP2 =    -0.33879211904156D+02
 CCSD(T)
 CCSD(T)= -0.33896241377D+02

 The electronic state is 1-A'.
 Alpha  occ. eigenvalues --   -1.35086  -1.34969  -0.70715  -0.70595  -0.54765
 Alpha  occ. eigenvalues --   -0.54648  -0.49643  -0.49526
 Alpha virt. eigenvalues --    0.20629   0.20748   0.30862   0.30976   0.80911
 Alpha virt. eigenvalues --    0.81026   0.84033   0.84149   0.87107   0.87245
 Alpha virt. eigenvalues --    1.17772   1.17888   1.22238   1.22355   2.57814

 Mulliken charges:
               1
     1  O   -0.737523
     2  H    0.367997
     3  H    0.369526
     4  O   -0.737357
     5  H    0.367545
     6  H    0.369812
 Sum of Mulliken charges =   0.00000

 Dipole moment (field-independent basis, Debye):
    X=             -1.3182    Y=             -0.3570    Z=              0.0000  Tot=              1.3657
 Quadrupole moment (field-independent basis, Debye-Ang):
   XX=             -8.5675   YY=             19.4480   ZZ=            -14.9870
   XY=             -3.3803   XZ=              0.0000   YZ=              0.0000

 \MP4DQ=-33.8905893\MP4SDQ=-33.8926197\CCSD=-33.893677\CCSD(T)=-33.8962
 Normal termination of Gaussian 16 at Sun Dec 10 06:58:54 2023.
