 Gaussian 16, Revision A.03,
 Gaussian 16:  ES64L-G16RevA.03 25-Dec-2016

 ------------------
 #p CCSD(T)/CEP-31G
 ------------------

 ------------
 H2O_H2O_1987
 ------------
 Symbolic Z-matrix:
 Charge =  0 Multiplicity = 1

                         Standard orientation:
 ---------------------------------------------------------------------
 Center     Atomic      Atomic             Coordinates (Angstroms)
 Number     Number       Type             X           Y           Z
 ---------------------------------------------------------------------
      1          8           0        0.040416   -1.835887    0.000000
      2          1           0       -0.760225   -2.405517    0.000000
      3          1           0        0.838914   -2.408518    0.000000
      4          8           0        0.040416    1.869191    0.000000
      5          1           0        0.203766    2.838120    0.000000
      6          1           0       -0.929119    1.709479    0.000000
 ---------------------------------------------------------------------

 SCF Done:  E(RHF) =  -33.6482332541     A.U. after   11 cycles
 E2 =    -0.2287648569D+00 EUMP2 =    -0.33876998110966D+02
 CCSD(T)
 CCSD(T)= -0.33894115154D+02

 The electronic state is 1-A'.
 Alpha  occ. eigenvalues --   -1.34585  -1.33822  -0.70213  -0.69408  -0.54199
 Alpha  occ. eigenvalues --   -0.53248  -0.49110  -0.48347
 Alpha virt. eigenvalues --    0.20526   0.22197   0.31208   0.31962   0.77140
 Alpha virt. eigenvalues --    0.80782   0.82853   0.85813   0.88580   0.98473
 Alpha virt. eigenvalues --    1.18164   1.19131   1.22631   1.23520   2.57839

 Mulliken charges:
               1
     1  O   -0.729074
     2  H    0.360160
     3  H    0.369153
     4  O   -0.725890
     5  H    0.356571
     6  H    0.369079
 Sum of Mulliken charges =   0.00000

 Dipole moment (field-independent basis, Debye):
    X=             -1.8370    Y=             -0.8125    Z=              0.0000  Tot=              2.0087
 Quadrupole moment (field-independent basis, Debye-Ang):
   XX=             -9.1221   YY=              5.4490   ZZ=            -14.9860
   XY=             -2.6997   XZ=              0.0000   YZ=              0.0000

 \MP4DQ=-33.8884187\MP4SDQ=-33.8904737\CCSD=-33.8915259\CCSD(T)=-33.894
 Normal termination of Gaussian 16 at Sun Dec 10 07:03:10 2023.
