 Gaussian 16, Revision A.03,
 Gaussian 16:  ES64L-G16RevA.03 25-Dec-2016

 ------------------
 #p CCSD(T)/CEP-31G
 ------------------

 ------------
 H2O_H2O_1884
 ------------
 Symbolic Z-matrix:
 Charge =  0 Multiplicity = 1

                         Standard orientation:
 ---------------------------------------------------------------------
 Center     Atomic      Atomic             Coordinates (Angstroms)
 Number     Number       Type             X           Y           Z
 ---------------------------------------------------------------------
      1          8           0        0.031745   -1.790388    0.000000
      2          1           0       -0.768692   -2.360306    0.000000
      3          1           0        0.830448   -2.362733    0.000000
      4          8           0        0.031745    1.809543    0.000000
      5          1           0        0.380654    2.728111    0.000000
      6          1           0       -0.950330    1.841694    0.000000
 ---------------------------------------------------------------------

 SCF Done:  E(RHF) =  -33.6468216998     A.U. after   11 cycles
 E2 =    -0.2288327333D+00 EUMP2 =    -0.33875654433036D+02
 CCSD(T)
 CCSD(T)= -0.33892816591D+02

 The electronic state is 1-A'.
 Alpha  occ. eigenvalues --   -1.34237  -1.33774  -0.69861  -0.69370  -0.53911
 Alpha  occ. eigenvalues --   -0.52970  -0.48749  -0.48270
 Alpha virt. eigenvalues --    0.20777   0.22210   0.31509   0.31932   0.76713
 Alpha virt. eigenvalues --    0.80830   0.83245   0.85642   0.89820   0.99949
 Alpha virt. eigenvalues --    1.18460   1.19050   1.23001   1.23474   2.58107

 Mulliken charges:
               1
     1  O   -0.724471
     2  H    0.358487
     3  H    0.366138
     4  O   -0.722030
     5  H    0.356112
     6  H    0.365764
 Sum of Mulliken charges =  -0.00000

 Dipole moment (field-independent basis, Debye):
    X=             -1.4410    Y=             -0.4700    Z=              0.0000  Tot=              1.5157
 Quadrupole moment (field-independent basis, Debye-Ang):
   XX=             -8.7397   YY=              5.7702   ZZ=            -14.9848
   XY=             -1.9117   XZ=              0.0000   YZ=              0.0000

 \MP4DQ=-33.8871033\MP4SDQ=-33.8891649\CCSD=-33.8902204\CCSD(T)=-33.892
 Normal termination of Gaussian 16 at Sun Dec 10 06:59:53 2023.
