 Gaussian 16, Revision A.03,
 Gaussian 16:  ES64L-G16RevA.03 25-Dec-2016

 ------------------
 #p CCSD(T)/CEP-31G
 ------------------

 ------------
 H2O_H2O_1361
 ------------
 Symbolic Z-matrix:
 Charge =  0 Multiplicity = 1

                         Standard orientation:
 ---------------------------------------------------------------------
 Center     Atomic      Atomic             Coordinates (Angstroms)
 Number     Number       Type             X           Y           Z
 ---------------------------------------------------------------------
      1          8           0        0.037688   -1.506269    0.000000
      2          1           0       -0.763099   -2.075694    0.000000
      3          1           0        0.836039   -2.079104    0.000000
      4          8           0        0.037688    1.534454    0.000000
      5          1           0        0.264303    2.490567    0.000000
      6          1           0       -0.940243    1.438744    0.000000
 ---------------------------------------------------------------------

 SCF Done:  E(RHF) =  -33.6443155922     A.U. after   11 cycles
 E2 =    -0.2292395921D+00 EUMP2 =    -0.33873555184329D+02
 CCSD(T)
 CCSD(T)= -0.33890841069D+02

 The electronic state is 1-A'.
 Alpha  occ. eigenvalues --   -1.34033  -1.33096  -0.69658  -0.68675  -0.54033
 Alpha  occ. eigenvalues --   -0.51753  -0.48557  -0.47534
 Alpha virt. eigenvalues --    0.20582   0.23280   0.31634   0.32436   0.76803
 Alpha virt. eigenvalues --    0.79605   0.83751   0.85549   0.92700   1.12193
 Alpha virt. eigenvalues --    1.18561   1.21186   1.23233   1.24265   2.59848

 Mulliken charges:
               1
     1  O   -0.720680
     2  H    0.353170
     3  H    0.367157
     4  O   -0.712304
     5  H    0.348756
     6  H    0.363901
 Sum of Mulliken charges =  -0.00000

 Dipole moment (field-independent basis, Debye):
    X=             -1.6805    Y=             -0.7030    Z=              0.0000  Tot=              1.8216
 Quadrupole moment (field-independent basis, Debye-Ang):
   XX=             -9.0240   YY=              2.4152   ZZ=            -14.9861
   XY=             -1.9215   XZ=              0.0000   YZ=              0.0000

 \MP4DQ=-33.8850484\MP4SDQ=-33.8871463\CCSD=-33.8882097\CCSD(T)=-33.890
 Normal termination of Gaussian 16 at Sun Dec 10 06:50:11 2023.
