 Gaussian 16, Revision A.03,
 Gaussian 16:  ES64L-G16RevA.03 25-Dec-2016

 ------------------
 #p CCSD(T)/CEP-31G
 ------------------

 ------------
 H2O_H2O_1305
 ------------
 Symbolic Z-matrix:
 Charge =  0 Multiplicity = 1

                         Standard orientation:
 ---------------------------------------------------------------------
 Center     Atomic      Atomic             Coordinates (Angstroms)
 Number     Number       Type             X           Y           Z
 ---------------------------------------------------------------------
      1          8           0        0.018362   -1.491715    0.000000
      2          1           0       -0.781813   -2.062001    0.000000
      3          1           0        0.817328   -2.063692    0.000000
      4          8           0        0.018362    1.497738    0.000000
      5          1           0        0.592759    2.294966    0.000000
      6          1           0       -0.922060    1.782541    0.000000
 ---------------------------------------------------------------------

 SCF Done:  E(RHF) =  -33.6409938484     A.U. after   11 cycles
 E2 =    -0.2292547924D+00 EUMP2 =    -0.33870248640747D+02
 CCSD(T)
 CCSD(T)= -0.33887604555D+02

 The electronic state is 1-A'.
 Alpha  occ. eigenvalues --   -1.33367  -1.33089  -0.68973  -0.68703  -0.53779
 Alpha  occ. eigenvalues --   -0.50969  -0.47943  -0.47377
 Alpha virt. eigenvalues --    0.21160   0.23065   0.32103   0.32422   0.78281
 Alpha virt. eigenvalues --    0.79873   0.82533   0.86049   0.96592   1.09598
 Alpha virt. eigenvalues --    1.19144   1.19981   1.23839   1.24092   2.59503

 Mulliken charges:
               1
     1  O   -0.710458
     2  H    0.351488
     3  H    0.358765
     4  O   -0.707998
     5  H    0.351065
     6  H    0.357139
 Sum of Mulliken charges =   0.00000

 Dipole moment (field-independent basis, Debye):
    X=             -0.8186    Y=             -0.1502    Z=              0.0000  Tot=              0.8322
 Quadrupole moment (field-independent basis, Debye-Ang):
   XX=             -8.3837   YY=              3.0372   ZZ=            -14.9849
   XY=             -0.7989   XZ=              0.0000   YZ=              0.0000

 \MP4DQ=-33.8817957\MP4SDQ=-33.8838872\CCSD=-33.8849647\CCSD(T)=-33.887
 Normal termination of Gaussian 16 at Sun Dec 10 06:49:09 2023.
