 Gaussian 16, Revision A.03,
 Gaussian 16:  ES64L-G16RevA.03 25-Dec-2016

 ------------------
 #p CCSD(T)/CEP-31G
 ------------------

 ------------
 H2O_H2O_3989
 ------------
 Symbolic Z-matrix:
 Charge =  0 Multiplicity = 1

                         Standard orientation:
 ---------------------------------------------------------------------
 Center     Atomic      Atomic             Coordinates (Angstroms)
 Number     Number       Type             X           Y           Z
 ---------------------------------------------------------------------
      1          8           0        0.045341   -2.893443    0.000000
      2          1           0       -0.754994   -3.463505    0.000000
      3          1           0        0.844147   -3.465645    0.000000
      4          8           0        0.045341    2.938012    0.000000
      5          1           0        0.080293    3.919992    0.000000
      6          1           0       -0.894900    2.652610    0.000000
 ---------------------------------------------------------------------

 SCF Done:  E(RHF) =  -33.6510464175     A.U. after   11 cycles
 E2 =    -0.2284300292D+00 EUMP2 =    -0.33879476446690D+02
 CCSD(T)
 CCSD(T)= -0.33896498105D+02

 The electronic state is 1-A'.
 Alpha  occ. eigenvalues --   -1.35244  -1.34849  -0.70874  -0.70468  -0.54938
 Alpha  occ. eigenvalues --   -0.54540  -0.49804  -0.49410
 Alpha virt. eigenvalues --    0.20486   0.20889   0.30722   0.31112   0.80749
 Alpha virt. eigenvalues --    0.81137   0.83840   0.84239   0.86928   0.87386
 Alpha virt. eigenvalues --    1.17626   1.18018   1.22090   1.22485   2.57661

 Mulliken charges:
               1
     1  O   -0.738510
     2  H    0.367801
     3  H    0.370709
     4  O   -0.738043
     5  H    0.366568
     6  H    0.371475
 Sum of Mulliken charges =  -0.00000

 Dipole moment (field-independent basis, Debye):
    X=             -2.0908    Y=             -1.0453    Z=              0.0000  Tot=              2.3375
 Quadrupole moment (field-independent basis, Debye-Ang):
   XX=             -9.3726   YY=             14.0246   ZZ=            -14.9876
   XY=             -5.3528   XZ=              0.0000   YZ=              0.0000

 MP4DQ=-33.8908481\MP4SDQ=-33.8928779\CCSD=-33.8939343\CCSD(T)=-33.8964
 Normal termination of Gaussian 16 at Sun Dec 10 06:51:53 2023.
