 Gaussian 16, Revision A.03,
 Gaussian 16:  ES64L-G16RevA.03 25-Dec-2016

 ------------------
 #p CCSD(T)/CEP-31G
 ------------------

 ------------
 H2O_H2O_2083
 ------------
 Symbolic Z-matrix:
 Charge =  0 Multiplicity = 1

                         Standard orientation:
 ---------------------------------------------------------------------
 Center     Atomic      Atomic             Coordinates (Angstroms)
 Number     Number       Type             X           Y           Z
 ---------------------------------------------------------------------
      1          8           0        0.028566   -1.898887    0.000000
      2          1           0       -0.771740   -2.468988    0.000000
      3          1           0        0.827400   -2.471050    0.000000
      4          8           0        0.028566    1.914117    0.000000
      5          1           0        0.436603    2.807993    0.000000
      6          1           0       -0.949326    2.010207    0.000000
 ---------------------------------------------------------------------

 SCF Done:  E(RHF) =  -33.6473759683     A.U. after   11 cycles
 E2 =    -0.2287404340D+00 EUMP2 =    -0.33876116402244D+02
 CCSD(T)
 CCSD(T)= -0.33893252206D+02

 The electronic state is 1-A'.
 Alpha  occ. eigenvalues --   -1.34293  -1.33966  -0.69916  -0.69571  -0.53926
 Alpha  occ. eigenvalues --   -0.53268  -0.48807  -0.48472
 Alpha virt. eigenvalues --    0.20871   0.21916   0.31476   0.31775   0.78268
 Alpha virt. eigenvalues --    0.81120   0.82689   0.86211   0.89127   0.95826
 Alpha virt. eigenvalues --    1.18427   1.18785   1.22944   1.23283   2.58155

 Mulliken charges:
               1
     1  O   -0.726070
     2  H    0.360122
     3  H    0.366040
     4  O   -0.724517
     5  H    0.358457
     6  H    0.365968
 Sum of Mulliken charges =  -0.00000

 Dipole moment (field-independent basis, Debye):
    X=             -1.3015    Y=             -0.3705    Z=              0.0000  Tot=              1.3532
 Quadrupole moment (field-independent basis, Debye-Ang):
   XX=             -8.6108   YY=              7.0969   ZZ=            -14.9847
   XY=             -1.8171   XZ=              0.0000   YZ=              0.0000

 MP4DQ=-33.8875561\MP4SDQ=-33.8896079\CCSD=-33.8906644\CCSD(T)=-33.8932
 Normal termination of Gaussian 16 at Sun Dec 10 07:04:53 2023.
