 Gaussian 16, Revision A.03,
 Gaussian 16:  ES64L-G16RevA.03 25-Dec-2016

 ------------------
 #p CCSD(T)/CEP-31G
 ------------------

 ------------
 H2O_H2O_2487
 ------------
 Symbolic Z-matrix:
 Charge =  0 Multiplicity = 1

                         Standard orientation:
 ---------------------------------------------------------------------
 Center     Atomic      Atomic             Coordinates (Angstroms)
 Number     Number       Type             X           Y           Z
 ---------------------------------------------------------------------
      1          8           0        0.040413   -2.101795    0.000000
      2          1           0       -0.760095   -2.671614    0.000000
      3          1           0        0.839045   -2.674238    0.000000
      4          8           0        0.040413    2.135119    0.000000
      5          1           0        0.203534    3.104086    0.000000
      6          1           0       -0.929085    1.975178    0.000000
 ---------------------------------------------------------------------

 SCF Done:  E(RHF) =  -33.6493897325     A.U. after   11 cycles
 E2 =    -0.2285870149D+00 EUMP2 =    -0.33877976747376D+02
 CCSD(T)
 CCSD(T)= -0.33895048198D+02

 The electronic state is 1-A'.
 Alpha  occ. eigenvalues --   -1.34792  -1.34217  -0.70419  -0.69817  -0.54401
 Alpha  occ. eigenvalues --   -0.53793  -0.49328  -0.48757
 Alpha virt. eigenvalues --    0.20669   0.21590   0.31072   0.31636   0.81104
 Alpha virt. eigenvalues --    0.81173   0.81902   0.86023   0.87574   0.90934
 Alpha virt. eigenvalues --    1.18009   1.18601   1.22473   1.23084   2.58047

 Mulliken charges:
               1
     1  O   -0.732870
     2  H    0.363326
     3  H    0.369604
     4  O   -0.731093
     5  H    0.360946
     6  H    0.370087
 Sum of Mulliken charges =  -0.00000

 Dipole moment (field-independent basis, Debye):
    X=             -1.8494    Y=             -0.7981    Z=              0.0000  Tot=              2.0142
 Quadrupole moment (field-independent basis, Debye-Ang):
   XX=             -9.1107   YY=              7.9523   ZZ=            -14.9864
   XY=             -3.1726   XZ=              0.0000   YZ=              0.0000

 \MP4DQ=-33.88938\MP4SDQ=-33.8914182\CCSD=-33.8924739\CCSD(T)=-33.89504
 Normal termination of Gaussian 16 at Sun Dec 10 07:12:09 2023.
