 Gaussian 16, Revision A.03,
 Gaussian 16:  ES64L-G16RevA.03 25-Dec-2016

 ------------------
 #p CCSD(T)/CEP-31G
 ------------------

 ------------
 H2O_H2O_1320
 ------------
 Symbolic Z-matrix:
 Charge =  0 Multiplicity = 1

                         Standard orientation:
 ---------------------------------------------------------------------
 Center     Atomic      Atomic             Coordinates (Angstroms)
 Number     Number       Type             X           Y           Z
 ---------------------------------------------------------------------
      1          8           0        0.055302   -1.449194    0.000000
      2          1           0       -0.746084   -2.017777    0.000000
      3          1           0        0.853050   -2.022869    0.000000
      4          8           0        0.055302    1.533505    0.000000
      5          1           0       -0.286494    2.454745    0.000000
      6          1           0       -0.705298    0.911417    0.000000
 ---------------------------------------------------------------------

 SCF Done:  E(RHF) =  -33.6510968372     A.U. after   11 cycles
 E2 =    -0.2292796610D+00 EUMP2 =    -0.33880376498241D+02
 CCSD(T)
 CCSD(T)= -0.33897475325D+02

 The electronic state is 1-A'.
 Alpha  occ. eigenvalues --   -1.35693  -1.32610  -0.71343  -0.68254  -0.55379
 Alpha  occ. eigenvalues --   -0.52275  -0.50270  -0.47184
 Alpha virt. eigenvalues --    0.19363   0.24640   0.30288   0.33762   0.77028
 Alpha virt. eigenvalues --    0.78342   0.85532   0.86700   0.89866   1.12170
 Alpha virt. eigenvalues --    1.17141   1.20662   1.22156   1.28410   2.56386

 Mulliken charges:
               1
     1  O   -0.745297
     2  H    0.361665
     3  H    0.384405
     4  O   -0.731440
     5  H    0.345631
     6  H    0.385035
 Sum of Mulliken charges =   0.00000

 Dipole moment (field-independent basis, Debye):
    X=             -2.4585    Y=             -2.1309    Z=              0.0000  Tot=              3.2535
 Quadrupole moment (field-independent basis, Debye-Ang):
   XX=            -10.0003   YY=             -0.8279   ZZ=            -14.9947
   XY=             -3.6820   XZ=              0.0000   YZ=              0.0000

 6\MP4DQ=-33.8916823\MP4SDQ=-33.8937921\CCSD=-33.8948267\CCSD(T)=-33.89
 Normal termination of Gaussian 16 at Sun Dec 10 06:49:26 2023.
