 Gaussian 16, Revision A.03,
 Gaussian 16:  ES64L-G16RevA.03 25-Dec-2016

 ------------------
 #p CCSD(T)/CEP-31G
 ------------------

 ------------
 H2O_H2O_4716
 ------------
 Symbolic Z-matrix:
 Charge =  0 Multiplicity = 1

                         Standard orientation:
 ---------------------------------------------------------------------
 Center     Atomic      Atomic             Coordinates (Angstroms)
 Number     Number       Type             X           Y           Z
 ---------------------------------------------------------------------
      1          8           0        0.049498   -3.272281    0.000000
      2          1           0       -0.750809   -3.842382    0.000000
      3          1           0        0.848332   -3.844444    0.000000
      4          8           0        0.049498    3.329267    0.000000
      5          1           0       -0.044069    4.307404    0.000000
      6          1           0       -0.845426    2.923538    0.000000
 ---------------------------------------------------------------------

 SCF Done:  E(RHF) =  -33.6514319227     A.U. after   11 cycles
 E2 =    -0.2284024452D+00 EUMP2 =    -0.33879834367924D+02
 CCSD(T)
 CCSD(T)= -0.33896844911D+02

 The electronic state is 1-A'.
 Alpha  occ. eigenvalues --   -1.35400  -1.35010  -0.71031  -0.70634  -0.55115
 Alpha  occ. eigenvalues --   -0.54723  -0.49966  -0.49577
 Alpha virt. eigenvalues --    0.20352   0.20750   0.30589   0.30979   0.80587
 Alpha virt. eigenvalues --    0.80971   0.83645   0.84034   0.86744   0.87176
 Alpha virt. eigenvalues --    1.17487   1.17874   1.21948   1.22339   2.57512

 Mulliken charges:
               1
     1  O   -0.739857
     2  H    0.368819
     3  H    0.371037
     4  O   -0.739585
     5  H    0.367757
     6  H    0.371828
 Sum of Mulliken charges =  -0.00000

 Dipole moment (field-independent basis, Debye):
    X=             -2.2855    Y=             -1.3313    Z=              0.0000  Tot=              2.6450
 Quadrupole moment (field-independent basis, Debye-Ang):
   XX=             -9.6289   YY=             15.6451   ZZ=            -14.9880
   XY=             -6.9135   XZ=              0.0000   YZ=              0.0000

 \MP4DQ=-33.891198\MP4SDQ=-33.8932267\CCSD=-33.8942827\CCSD(T)=-33.8968
 Normal termination of Gaussian 16 at Sun Dec 10 07:06:34 2023.
