 Gaussian 16, Revision A.03,
 Gaussian 16:  ES64L-G16RevA.03 25-Dec-2016

 ------------------
 #p CCSD(T)/CEP-31G
 ------------------

 ------------
 H2O_H2O_2314
 ------------
 Symbolic Z-matrix:
 Charge =  0 Multiplicity = 1

                         Standard orientation:
 ---------------------------------------------------------------------
 Center     Atomic      Atomic             Coordinates (Angstroms)
 Number     Number       Type             X           Y           Z
 ---------------------------------------------------------------------
      1          8           0        0.045354   -2.002645    0.000000
      2          1           0       -0.755316   -2.572236    0.000000
      3          1           0        0.843823   -2.575316    0.000000
      4          8           0        0.045354    2.047160    0.000000
      5          1           0        0.080884    3.029120    0.000000
      6          1           0       -0.895055    1.762312    0.000000
 ---------------------------------------------------------------------

 SCF Done:  E(RHF) =  -33.6496637193     A.U. after   11 cycles
 E2 =    -0.2286163478D+00 EUMP2 =    -0.33878280067037D+02
 CCSD(T)
 CCSD(T)= -0.33895345752D+02

 The electronic state is 1-A'.
 Alpha  occ. eigenvalues --   -1.34914  -1.34065  -0.70543  -0.69653  -0.54538
 Alpha  occ. eigenvalues --   -0.53652  -0.49454  -0.48610
 Alpha virt. eigenvalues --    0.20446   0.21861   0.30947   0.31813   0.79792
 Alpha virt. eigenvalues --    0.80900   0.82122   0.85928   0.87471   0.93037
 Alpha virt. eigenvalues --    1.17897   1.18839   1.22325   1.23318   2.57830

 Mulliken charges:
               1
     1  O   -0.733831
     2  H    0.363027
     3  H    0.370953
     4  O   -0.731330
     5  H    0.359477
     6  H    0.371705
 Sum of Mulliken charges =   0.00000

 Dipole moment (field-independent basis, Debye):
    X=             -2.0714    Y=             -1.0720    Z=              0.0000  Tot=              2.3323
 Quadrupole moment (field-independent basis, Debye-Ang):
   XX=             -9.3802   YY=              6.2604   ZZ=            -14.9870
   XY=             -3.5317   XZ=              0.0000   YZ=              0.0000

 \MP4DQ=-33.8896752\MP4SDQ=-33.8917163\CCSD=-33.8927691\CCSD(T)=-33.895
 Normal termination of Gaussian 16 at Sun Dec 10 07:09:03 2023.
