 Gaussian 16, Revision A.03,
 Gaussian 16:  ES64L-G16RevA.03 25-Dec-2016

 ------------------
 #p CCSD(T)/CEP-31G
 ------------------

 ------------
 H2O_H2O_4867
 ------------
 Symbolic Z-matrix:
 Charge =  0 Multiplicity = 1

                         Standard orientation:
 ---------------------------------------------------------------------
 Center     Atomic      Atomic             Coordinates (Angstroms)
 Number     Number       Type             X           Y           Z
 ---------------------------------------------------------------------
      1          8           0        0.051265   -3.348481    0.000000
      2          1           0       -0.749051   -3.918569    0.000000
      3          1           0        0.850090   -3.920655    0.000000
      4          8           0        0.051265    3.412052    0.000000
      5          1           0       -0.106061    4.381977    0.000000
      6          1           0       -0.815214    2.948673    0.000000
 ---------------------------------------------------------------------

 SCF Done:  E(RHF) =  -33.6515307610     A.U. after   11 cycles
 E2 =    -0.2283962436D+00 EUMP2 =    -0.33879927004601D+02
 CCSD(T)
 CCSD(T)= -0.33896934700D+02

 The electronic state is 1-A'.
 Alpha  occ. eigenvalues --   -1.35448  -1.35035  -0.71079  -0.70659  -0.55168
 Alpha  occ. eigenvalues --   -0.54752  -0.50016  -0.49603
 Alpha virt. eigenvalues --    0.20309   0.20731   0.30547   0.30961   0.80536
 Alpha virt. eigenvalues --    0.80944   0.83586   0.83999   0.86689   0.87141
 Alpha virt. eigenvalues --    1.17443   1.17853   1.21903   1.22318   2.57466

 Mulliken charges:
               1
     1  O   -0.740208
     2  H    0.369037
     3  H    0.371171
     4  O   -0.739968
     5  H    0.367953
     6  H    0.372014
 Sum of Mulliken charges =  -0.00000

 Dipole moment (field-independent basis, Debye):
    X=             -2.3675    Y=             -1.4843    Z=              0.0000  Tot=              2.7943
 Quadrupole moment (field-independent basis, Debye-Ang):
   XX=             -9.7452   YY=             15.3368   ZZ=            -14.9882
   XY=             -7.4566   XZ=              0.0000   YZ=              0.0000

 MP4DQ=-33.8912886\MP4SDQ=-33.8933169\CCSD=-33.8943728\CCSD(T)=-33.8969
 Normal termination of Gaussian 16 at Sun Dec 10 07:09:23 2023.
