 Gaussian 16, Revision A.03,
 Gaussian 16:  ES64L-G16RevA.03 25-Dec-2016

 ------------------
 #p CCSD(T)/CEP-31G
 ------------------

 ------------
 H2O_H2O_4187
 ------------
 Symbolic Z-matrix:
 Charge =  0 Multiplicity = 1

                         Standard orientation:
 ---------------------------------------------------------------------
 Center     Atomic      Atomic             Coordinates (Angstroms)
 Number     Number       Type             X           Y           Z
 ---------------------------------------------------------------------
      1          8           0        0.040404   -3.005896    0.000000
      2          1           0       -0.759823   -3.576108    0.000000
      3          1           0        0.839318   -3.577948    0.000000
      4          8           0        0.040404    3.039260    0.000000
      5          1           0        0.203050    4.008306    0.000000
      6          1           0       -0.929015    2.878844    0.000000
 ---------------------------------------------------------------------

 SCF Done:  E(RHF) =  -33.6509471833     A.U. after   11 cycles
 E2 =    -0.2284310701D+00 EUMP2 =    -0.33879378253368D+02
 CCSD(T)
 CCSD(T)= -0.33896402792D+02

 The electronic state is 1-A'.
 Alpha  occ. eigenvalues --   -1.35185  -1.34910  -0.70814  -0.70532  -0.54873
 Alpha  occ. eigenvalues --   -0.54597  -0.49744  -0.49470
 Alpha virt. eigenvalues --    0.20540   0.20819   0.30774   0.31045   0.80809
 Alpha virt. eigenvalues --    0.81080   0.83914   0.84187   0.86995   0.87314
 Alpha virt. eigenvalues --    1.17681   1.17953   1.22146   1.22420   2.57718

 Mulliken charges:
               1
     1  O   -0.738144
     2  H    0.367891
     3  H    0.370253
     4  O   -0.737799
     5  H    0.367007
     6  H    0.370792
 Sum of Mulliken charges =   0.00000

 Dipole moment (field-independent basis, Debye):
    X=             -1.8640    Y=             -0.7814    Z=              0.0000  Tot=              2.0212
 Quadrupole moment (field-independent basis, Debye-Ang):
   XX=             -9.0978   YY=             16.2915   ZZ=            -14.9874
   XY=             -4.8206   XZ=              0.0000   YZ=              0.0000

 \MP4DQ=-33.8907521\MP4SDQ=-33.8927821\CCSD=-33.8938388\CCSD(T)=-33.896
 Normal termination of Gaussian 16 at Sun Dec 10 06:55:29 2023.
