 Gaussian 16, Revision A.03,
 Gaussian 16:  ES64L-G16RevA.03 25-Dec-2016

 ------------------
 #p CCSD(T)/CEP-31G
 ------------------

 ------------
 H2O_H2O_2558
 ------------
 Symbolic Z-matrix:
 Charge =  0 Multiplicity = 1

                         Standard orientation:
 ---------------------------------------------------------------------
 Center     Atomic      Atomic             Coordinates (Angstroms)
 Number     Number       Type             X           Y           Z
 ---------------------------------------------------------------------
      1          8           0        0.028565   -2.151505    0.000000
      2          1           0       -0.771656   -2.721726    0.000000
      3          1           0        0.827485   -2.723547    0.000000
      4          8           0        0.028565    2.166744    0.000000
      5          1           0        0.436467    3.060681    0.000000
      6          1           0       -0.949341    2.262686    0.000000
 ---------------------------------------------------------------------

 SCF Done:  E(RHF) =  -33.6487236855     A.U. after   11 cycles
 E2 =    -0.2285938493D+00 EUMP2 =    -0.33877317534781D+02
 CCSD(T)
 CCSD(T)= -0.33894407371D+02

 The electronic state is 1-A'.
 Alpha  occ. eigenvalues --   -1.34553  -1.34301  -0.70177  -0.69913  -0.54144
 Alpha  occ. eigenvalues --   -0.53818  -0.49080  -0.48829
 Alpha virt. eigenvalues --    0.20910   0.21436   0.31282   0.31517   0.81331
 Alpha virt. eigenvalues --    0.81801   0.81854   0.86498   0.87880   0.89863
 Alpha virt. eigenvalues --    1.18221   1.18471   1.22710   1.22962   2.58261

 Mulliken charges:
               1
     1  O   -0.730524
     2  H    0.363154
     3  H    0.367392
     4  O   -0.729615
     5  H    0.361995
     6  H    0.367598
 Sum of Mulliken charges =  -0.00000

 Dipole moment (field-independent basis, Debye):
    X=             -1.3084    Y=             -0.3644    Z=              0.0000  Tot=              1.3582
 Quadrupole moment (field-independent basis, Debye-Ang):
   XX=             -8.5931   YY=              9.6842   ZZ=            -14.9854
   XY=             -2.1321   XZ=              0.0000   YZ=              0.0000

 \MP4DQ=-33.8887354\MP4SDQ=-33.8907741\CCSD=-33.8918322\CCSD(T)=-33.894
 Normal termination of Gaussian 16 at Sun Dec 10 06:25:48 2023.
