 Gaussian 16, Revision A.03,
 Gaussian 16:  ES64L-G16RevA.03 25-Dec-2016

 ------------------
 #p CCSD(T)/CEP-31G
 ------------------

 ------------
 H2O_H2O_2033
 ------------
 Symbolic Z-matrix:
 Charge =  0 Multiplicity = 1

                         Standard orientation:
 ---------------------------------------------------------------------
 Center     Atomic      Atomic             Coordinates (Angstroms)
 Number     Number       Type             X           Y           Z
 ---------------------------------------------------------------------
      1          8           0        0.028567   -1.872296    0.000000
      2          1           0       -0.771751   -2.442382    0.000000
      3          1           0        0.827390   -2.444473    0.000000
      4          8           0        0.028567    1.887525    0.000000
      5          1           0        0.436620    2.781392    0.000000
      6          1           0       -0.949324    1.983633    0.000000
 ---------------------------------------------------------------------

 SCF Done:  E(RHF) =  -33.6471841793     A.U. after   11 cycles
 E2 =    -0.2287620356D+00 EUMP2 =    -0.33875946214914D+02
 CCSD(T)
 CCSD(T)= -0.33893089427D+02

 The electronic state is 1-A'.
 Alpha  occ. eigenvalues --   -1.34261  -1.33924  -0.69884  -0.69527  -0.53906
 Alpha  occ. eigenvalues --   -0.53190  -0.48774  -0.48426
 Alpha virt. eigenvalues --    0.20865   0.21978   0.31500   0.31807   0.77876
 Alpha virt. eigenvalues --    0.81070   0.82820   0.86099   0.89340   0.96715
 Alpha virt. eigenvalues --    1.18453   1.18830   1.22975   1.23324   2.58143

 Mulliken charges:
               1
     1  O   -0.725465
     2  H    0.359712
     3  H    0.365855
     4  O   -0.723813
     5  H    0.357979
     6  H    0.365733
 Sum of Mulliken charges =   0.00000

 Dipole moment (field-independent basis, Debye):
    X=             -1.3005    Y=             -0.3713    Z=              0.0000  Tot=              1.3525
 Quadrupole moment (field-independent basis, Debye-Ang):
   XX=             -8.6133   YY=              6.8216   ZZ=            -14.9847
   XY=             -1.7844   XZ=              0.0000   YZ=              0.0000

 \MP4DQ=-33.8873892\MP4SDQ=-33.8894432\CCSD=-33.8904996\CCSD(T)=-33.893
 Normal termination of Gaussian 16 at Sun Dec 10 07:04:00 2023.
