 Gaussian 16, Revision A.03,
 Gaussian 16:  ES64L-G16RevA.03 25-Dec-2016

 ------------------
 #p CCSD(T)/CEP-31G
 ------------------

 ------------
 H2O_H2O_2190
 ------------
 Symbolic Z-matrix:
 Charge =  0 Multiplicity = 1

                         Standard orientation:
 ---------------------------------------------------------------------
 Center     Atomic      Atomic             Coordinates (Angstroms)
 Number     Number       Type             X           Y           Z
 ---------------------------------------------------------------------
      1          8           0        0.047541   -1.932879    0.000000
      2          1           0       -0.753221   -2.502340    0.000000
      3          1           0        0.845918   -2.505679    0.000000
      4          8           0        0.047541    1.983446    0.000000
      5          1           0        0.018930    2.965631    0.000000
      6          1           0       -0.872280    1.637850    0.000000
 ---------------------------------------------------------------------

 SCF Done:  E(RHF) =  -33.6498144127     A.U. after   11 cycles
 E2 =    -0.2286483391D+00 EUMP2 =    -0.33878462751717D+02
 CCSD(T)
 CCSD(T)= -0.33895527081D+02

 The electronic state is 1-A'.
 Alpha  occ. eigenvalues --   -1.34984  -1.33945  -0.70615  -0.69526  -0.54618
 Alpha  occ. eigenvalues --   -0.53536  -0.49527  -0.48494
 Alpha virt. eigenvalues --    0.20286   0.22081   0.30869   0.31951   0.78738
 Alpha virt. eigenvalues --    0.80737   0.82328   0.85894   0.87436   0.94854
 Alpha virt. eigenvalues --    1.17829   1.19069   1.22233   1.23546   2.57607

 Mulliken charges:
               1
     1  O   -0.734340
     2  H    0.362759
     3  H    0.371829
     4  O   -0.731344
     5  H    0.358328
     6  H    0.372768
 Sum of Mulliken charges =   0.00000

 Dipole moment (field-independent basis, Debye):
    X=             -2.1676    Y=             -1.2234    Z=              0.0000  Tot=              2.4891
 Quadrupole moment (field-independent basis, Debye-Ang):
   XX=             -9.5090   YY=              5.2304   ZZ=            -14.9875
   XY=             -3.6517   XZ=              0.0000   YZ=              0.0000

 8\MP4DQ=-33.8898525\MP4SDQ=-33.8918971\CCSD=-33.8929476\CCSD(T)=-33.89
 Normal termination of Gaussian 16 at Sun Dec 10 07:06:49 2023.
