 Gaussian 16, Revision A.03,
 Gaussian 16:  ES64L-G16RevA.03 25-Dec-2016

 ------------------
 #p CCSD(T)/CEP-31G
 ------------------

 ------------
 H2O_H2O_4411
 ------------
 Symbolic Z-matrix:
 Charge =  0 Multiplicity = 1

                         Standard orientation:
 ---------------------------------------------------------------------
 Center     Atomic      Atomic             Coordinates (Angstroms)
 Number     Number       Type             X           Y           Z
 ---------------------------------------------------------------------
      1          8           0        0.037672   -3.128326    0.000000
      2          1           0       -0.762488   -3.698633    0.000000
      3          1           0        0.836653   -3.700283    0.000000
      4          8           0        0.037672    3.156595    0.000000
      5          1           0        0.263235    4.112957    0.000000
      6          1           0       -0.940152    3.059809    0.000000
 ---------------------------------------------------------------------

 SCF Done:  E(RHF) =  -33.6509712743     A.U. after   11 cycles
 E2 =    -0.2284269770D+00 EUMP2 =    -0.33879398251337D+02
 CCSD(T)
 CCSD(T)= -0.33896422118D+02

 The electronic state is 1-A'.
 Alpha  occ. eigenvalues --   -1.35181  -1.34966  -0.70810  -0.70590  -0.54870
 Alpha  occ. eigenvalues --   -0.54655  -0.49740  -0.49526
 Alpha virt. eigenvalues --    0.20545   0.20763   0.30779   0.30991   0.80813
 Alpha virt. eigenvalues --    0.81025   0.83917   0.84128   0.86998   0.87246
 Alpha virt. eigenvalues --    1.17686   1.17899   1.22150   1.22365   2.57723

 Mulliken charges:
               1
     1  O   -0.738219
     2  H    0.368119
     3  H    0.370100
     4  O   -0.737960
     5  H    0.367418
     6  H    0.370541
 Sum of Mulliken charges =  -0.00000

 Dipole moment (field-independent basis, Debye):
    X=             -1.7387    Y=             -0.6613    Z=              0.0000  Tot=              1.8602
 Quadrupole moment (field-independent basis, Debye-Ang):
   XX=             -8.9587   YY=             18.0141   ZZ=            -14.9873
   XY=             -4.6386   XZ=              0.0000   YZ=              0.0000

 P4DQ=-33.8907716\MP4SDQ=-33.8928015\CCSD=-33.8938583\CCSD(T)=-33.89642
 Normal termination of Gaussian 16 at Sun Dec 10 06:59:24 2023.
