 Gaussian 16, Revision A.03,
 Gaussian 16:  ES64L-G16RevA.03 25-Dec-2016

 ------------------
 #p CCSD(T)/CEP-31G
 ------------------

 ------------
 H2O_H2O_2394
 ------------
 Symbolic Z-matrix:
 Charge =  0 Multiplicity = 1

                         Standard orientation:
 ---------------------------------------------------------------------
 Center     Atomic      Atomic             Coordinates (Angstroms)
 Number     Number       Type             X           Y           Z
 ---------------------------------------------------------------------
      1          8           0        0.054170   -2.024747    0.000000
      2          1           0       -0.746688   -2.594073    0.000000
      3          1           0        0.852450   -2.597681    0.000000
      4          8           0        0.054170    2.102012    0.000000
      5          1           0       -0.227516    3.043373    0.000000
      6          1           0       -0.744958    1.530259    0.000000
 ---------------------------------------------------------------------

 SCF Done:  E(RHF) =  -33.6514874706     A.U. after   11 cycles
 E2 =    -0.2285361112D+00 EUMP2 =    -0.33880023581813D+02
 CCSD(T)
 CCSD(T)= -0.33897036602D+02

 The electronic state is 1-A'.
 Alpha  occ. eigenvalues --   -1.35462  -1.34028  -0.71097  -0.69606  -0.55179
 Alpha  occ. eigenvalues --   -0.53718  -0.50028  -0.48598
 Alpha virt. eigenvalues --    0.19936   0.22061   0.30474   0.32012   0.80440
 Alpha virt. eigenvalues --    0.80556   0.82014   0.85653   0.86631   0.91571
 Alpha virt. eigenvalues --    1.17421   1.19069   1.21804   1.23803   2.57240

 Mulliken charges:
               1
     1  O   -0.740005
     2  H    0.365748
     3  H    0.374546
     4  O   -0.737860
     5  H    0.360108
     6  H    0.377463
 Sum of Mulliken charges =  -0.00000

 Dipole moment (field-independent basis, Debye):
    X=             -2.4771    Y=             -1.8597    Z=              0.0000  Tot=              3.0975
 Quadrupole moment (field-independent basis, Debye-Ang):
   XX=             -9.9345   YY=              3.9222   ZZ=            -14.9896
   XY=             -4.8729   XZ=              0.0000   YZ=              0.0000

 \MP4DQ=-33.8913787\MP4SDQ=-33.8934163\CCSD=-33.8944647\CCSD(T)=-33.897
 Normal termination of Gaussian 16 at Sun Dec 10 07:10:29 2023.
