 Gaussian 16, Revision A.03,
 Gaussian 16:  ES64L-G16RevA.03 25-Dec-2016

 ------------------
 #p CCSD(T)/CEP-31G
 ------------------

 ------------
 H2O_H2O_3887
 ------------
 Symbolic Z-matrix:
 Charge =  0 Multiplicity = 1

                         Standard orientation:
 ---------------------------------------------------------------------
 Center     Atomic      Atomic             Coordinates (Angstroms)
 Number     Number       Type             X           Y           Z
 ---------------------------------------------------------------------
      1          8           0        0.040405   -2.846348    0.000000
      2          1           0       -0.759858   -3.416509    0.000000
      3          1           0        0.839282   -3.418451    0.000000
      4          8           0        0.040405    2.879706    0.000000
      5          1           0        0.203113    3.848743    0.000000
      6          1           0       -0.929024    2.719352    0.000000
 ---------------------------------------------------------------------

 SCF Done:  E(RHF) =  -33.6507951554     A.U. after   11 cycles
 E2 =    -0.2284429477D+00 EUMP2 =    -0.33879238103121D+02
 CCSD(T)
 CCSD(T)= -0.33896267041D+02

 The electronic state is 1-A'.
 Alpha  occ. eigenvalues --   -1.35138  -1.34831  -0.70767  -0.70451  -0.54817
 Alpha  occ. eigenvalues --   -0.54509  -0.49695  -0.49388
 Alpha virt. eigenvalues --    0.20578   0.20891   0.30812   0.31114   0.80859
 Alpha virt. eigenvalues --    0.81161   0.83969   0.84292   0.87052   0.87416
 Alpha virt. eigenvalues --    1.17721   1.18026   1.22188   1.22494   2.57762

 Mulliken charges:
               1
     1  O   -0.737622
     2  H    0.367437
     3  H    0.370184
     4  O   -0.737178
     5  H    0.366414
     6  H    0.370763
 Sum of Mulliken charges =  -0.00000

 Dipole moment (field-independent basis, Debye):
    X=             -1.8628    Y=             -0.7829    Z=              0.0000  Tot=              2.0206
 Quadrupole moment (field-independent basis, Debye-Ang):
   XX=             -9.0989   YY=             14.8305   ZZ=            -14.9872
   XY=             -4.5272   XZ=              0.0000   YZ=              0.0000

 \MP4DQ=-33.8906151\MP4SDQ=-33.8926455\CCSD=-33.8937024\CCSD(T)=-33.896
 Normal termination of Gaussian 16 at Sun Dec 10 06:50:01 2023.
