 Gaussian 16, Revision A.03,
 Gaussian 16:  ES64L-G16RevA.03 25-Dec-2016

 ------------------
 #p CCSD(T)/CEP-31G
 ------------------

 ------------
 H2O_H2O_3053
 ------------
 Symbolic Z-matrix:
 Charge =  0 Multiplicity = 1

                         Standard orientation:
 ---------------------------------------------------------------------
 Center     Atomic      Atomic             Coordinates (Angstroms)
 Number     Number       Type             X           Y           Z
 ---------------------------------------------------------------------
      1          8           0        0.011143   -2.424513    0.000000
      2          1           0       -0.788654   -2.995328    0.000000
      3          1           0        0.810488   -2.995961    0.000000
      4          8           0        0.011143    2.426699    0.000000
      5          1           0        0.684211    3.142579    0.000000
      6          1           0       -0.884327    2.831222    0.000000
 ---------------------------------------------------------------------

 SCF Done:  E(RHF) =  -33.6492033385     A.U. after   11 cycles
 E2 =    -0.2285287415D+00 EUMP2 =    -0.33877732079972D+02
 CCSD(T)
 CCSD(T)= -0.33894807014D+02

 The electronic state is 1-A'.
 Alpha  occ. eigenvalues --   -1.34603  -1.34575  -0.70227  -0.70197  -0.54212
 Alpha  occ. eigenvalues --   -0.54136  -0.49136  -0.49108
 Alpha virt. eigenvalues --    0.20976   0.21107   0.31250   0.31286   0.81377
 Alpha virt. eigenvalues --    0.81482   0.83762   0.85683   0.87613   0.87840
 Alpha virt. eigenvalues --    1.18190   1.18218   1.22665   1.22706   2.58270

 Mulliken charges:
               1
     1  O   -0.732084
     2  H    0.365437
     3  H    0.366647
     4  O   -0.731996
     5  H    0.365217
     6  H    0.366778
 Sum of Mulliken charges =  -0.00000

 Dipole moment (field-independent basis, Debye):
    X=             -0.5122    Y=             -0.0518    Z=              0.0000  Tot=              0.5148
 Quadrupole moment (field-independent basis, Debye-Ang):
   XX=             -8.1405   YY=             13.4612   ZZ=            -14.9854
   XY=             -0.9177   XZ=              0.0000   YZ=              0.0000

 \MP4DQ=-33.8891419\MP4SDQ=-33.8911769\CCSD=-33.8922364\CCSD(T)=-33.894
 Normal termination of Gaussian 16 at Sun Dec 10 06:34:53 2023.
