 Gaussian 16, Revision A.03,
 Gaussian 16:  ES64L-G16RevA.03 25-Dec-2016

 ------------------
 #p CCSD(T)/CEP-31G
 ------------------

 ------------
 H2O_H2O_1432
 ------------
 Symbolic Z-matrix:
 Charge =  0 Multiplicity = 1

                         Standard orientation:
 ---------------------------------------------------------------------
 Center     Atomic      Atomic             Coordinates (Angstroms)
 Number     Number       Type             X           Y           Z
 ---------------------------------------------------------------------
      1          8           0        0.025269   -1.555106    0.000000
      2          1           0       -0.775097   -2.125123    0.000000
      3          1           0        0.824043   -2.127351    0.000000
      4          8           0        0.025269    1.566815    0.000000
      5          1           0        0.490982    2.432041    0.000000
      6          1           0       -0.944228    1.726757    0.000000
 ---------------------------------------------------------------------

 SCF Done:  E(RHF) =  -33.6430685144     A.U. after   11 cycles
 E2 =    -0.2291444248D+00 EUMP2 =    -0.33872212939179D+02
 CCSD(T)
 CCSD(T)= -0.33889515863D+02

 The electronic state is 1-A'.
 Alpha  occ. eigenvalues --   -1.33658  -1.33270  -0.69275  -0.68870  -0.53776
 Alpha  occ. eigenvalues --   -0.51638  -0.48191  -0.47652
 Alpha virt. eigenvalues --    0.20974   0.22884   0.31929   0.32279   0.76757
 Alpha virt. eigenvalues --    0.80052   0.83518   0.85285   0.94088   1.08863
 Alpha virt. eigenvalues --    1.18908   1.19831   1.23583   1.23884   2.59777

 Mulliken charges:
               1
     1  O   -0.715086
     2  H    0.353045
     3  H    0.361920
     4  O   -0.711603
     5  H    0.351422
     6  H    0.360301
 Sum of Mulliken charges =  -0.00000

 Dipole moment (field-independent basis, Debye):
    X=             -1.1327    Y=             -0.2920    Z=              0.0000  Tot=              1.1697
 Quadrupole moment (field-independent basis, Debye-Ang):
   XX=             -8.5499   YY=              3.5744   ZZ=            -14.9845
   XY=             -1.2110   XZ=              0.0000   YZ=              0.0000

 \MP4DQ=-33.8837321\MP4SDQ=-33.8858203\CCSD=-33.8868887\CCSD(T)=-33.889
 Normal termination of Gaussian 16 at Sun Dec 10 06:51:31 2023.
