 Gaussian 16, Revision A.03,
 Gaussian 16:  ES64L-G16RevA.03 25-Dec-2016

 ------------------
 #p CCSD(T)/CEP-31G
 ------------------

 ------------
 H2O_H2O_1999
 ------------
 Symbolic Z-matrix:
 Charge =  0 Multiplicity = 1

                         Standard orientation:
 ---------------------------------------------------------------------
 Center     Atomic      Atomic             Coordinates (Angstroms)
 Number     Number       Type             X           Y           Z
 ---------------------------------------------------------------------
      1          8           0        0.057265   -1.792104    0.000000
      2          1           0       -0.743822   -2.361108    0.000000
      3          1           0        0.855314   -2.365360    0.000000
      4          8           0        0.057265    1.906027    0.000000
      5          1           0       -0.511739    2.707114    0.000000
      6          1           0       -0.515991    1.107977    0.000000
 ---------------------------------------------------------------------

 SCF Done:  E(RHF) =  -33.6541919016     A.U. after   11 cycles
 E2 =    -0.2286231259D+00 EUMP2 =    -0.33882815027574D+02
 CCSD(T)
 CCSD(T)= -0.33899778141D+02

 The electronic state is 1-A'.
 Alpha  occ. eigenvalues --   -1.36204  -1.33469  -0.71847  -0.69032  -0.56087
 Alpha  occ. eigenvalues --   -0.53244  -0.50807  -0.48071
 Alpha virt. eigenvalues --    0.19035   0.23249   0.29854   0.33206   0.79447
 Alpha virt. eigenvalues --    0.79556   0.82746   0.85622   0.86617   0.95162
 Alpha virt. eigenvalues --    1.16744   1.19981   1.21232   1.27533   2.54585

 Mulliken charges:
               1
     1  O   -0.748735
     2  H    0.369043
     3  H    0.381073
     4  O   -0.748414
     5  H    0.357148
     6  H    0.389885
 Sum of Mulliken charges =   0.00000

 Dipole moment (field-independent basis, Debye):
    X=             -2.6062    Y=             -2.7999    Z=              0.0000  Tot=              3.8252
 Quadrupole moment (field-independent basis, Debye-Ang):
   XX=            -10.1481   YY=             -0.6887   ZZ=            -14.9946
   XY=             -5.2657   XZ=              0.0000   YZ=              0.0000

 MP4DQ=-33.8940954\MP4SDQ=-33.8961531\CCSD=-33.8971883\CCSD(T)=-33.8997
 Normal termination of Gaussian 16 at Sun Dec 10 07:03:23 2023.
