 Gaussian 16, Revision A.03,
 Gaussian 16:  ES64L-G16RevA.03 25-Dec-2016

 ------------------
 #p CCSD(T)/CEP-31G
 ------------------

 ------------
 H2O_H2O_2231
 ------------
 Symbolic Z-matrix:
 Charge =  0 Multiplicity = 1

                         Standard orientation:
 ---------------------------------------------------------------------
 Center     Atomic      Atomic             Coordinates (Angstroms)
 Number     Number       Type             X           Y           Z
 ---------------------------------------------------------------------
      1          8           0        0.021860   -1.982235    0.000000
      2          1           0       -0.778251   -2.552609    0.000000
      3          1           0        0.820890   -2.554124    0.000000
      4          8           0        0.021860    1.990888    0.000000
      5          1           0        0.542795    2.824035    0.000000
      6          1           0       -0.935199    2.213470    0.000000
 ---------------------------------------------------------------------

 SCF Done:  E(RHF) =  -33.6475169482     A.U. after   11 cycles
 E2 =    -0.2286897165D+00 EUMP2 =    -0.33876206664661D+02
 CCSD(T)
 CCSD(T)= -0.33893334051D+02

 The electronic state is 1-A'.
 Alpha  occ. eigenvalues --   -1.34271  -1.34100  -0.69893  -0.69713  -0.53901
 Alpha  occ. eigenvalues --   -0.53423  -0.48786  -0.48606
 Alpha virt. eigenvalues --    0.20979   0.21717   0.31491   0.31668   0.79603
 Alpha virt. eigenvalues --    0.81305   0.82393   0.86675   0.88911   0.93022
 Alpha virt. eigenvalues --    1.18456   1.18629   1.22943   1.23163   2.58254

 Mulliken charges:
               1
     1  O   -0.726445
     2  H    0.361209
     3  H    0.365274
     4  O   -0.725660
     5  H    0.360280
     6  H    0.365342
 Sum of Mulliken charges =   0.00000

 Dipole moment (field-independent basis, Debye):
    X=             -0.9983    Y=             -0.2093    Z=              0.0000  Tot=              1.0200
 Quadrupole moment (field-independent basis, Debye-Ang):
   XX=             -8.3930   YY=              8.3355   ZZ=            -14.9845
   XY=             -1.4223   XZ=              0.0000   YZ=              0.0000

 P4DQ=-33.8876455\MP4SDQ=-33.8896923\CCSD=-33.8907506\CCSD(T)=-33.89333
 Normal termination of Gaussian 16 at Sun Dec 10 07:07:33 2023.
