 Gaussian 16, Revision A.03,
 Gaussian 16:  ES64L-G16RevA.03 25-Dec-2016

 ------------------
 #p CCSD(T)/CEP-31G
 ------------------

 -----------
 H2O_H2O_709
 -----------
 Symbolic Z-matrix:
 Charge =  0 Multiplicity = 1

                         Standard orientation:
 ---------------------------------------------------------------------
 Center     Atomic      Atomic             Coordinates (Angstroms)
 Number     Number       Type             X           Y           Z
 ---------------------------------------------------------------------
      1          8           0        0.031753   -1.165508    0.000000
      2          1           0       -0.769144   -1.734779    0.000000
      3          1           0        0.829994   -1.738497    0.000000
      4          8           0        0.031753    1.184611    0.000000
      5          1           0        0.381403    2.102897    0.000000
      6          1           0       -0.950296    1.217554    0.000000
 ---------------------------------------------------------------------

 SCF Done:  E(RHF) =  -33.6281279728     A.U. after   11 cycles
 E2 =    -0.2304857805D+00 EUMP2 =    -0.33858613753310D+02
 CCSD(T)
 CCSD(T)= -0.33876018891D+02

 The electronic state is 1-A'.
 Alpha  occ. eigenvalues --   -1.33226  -1.31769  -0.68761  -0.67550  -0.55446
 Alpha  occ. eigenvalues --   -0.47984  -0.47243  -0.45785
 Alpha virt. eigenvalues --    0.20973   0.24985   0.32340   0.32971   0.79250
 Alpha virt. eigenvalues --    0.81082   0.89324   0.92344   1.00613   1.13396
 Alpha virt. eigenvalues --    1.19437   1.22750   1.24324   1.28416   2.54001

 Mulliken charges:
               1
     1  O   -0.718221
     2  H    0.344726
     3  H    0.367052
     4  O   -0.690992
     5  H    0.346824
     6  H    0.350610
 Sum of Mulliken charges =   0.00000

 Dipole moment (field-independent basis, Debye):
    X=             -1.3291    Y=             -0.4602    Z=              0.0000  Tot=              1.4065
 Quadrupole moment (field-independent basis, Debye-Ang):
   XX=             -8.8536   YY=             -1.3358   ZZ=            -14.9980
   XY=             -1.0706   XZ=              0.0000   YZ=              0.0000

 P4DQ=-33.8700311\MP4SDQ=-33.8721862\CCSD=-33.8732613\CCSD(T)=-33.87601
 Normal termination of Gaussian 16 at Sun Dec 10 06:37:59 2023.
