 Gaussian 16, Revision A.03,
 Gaussian 16:  ES64L-G16RevA.03 25-Dec-2016

 ------------------
 #p CCSD(T)/CEP-31G
 ------------------

 ------------
 H2O_H2O_4351
 ------------
 Symbolic Z-matrix:
 Charge =  0 Multiplicity = 1

                         Standard orientation:
 ---------------------------------------------------------------------
 Center     Atomic      Atomic             Coordinates (Angstroms)
 Number     Number       Type             X           Y           Z
 ---------------------------------------------------------------------
      1          8           0        0.003735   -3.116955    0.000000
      2          1           0       -0.795895   -3.688004    0.000000
      3          1           0        0.803247   -3.688169    0.000000
      4          8           0        0.003735    3.117198    0.000000
      5          1           0        0.764306    3.739324    0.000000
      6          1           0       -0.831424    3.634900    0.000000
 ---------------------------------------------------------------------

 SCF Done:  E(RHF) =  -33.6505487875     A.U. after   10 cycles
 E2 =    -0.2284440747D+00 EUMP2 =    -0.33878992862156D+02
 CCSD(T)
 CCSD(T)= -0.33896028873D+02

 The electronic state is 1-A'.
 Alpha  occ. eigenvalues --   -1.34976  -1.34974  -0.70603  -0.70601  -0.54641
 Alpha  occ. eigenvalues --   -0.54639  -0.49528  -0.49526
 Alpha virt. eigenvalues --    0.20727   0.20730   0.30959   0.30960   0.81026
 Alpha virt. eigenvalues --    0.81028   0.84161   0.84185   0.87235   0.87238
 Alpha virt. eigenvalues --    1.17873   1.17875   1.22341   1.22343   2.57920

 Mulliken charges:
               1
     1  O   -0.736708
     2  H    0.368252
     3  H    0.368456
     4  O   -0.736705
     5  H    0.368211
     6  H    0.368493
 Sum of Mulliken charges =   0.00000

 Dipole moment (field-independent basis, Debye):
    X=             -0.1724    Y=             -0.0057    Z=              0.0000  Tot=              0.1725
 Quadrupole moment (field-independent basis, Debye-Ang):
   XX=             -8.0482   YY=             21.0377   ZZ=            -14.9867
   XY=             -0.4218   XZ=              0.0000   YZ=              0.0000

 MP4DQ=-33.8903751\MP4SDQ=-33.892406\CCSD=-33.8934638\CCSD(T)=-33.89602
 Normal termination of Gaussian 16 at Sun Dec 10 06:58:21 2023.
