 Gaussian 16, Revision A.03,
 Gaussian 16:  ES64L-G16RevA.03 25-Dec-2016

 ------------------
 #p CCSD(T)/CEP-31G
 ------------------

 ------------
 H2O_H2O_3016
 ------------
 Symbolic Z-matrix:
 Charge =  0 Multiplicity = 1

                         Standard orientation:
 ---------------------------------------------------------------------
 Center     Atomic      Atomic             Coordinates (Angstroms)
 Number     Number       Type             X           Y           Z
 ---------------------------------------------------------------------
      1          8           0        0.049512   -2.368185    0.000000
      2          1           0       -0.751072   -2.937895    0.000000
      3          1           0        0.848067   -2.940736    0.000000
      4          8           0        0.049512    2.425122    0.000000
      5          1           0       -0.043579    3.403305    0.000000
      6          1           0       -0.845609    2.019829    0.000000
 ---------------------------------------------------------------------

 SCF Done:  E(RHF) =  -33.6508656273     A.U. after   11 cycles
 E2 =    -0.2284720762D+00 EUMP2 =    -0.33879337703444D+02
 CCSD(T)
 CCSD(T)= -0.33896365091D+02

 The electronic state is 1-A'.
 Alpha  occ. eigenvalues --   -1.35232  -1.34471  -0.70862  -0.70075  -0.54915
 Alpha  occ. eigenvalues --   -0.54146  -0.49789  -0.49031
 Alpha virt. eigenvalues --    0.20440   0.21309   0.30719   0.31478   0.80761
 Alpha virt. eigenvalues --    0.81511   0.83282   0.84985   0.86945   0.88138
 Alpha virt. eigenvalues --    1.17631   1.18391   1.22088   1.22876   2.57668

 Mulliken charges:
               1
     1  O   -0.737960
     2  H    0.366276
     3  H    0.371700
     4  O   -0.736716
     5  H    0.363610
     6  H    0.373091
 Sum of Mulliken charges =  -0.00000

 Dipole moment (field-independent basis, Debye):
    X=             -2.2749    Y=             -1.3492    Z=              0.0000  Tot=              2.6449
 Quadrupole moment (field-independent basis, Debye-Ang):
   XX=             -9.6284   YY=              8.3514   ZZ=            -14.9879
   XY=             -4.8756   XZ=              0.0000   YZ=              0.0000

 3\MP4DQ=-33.8907125\MP4SDQ=-33.8927437\CCSD=-33.8937989\CCSD(T)=-33.89
 Normal termination of Gaussian 16 at Sun Dec 10 06:34:14 2023.
