 Gaussian 16, Revision A.03,
 Gaussian 16:  ES64L-G16RevA.03 25-Dec-2016

 ------------------
 #p CCSD(T)/CEP-31G
 ------------------

 ------------
 H2O_H2O_4781
 ------------
 Symbolic Z-matrix:
 Charge =  0 Multiplicity = 1

                         Standard orientation:
 ---------------------------------------------------------------------
 Center     Atomic      Atomic             Coordinates (Angstroms)
 Number     Number       Type             X           Y           Z
 ---------------------------------------------------------------------
      1          8           0        0.021859   -3.338409    0.000000
      2          1           0       -0.778034   -3.909091    0.000000
      3          1           0        0.821108   -3.909991    0.000000
      4          8           0        0.021859    3.347079    0.000000
      5          1           0        0.542473    4.180426    0.000000
      6          1           0       -0.935286    3.569292    0.000000
 ---------------------------------------------------------------------

 SCF Done:  E(RHF) =  -33.6508883058     A.U. after   11 cycles
 E2 =    -0.2284260786D+00 EUMP2 =    -0.33879314384433D+02
 CCSD(T)
 CCSD(T)= -0.33896340695D+02

 The electronic state is 1-A'.
 Alpha  occ. eigenvalues --   -1.35110  -1.35052  -0.70739  -0.70679  -0.54795
 Alpha  occ. eigenvalues --   -0.54737  -0.49668  -0.49610
 Alpha virt. eigenvalues --    0.20611   0.20670   0.30844   0.30901   0.80886
 Alpha virt. eigenvalues --    0.80943   0.83997   0.84054   0.87076   0.87144
 Alpha virt. eigenvalues --    1.17753   1.17811   1.22218   1.22276   2.57792

 Mulliken charges:
               1
     1  O   -0.737905
     2  H    0.368464
     3  H    0.369441
     4  O   -0.737831
     5  H    0.368200
     6  H    0.369631
 Sum of Mulliken charges =  -0.00000

 Dipole moment (field-independent basis, Debye):
    X=             -1.0095    Y=             -0.2025    Z=              0.0000  Tot=              1.0296
 Quadrupole moment (field-independent basis, Debye-Ang):
   XX=             -8.3457   YY=             22.4034   ZZ=            -14.9871
   XY=             -2.7528   XZ=              0.0000   YZ=              0.0000

 \MP4DQ=-33.8906895\MP4SDQ=-33.8927196\CCSD=-33.8937768\CCSD(T)=-33.896
 Normal termination of Gaussian 16 at Sun Dec 10 07:07:46 2023.
