 Gaussian 16, Revision A.03,
 Gaussian 16:  ES64L-G16RevA.03 25-Dec-2016

 ------------------
 #p CCSD(T)/CEP-31G
 ------------------

 -----------
 H2O_H2O_272
 -----------
 Symbolic Z-matrix:
 Charge =  0 Multiplicity = 1

                         Standard orientation:
 ---------------------------------------------------------------------
 Center     Atomic      Atomic             Coordinates (Angstroms)
 Number     Number       Type             X           Y           Z
 ---------------------------------------------------------------------
      1          8           0        0.056883   -0.882934    0.000000
      2          1           0       -0.745663   -1.449878    0.000000
      3          1           0        0.853457   -1.458239    0.000000
      4          8           0        0.056883    0.981657    0.000000
      5          1           0       -0.400457    1.851339    0.000000
      6          1           0       -0.617473    0.266991    0.000000
 ---------------------------------------------------------------------

 SCF Done:  E(RHF) =  -33.5526096192     A.U. after   11 cycles
 E2 =    -0.2333346233D+00 EUMP2 =    -0.33785944242498D+02
 CCSD(T)
 CCSD(T)= -0.33801942801D+02

 The electronic state is 1-A'.
 Alpha  occ. eigenvalues --   -1.40640  -1.28689  -0.77254  -0.71688  -0.53948
 Alpha  occ. eigenvalues --   -0.49915  -0.46873  -0.43086
 Alpha virt. eigenvalues --    0.18792   0.28138   0.29762   0.37220   0.78017
 Alpha virt. eigenvalues --    0.84265   0.90354   0.94063   0.98776   1.16521
 Alpha virt. eigenvalues --    1.18834   1.23014   1.32432   1.34199   2.79134

 Mulliken charges:
               1
     1  O   -0.798305
     2  H    0.366771
     3  H    0.443603
     4  O   -0.679393
     5  H    0.294478
     6  H    0.372846
 Sum of Mulliken charges =  -0.00000

 Dipole moment (field-independent basis, Debye):
    X=             -2.1413    Y=             -2.8203    Z=              0.0000  Tot=              3.5411
 Quadrupole moment (field-independent basis, Debye-Ang):
   XX=            -10.0750   YY=             -7.1610   ZZ=            -14.9529
   XY=             -2.4479   XZ=              0.0000   YZ=              0.0000

 4DQ=-33.7954142\MP4SDQ=-33.7979233\CCSD=-33.7986301\CCSD(T)=-33.801942
 Normal termination of Gaussian 16 at Sun Dec 10 06:29:51 2023.
