 Gaussian 16, Revision A.03,
 Gaussian 16:  ES64L-G16RevA.03 25-Dec-2016

 ------------------
 #p CCSD(T)/CEP-31G
 ------------------

 -----------
 H2O_H2O_384
 -----------
 Symbolic Z-matrix:
 Charge =  0 Multiplicity = 1

                         Standard orientation:
 ---------------------------------------------------------------------
 Center     Atomic      Atomic             Coordinates (Angstroms)
 Number     Number       Type             X           Y           Z
 ---------------------------------------------------------------------
      1          8           0        0.031757   -0.992674    0.000000
      2          1           0       -0.769368   -1.561625    0.000000
      3          1           0        0.829768   -1.565983    0.000000
      4          8           0        0.031757    1.011752    0.000000
      5          1           0        0.381775    1.929898    0.000000
      6          1           0       -0.950279    1.045089    0.000000
 ---------------------------------------------------------------------

 SCF Done:  E(RHF) =  -33.5968527566     A.U. after   11 cycles
 E2 =    -0.2323388202D+00 EUMP2 =    -0.33829191576823D+02
 CCSD(T)
 CCSD(T)= -0.33846412797D+02

 The electronic state is 1-A'.
 Alpha  occ. eigenvalues --   -1.33855  -1.30555  -0.69190  -0.66969  -0.57994
 Alpha  occ. eigenvalues --   -0.48745  -0.44321  -0.42513
 Alpha virt. eigenvalues --    0.20955   0.26455   0.32227   0.33319   0.80420
 Alpha virt. eigenvalues --    0.81924   0.90079   0.97358   1.00070   1.17745
 Alpha virt. eigenvalues --    1.19620   1.23878   1.25911   1.30336   2.50318

 Mulliken charges:
               1
     1  O   -0.727644
     2  H    0.341635
     3  H    0.373499
     4  O   -0.679739
     5  H    0.348135
     6  H    0.344114
 Sum of Mulliken charges =  -0.00000

 Dipole moment (field-independent basis, Debye):
    X=             -1.2419    Y=             -0.4558    Z=              0.0000  Tot=              1.3229
 Quadrupole moment (field-independent basis, Debye-Ang):
   XX=             -8.9116   YY=             -3.9519   ZZ=            -15.0096
   XY=             -0.8553   XZ=              0.0000   YZ=              0.0000

 MP4DQ=-33.8401866\MP4SDQ=-33.8424789\CCSD=-33.8434622\CCSD(T)=-33.8464
 Normal termination of Gaussian 16 at Sun Dec 10 06:31:57 2023.
