 Gaussian 16, Revision A.03,
 Gaussian 16:  ES64L-G16RevA.03 25-Dec-2016

 ------------------
 #p CCSD(T)/CEP-31G
 ------------------

 ------------
 H2O_H2O_3871
 ------------
 Symbolic Z-matrix:
 Charge =  0 Multiplicity = 1

                         Standard orientation:
 ---------------------------------------------------------------------
 Center     Atomic      Atomic             Coordinates (Angstroms)
 Number     Number       Type             X           Y           Z
 ---------------------------------------------------------------------
      1          8           0        0.056094   -2.801340    0.000000
      2          1           0       -0.744444   -3.371117    0.000000
      3          1           0        0.854696   -3.373825    0.000000
      4          8           0        0.056094    2.893092    0.000000
      5          1           0       -0.346558    3.789405    0.000000
      6          1           0       -0.661192    2.221520    0.000000
 ---------------------------------------------------------------------

 SCF Done:  E(RHF) =  -33.6518806424     A.U. after   11 cycles
 E2 =    -0.2283897981D+00 EUMP2 =    -0.33880270440468D+02
 CCSD(T)
 CCSD(T)= -0.33897267770D+02

 The electronic state is 1-A'.
 Alpha  occ. eigenvalues --   -1.35615  -1.34766  -0.71249  -0.70381  -0.55356
 Alpha  occ. eigenvalues --   -0.54494  -0.50188  -0.49339
 Alpha virt. eigenvalues --    0.20158   0.21039   0.30402   0.31267   0.80365
 Alpha virt. eigenvalues --    0.81198   0.83369   0.84243   0.86494   0.87428
 Alpha virt. eigenvalues --    1.17291   1.18134   1.21747   1.22612   2.57302

 Mulliken charges:
               1
     1  O   -0.741475
     2  H    0.368913
     3  H    0.372563
     4  O   -0.741082
     5  H    0.366455
     6  H    0.374625
 Sum of Mulliken charges =  -0.00000

 Dipole moment (field-independent basis, Debye):
    X=             -2.5856    Y=             -2.1549    Z=              0.0000  Tot=              3.3658
 Quadrupole moment (field-independent basis, Debye-Ang):
   XX=            -10.0811   YY=              7.7085   ZZ=            -14.9891
   XY=             -7.3012   XZ=              0.0000   YZ=              0.0000

 MP4DQ=-33.8916242\MP4SDQ=-33.8936518\CCSD=-33.8947064\CCSD(T)=-33.8972
 Normal termination of Gaussian 16 at Sun Dec 10 06:49:43 2023.
