 Gaussian 16, Revision A.03,
 Gaussian 16:  ES64L-G16RevA.03 25-Dec-2016

 ------------------
 #p CCSD(T)/CEP-31G
 ------------------

 -----------
 H2O_H2O_883
 -----------
 Symbolic Z-matrix:
 Charge =  0 Multiplicity = 1

                         Standard orientation:
 ---------------------------------------------------------------------
 Center     Atomic      Atomic             Coordinates (Angstroms)
 Number     Number       Type             X           Y           Z
 ---------------------------------------------------------------------
      1          8           0        0.028571   -1.260703    0.000000
      2          1           0       -0.772105   -1.830284    0.000000
      3          1           0        0.827034   -1.833384    0.000000
      4          8           0        0.028571    1.275896    0.000000
      5          1           0        0.437188    2.169506    0.000000
      6          1           0       -0.949258    1.372620    0.000000
 ---------------------------------------------------------------------

 SCF Done:  E(RHF) =  -33.6342868938     A.U. after   11 cycles
 E2 =    -0.2299679013D+00 EUMP2 =    -0.33864254795081D+02
 CCSD(T)
 CCSD(T)= -0.33881678939D+02

 The electronic state is 1-A'.
 Alpha  occ. eigenvalues --   -1.33168  -1.32237  -0.68739  -0.67903  -0.54689
 Alpha  occ. eigenvalues --   -0.48681  -0.47849  -0.46355
 Alpha virt. eigenvalues --    0.21056   0.24300   0.32337   0.32803   0.79170
 Alpha virt. eigenvalues --    0.80845   0.87081   0.88489   1.00008   1.13569
 Alpha virt. eigenvalues --    1.19352   1.22529   1.24113   1.26324   2.56118

 Mulliken charges:
               1
     1  O   -0.712407
     2  H    0.346151
     3  H    0.363117
     4  O   -0.697157
     5  H    0.347129
     6  H    0.353168
 Sum of Mulliken charges =   0.00000

 Dipole moment (field-independent basis, Debye):
    X=             -1.2260    Y=             -0.3706    Z=              0.0000  Tot=              1.2808
 Quadrupole moment (field-independent basis, Debye-Ang):
   XX=             -8.7185   YY=             -0.0163   ZZ=            -14.9927
   XY=             -1.0435   XZ=              0.0000   YZ=              0.0000

 P4DQ=-33.8757625\MP4SDQ=-33.8778869\CCSD=-33.8789739\CCSD(T)=-33.88167
 Normal termination of Gaussian 16 at Sun Dec 10 06:41:16 2023.
