 Gaussian 16, Revision A.03,
 Gaussian 16:  ES64L-G16RevA.03 25-Dec-2016

 ------------------
 #p CCSD(T)/CEP-31G
 ------------------

 -----------
 H2O_H2O_171
 -----------
 Symbolic Z-matrix:
 Charge =  0 Multiplicity = 1

                         Standard orientation:
 ---------------------------------------------------------------------
 Center     Atomic      Atomic             Coordinates (Angstroms)
 Number     Number       Type             X           Y           Z
 ---------------------------------------------------------------------
      1          8           0        0.056267   -0.833767    0.000000
      2          1           0       -0.746424   -1.400506    0.000000
      3          1           0        0.852694   -1.409275    0.000000
      4          8           0        0.056267    0.925093    0.000000
      5          1           0       -0.342985    1.822926    0.000000
      6          1           0       -0.663558    0.256244    0.000000
 ---------------------------------------------------------------------

 SCF Done:  E(RHF) =  -33.5109770853     A.U. after   11 cycles
 E2 =    -0.2347954381D+00 EUMP2 =    -0.33745772523401D+02
 CCSD(T)
 CCSD(T)= -0.33761862900D+02

 The electronic state is 1-A'.
 Alpha  occ. eigenvalues --   -1.41672  -1.28418  -0.78215  -0.72048  -0.54434
 Alpha  occ. eigenvalues --   -0.50552  -0.43734  -0.42855
 Alpha virt. eigenvalues --    0.18955   0.28218   0.30238   0.36179   0.78750
 Alpha virt. eigenvalues --    0.83564   0.90054   0.94242   0.97934   1.17242
 Alpha virt. eigenvalues --    1.18857   1.25470   1.31968   1.37090   2.76807

 Mulliken charges:
               1
     1  O   -0.792813
     2  H    0.359637
     3  H    0.440901
     4  O   -0.661200
     5  H    0.285466
     6  H    0.368010
 Sum of Mulliken charges =  -0.00000

 Dipole moment (field-independent basis, Debye):
    X=             -2.0491    Y=             -2.5881    Z=              0.0000  Tot=              3.3011
 Quadrupole moment (field-independent basis, Debye-Ang):
   XX=            -10.0489   YY=             -7.7763   ZZ=            -14.9262
   XY=             -2.1301   XZ=              0.0000   YZ=              0.0000

 \MP4DQ=-33.7551306\MP4SDQ=-33.7577687\CCSD=-33.7584002\CCSD(T)=-33.761
 Normal termination of Gaussian 16 at Sun Dec 10 06:27:56 2023.
