 Gaussian 16, Revision A.03,
 Gaussian 16:  ES64L-G16RevA.03 25-Dec-2016

 ------------------
 #p CCSD(T)/CEP-31G
 ------------------

 ----------
 H2O_H2O_60
 ----------
 Symbolic Z-matrix:
 Charge =  0 Multiplicity = 1

                         Standard orientation:
 ---------------------------------------------------------------------
 Center     Atomic      Atomic             Coordinates (Angstroms)
 Number     Number       Type             X           Y           Z
 ---------------------------------------------------------------------
      1          8           0        0.034811   -0.817503    0.000000
      2          1           0       -0.766817   -1.385745    0.000000
      3          1           0        0.832315   -1.391518    0.000000
      4          8           0        0.034811    0.840857    0.000000
      5          1           0        0.324861    1.779674    0.000000
      6          1           0       -0.947330    0.810763    0.000000
 ---------------------------------------------------------------------

 SCF Done:  E(RHF) =  -33.4945700122     A.U. after   12 cycles
 E2 =    -0.2377500345D+00 EUMP2 =    -0.33732320046787D+02
 CCSD(T)
 CCSD(T)= -0.33748937660D+02

 The electronic state is 1-A'.
 Alpha  occ. eigenvalues --   -1.38008  -1.28906  -0.72697  -0.68801  -0.60841
 Alpha  occ. eigenvalues --   -0.52307  -0.42730  -0.34154
 Alpha virt. eigenvalues --    0.20447   0.28609   0.31364   0.33533   0.81687
 Alpha virt. eigenvalues --    0.84297   0.88976   0.91814   0.98556   1.19598
 Alpha virt. eigenvalues --    1.21993   1.24512   1.26621   1.39005   2.55257

 Mulliken charges:
               1
     1  O   -0.726944
     2  H    0.331367
     3  H    0.383598
     4  O   -0.659873
     5  H    0.328311
     6  H    0.343541
 Sum of Mulliken charges =  -0.00000

 Dipole moment (field-independent basis, Debye):
    X=             -1.2519    Y=             -0.6410    Z=              0.0000  Tot=              1.4064
 Quadrupole moment (field-independent basis, Debye-Ang):
   XX=             -9.1119   YY=             -7.6623   ZZ=            -14.9717
   XY=             -0.8668   XZ=              0.0000   YZ=              0.0000

 =-33.7420773\MP4SDQ=-33.7448503\CCSD=-33.7454286\CCSD(T)=-33.7489377\R
 Normal termination of Gaussian 16 at Sun Dec 10 06:25:51 2023.
