 Gaussian 16, Revision A.03,
 Gaussian 16:  ES64L-G16RevA.03 25-Dec-2016

 ------------------
 #p CCSD(T)/CEP-31G
 ------------------

 ------------
 H2O_H2O_1292
 ------------
 Symbolic Z-matrix:
 Charge =  0 Multiplicity = 1

                         Standard orientation:
 ---------------------------------------------------------------------
 Center     Atomic      Atomic             Coordinates (Angstroms)
 Number     Number       Type             X           Y           Z
 ---------------------------------------------------------------------
      1          8           0        0.051318   -1.447255    0.000000
      2          1           0       -0.749952   -2.016001    0.000000
      3          1           0        0.849183   -2.020769    0.000000
      4          8           0        0.051318    1.510655    0.000000
      5          1           0       -0.104381    2.480842    0.000000
      6          1           0       -0.815937    1.048730    0.000000
 ---------------------------------------------------------------------

 SCF Done:  E(RHF) =  -33.6481680582     A.U. after   11 cycles
 E2 =    -0.2293434957D+00 EUMP2 =    -0.33877511553882D+02
 CCSD(T)
 CCSD(T)= -0.33894704404D+02

 The electronic state is 1-A'.
 Alpha  occ. eigenvalues --   -1.35030  -1.32751  -0.70674  -0.68347  -0.54745
 Alpha  occ. eigenvalues --   -0.52120  -0.49582  -0.47280
 Alpha virt. eigenvalues --    0.19781   0.24208   0.30818   0.33043   0.77347
 Alpha virt. eigenvalues --    0.78734   0.85747   0.85748   0.90195   1.13773
 Alpha virt. eigenvalues --    1.17688   1.21515   1.22455   1.27138   2.58847

 Mulliken charges:
               1
     1  O   -0.735572
     2  H    0.357369
     3  H    0.378060
     4  O   -0.720812
     5  H    0.345611
     6  H    0.375344
 Sum of Mulliken charges =  -0.00000

 Dipole moment (field-independent basis, Debye):
    X=             -2.2767    Y=             -1.5924    Z=              0.0000  Tot=              2.7784
 Quadrupole moment (field-independent basis, Debye-Ang):
   XX=             -9.7490   YY=              0.2781   ZZ=            -14.9909
   XY=             -3.0613   XZ=              0.0000   YZ=              0.0000

 \MP4DQ=-33.8889041\MP4SDQ=-33.8910151\CCSD=-33.8920619\CCSD(T)=-33.894
 Normal termination of Gaussian 16 at Sun Dec 10 06:48:54 2023.
