 Gaussian 16, Revision A.03,
 Gaussian 16:  ES64L-G16RevA.03 25-Dec-2016

 ------------------
 #p CCSD(T)/CEP-31G
 ------------------

 ------------
 H2O_H2O_3792
 ------------
 Symbolic Z-matrix:
 Charge =  0 Multiplicity = 1

                         Standard orientation:
 ---------------------------------------------------------------------
 Center     Atomic      Atomic             Coordinates (Angstroms)
 Number     Number       Type             X           Y           Z
 ---------------------------------------------------------------------
      1          8           0        0.051273   -2.776770    0.000000
      2          1           0       -0.749194   -3.346646    0.000000
      3          1           0        0.849947   -3.349157    0.000000
      4          8           0        0.051273    2.840315    0.000000
      5          1           0       -0.105795    3.810281    0.000000
      6          1           0       -0.815329    2.377167    0.000000
 ---------------------------------------------------------------------

 SCF Done:  E(RHF) =  -33.6513329659     A.U. after   11 cycles
 E2 =    -0.2284203024D+00 EUMP2 =    -0.33879753268338D+02
 CCSD(T)
 CCSD(T)= -0.33896766604D+02

 The electronic state is 1-A'.
 Alpha  occ. eigenvalues --   -1.35380  -1.34771  -0.71011  -0.70387  -0.55090
 Alpha  occ. eigenvalues --   -0.54475  -0.49944  -0.49337
 Alpha virt. eigenvalues --    0.20364   0.20992   0.30604   0.31211   0.80609
 Alpha virt. eigenvalues --    0.81206   0.83663   0.84292   0.86770   0.87466
 Alpha virt. eigenvalues --    1.17503   1.18106   1.21964   1.22577   2.57529

 Mulliken charges:
               1
     1  O   -0.739540
     2  H    0.367973
     3  H    0.371567
     4  O   -0.738959
     5  H    0.366120
     6  H    0.372839
 Sum of Mulliken charges =   0.00000

 Dipole moment (field-independent basis, Debye):
    X=             -2.3631    Y=             -1.4928    Z=              0.0000  Tot=              2.7952
 Quadrupole moment (field-independent basis, Debye-Ang):
   XX=             -9.7441   YY=             10.9177   ZZ=            -14.9882
   XY=             -6.1166   XZ=              0.0000   YZ=              0.0000

 MP4DQ=-33.8911188\MP4SDQ=-33.8931479\CCSD=-33.8942035\CCSD(T)=-33.8967
 Normal termination of Gaussian 16 at Sun Dec 10 06:48:15 2023.
