 Gaussian 16, Revision A.03,
 Gaussian 16:  ES64L-G16RevA.03 25-Dec-2016

 ------------------
 #p CCSD(T)/CEP-31G
 ------------------

 ------------
 H2O_H2O_2143
 ------------
 Symbolic Z-matrix:
 Charge =  0 Multiplicity = 1

                         Standard orientation:
 ---------------------------------------------------------------------
 Center     Atomic      Atomic             Coordinates (Angstroms)
 Number     Number       Type             X           Y           Z
 ---------------------------------------------------------------------
      1          8           0        0.052849   -1.895589    0.000000
      2          1           0       -0.748064   -2.464838    0.000000
      3          1           0        0.851074   -2.468600    0.000000
      4          8           0        0.052849    1.965854    0.000000
      5          1           0       -0.166573    2.923644    0.000000
      6          1           0       -0.782013    1.447672    0.000000
 ---------------------------------------------------------------------

 SCF Done:  E(RHF) =  -33.6509937908     A.U. after   11 cycles
 E2 =    -0.2286307341D+00 EUMP2 =    -0.33879624524861D+02
 CCSD(T)
 CCSD(T)= -0.33896658240D+02

 The electronic state is 1-A'.
 Alpha  occ. eigenvalues --   -1.35334  -1.33831  -0.70970  -0.69400  -0.55025
 Alpha  occ. eigenvalues --   -0.53490  -0.49894  -0.48397
 Alpha virt. eigenvalues --    0.19895   0.22371   0.30553   0.32184   0.78542
 Alpha virt. eigenvalues --    0.80389   0.82403   0.85858   0.86878   0.95201
 Alpha virt. eigenvalues --    1.17518   1.19416   1.21895   1.24154   2.56986

 Mulliken charges:
               1
     1  O   -0.738265
     2  H    0.364184
     3  H    0.374539
     4  O   -0.735239
     5  H    0.357859
     6  H    0.376922
 Sum of Mulliken charges =   0.00000

 Dipole moment (field-independent basis, Debye):
    X=             -2.4085    Y=             -1.7055    Z=              0.0000  Tot=              2.9512
 Quadrupole moment (field-independent basis, Debye-Ang):
   XX=             -9.8435   YY=              3.5130   ZZ=            -14.9893
   XY=             -4.3229   XZ=              0.0000   YZ=              0.0000

 \MP4DQ=-33.8909867\MP4SDQ=-33.8930326\CCSD=-33.8940789\CCSD(T)=-33.896
 Normal termination of Gaussian 16 at Sun Dec 10 07:05:58 2023.
