 Gaussian 16, Revision A.03,
 Gaussian 16:  ES64L-G16RevA.03 25-Dec-2016

 ------------------
 #p CCSD(T)/CEP-31G
 ------------------

 ------------
 H2O_H2O_4886
 ------------
 Symbolic Z-matrix:
 Charge =  0 Multiplicity = 1

                         Standard orientation:
 ---------------------------------------------------------------------
 Center     Atomic      Atomic             Coordinates (Angstroms)
 Number     Number       Type             X           Y           Z
 ---------------------------------------------------------------------
      1          8           0        0.037671   -3.380945    0.000000
      2          1           0       -0.762445   -3.951314    0.000000
      3          1           0        0.836696   -3.952840    0.000000
      4          8           0        0.037671    3.409220    0.000000
      5          1           0        0.263160    4.365599    0.000000
      6          1           0       -0.940146    3.312359    0.000000
 ---------------------------------------------------------------------

 SCF Done:  E(RHF) =  -33.6511474459     A.U. after   11 cycles
 E2 =    -0.2284144608D+00 EUMP2 =    -0.33879561906693D+02
 CCSD(T)
 CCSD(T)= -0.33896580758D+02

 The electronic state is 1-A'.
 Alpha  occ. eigenvalues --   -1.35242  -1.35059  -0.70872  -0.70685  -0.54942
 Alpha  occ. eigenvalues --   -0.54758  -0.49804  -0.49621
 Alpha virt. eigenvalues --    0.20494   0.20679   0.30729   0.30909   0.80749
 Alpha virt. eigenvalues --    0.80930   0.83835   0.84015   0.86924   0.87131
 Alpha virt. eigenvalues --    1.17632   1.17813   1.22095   1.22278   2.57664

 Mulliken charges:
               1
     1  O   -0.738833
     2  H    0.368619
     3  H    0.370213
     4  O   -0.738652
     5  H    0.368048
     6  H    0.370604
 Sum of Mulliken charges =   0.00000

 Dipole moment (field-independent basis, Debye):
    X=             -1.7399    Y=             -0.6601    Z=              0.0000  Tot=              1.8609
 Quadrupole moment (field-independent basis, Debye-Ang):
   XX=             -8.9573   YY=             20.3791   ZZ=            -14.9875
   XY=             -5.0735   XZ=              0.0000   YZ=              0.0000

 \MP4DQ=-33.8909316\MP4SDQ=-33.892961\CCSD=-33.8940177\CCSD(T)=-33.8965
 Normal termination of Gaussian 16 at Sun Dec 10 07:09:44 2023.
