 Gaussian 16, Revision A.03,
 Gaussian 16:  ES64L-G16RevA.03 25-Dec-2016

 ------------------
 #p CCSD(T)/CEP-31G
 ------------------

 ------------
 H2O_H2O_2430
 ------------
 Symbolic Z-matrix:
 Charge =  0 Multiplicity = 1

                         Standard orientation:
 ---------------------------------------------------------------------
 Center     Atomic      Atomic             Coordinates (Angstroms)
 Number     Number       Type             X           Y           Z
 ---------------------------------------------------------------------
      1          8           0        0.018361   -2.090025    0.000000
      2          1           0       -0.781641   -2.660553    0.000000
      3          1           0        0.817500   -2.661761    0.000000
      4          8           0        0.018361    2.096059    0.000000
      5          1           0        0.592517    2.893461    0.000000
      6          1           0       -0.922147    2.380578    0.000000
 ---------------------------------------------------------------------

 SCF Done:  E(RHF) =  -33.6479972206     A.U. after   11 cycles
 E2 =    -0.2286327549D+00 EUMP2 =    -0.33876629975496D+02
 CCSD(T)
 CCSD(T)= -0.33893741067D+02

 The electronic state is 1-A'.
 Alpha  occ. eigenvalues --   -1.34349  -1.34242  -0.69971  -0.69859  -0.53963
 Alpha  occ. eigenvalues --   -0.53645  -0.48868  -0.48756
 Alpha virt. eigenvalues --    0.21012   0.21521   0.31432   0.31558   0.81108
 Alpha virt. eigenvalues --    0.81407   0.82061   0.86998   0.88414   0.90453
 Alpha virt. eigenvalues --    1.18396   1.18501   1.22869   1.23027   2.58325

 Mulliken charges:
               1
     1  O   -0.728019
     2  H    0.362532
     3  H    0.365502
     4  O   -0.727571
     5  H    0.361923
     6  H    0.365633
 Sum of Mulliken charges =   0.00000

 Dipole moment (field-independent basis, Debye):
    X=             -0.8403    Y=             -0.1449    Z=              0.0000  Tot=              0.8527
 Quadrupole moment (field-independent basis, Debye-Ang):
   XX=             -8.2959   YY=              9.6323   ZZ=            -14.9847
   XY=             -1.2647   XZ=              0.0000   YZ=              0.0000

 4DQ=-33.8880615\MP4SDQ=-33.8901033\CCSD=-33.8911625\CCSD(T)=-33.893741
 Normal termination of Gaussian 16 at Sun Dec 10 07:11:08 2023.
