 Gaussian 16, Revision A.03,
 Gaussian 16:  ES64L-G16RevA.03 25-Dec-2016

 ------------------
 #p CCSD(T)/CEP-31G
 ------------------

 ------------
 H2O_H2O_2392
 ------------
 Symbolic Z-matrix:
 Charge =  0 Multiplicity = 1

                         Standard orientation:
 ---------------------------------------------------------------------
 Center     Atomic      Atomic             Coordinates (Angstroms)
 Number     Number       Type             X           Y           Z
 ---------------------------------------------------------------------
      1          8           0        0.051291   -2.032230    0.000000
      2          1           0       -0.749498   -2.601652    0.000000
      3          1           0        0.849640   -2.605069    0.000000
      4          8           0        0.051291    2.095716    0.000000
      5          1           0       -0.105228    3.065772    0.000000
      6          1           0       -0.815573    1.633058    0.000000
 ---------------------------------------------------------------------

 SCF Done:  E(RHF) =  -33.6507585113     A.U. after   11 cycles
 E2 =    -0.2285611639D+00 EUMP2 =    -0.33879319675233D+02
 CCSD(T)
 CCSD(T)= -0.33896353149D+02

 The electronic state is 1-A'.
 Alpha  occ. eigenvalues --   -1.35240  -1.34069  -0.70872  -0.69651  -0.54917
 Alpha  occ. eigenvalues --   -0.53725  -0.49796  -0.48630
 Alpha virt. eigenvalues --    0.20166   0.21933   0.30666   0.31898   0.80413
 Alpha virt. eigenvalues --    0.80651   0.82008   0.85724   0.86941   0.91891
 Alpha virt. eigenvalues --    1.17614   1.18934   1.22011   1.23500   2.57527

 Mulliken charges:
               1
     1  O   -0.737566
     2  H    0.364670
     3  H    0.373094
     4  O   -0.735161
     5  H    0.360014
     6  H    0.374949
 Sum of Mulliken charges =  -0.00000

 Dipole moment (field-independent basis, Debye):
    X=             -2.3450    Y=             -1.5264    Z=              0.0000  Tot=              2.7980
 Quadrupole moment (field-independent basis, Debye-Ang):
   XX=             -9.7420   YY=              5.0960   ZZ=            -14.9885
   XY=             -4.3908   XZ=              0.0000   YZ=              0.0000

 MP4DQ=-33.8906917\MP4SDQ=-33.8927296\CCSD=-33.8937803\CCSD(T)=-33.8963
 Normal termination of Gaussian 16 at Sun Dec 10 07:10:27 2023.
