 Gaussian 16, Revision A.03,
 Gaussian 16:  ES64L-G16RevA.03 25-Dec-2016

 ------------------
 #p CCSD(T)/CEP-31G
 ------------------

 -----------
 H2O_H2O_246
 -----------
 Symbolic Z-matrix:
 Charge =  0 Multiplicity = 1

                         Standard orientation:
 ---------------------------------------------------------------------
 Center     Atomic      Atomic             Coordinates (Angstroms)
 Number     Number       Type             X           Y           Z
 ---------------------------------------------------------------------
      1          8           0        0.056256   -0.873641    0.000000
      2          1           0       -0.746300   -1.440571    0.000000
      3          1           0        0.852820   -1.448959    0.000000
      4          8           0        0.056256    0.964994    0.000000
      5          1           0       -0.343210    1.862732    0.000000
      6          1           0       -0.663410    0.295974    0.000000
 ---------------------------------------------------------------------

 SCF Done:  E(RHF) =  -33.5474652095     A.U. after   11 cycles
 E2 =    -0.2337785934D+00 EUMP2 =    -0.33781243802844D+02
 CCSD(T)
 CCSD(T)= -0.33797483836D+02

 The electronic state is 1-A'.
 Alpha  occ. eigenvalues --   -1.40145  -1.28867  -0.76704  -0.71293  -0.53527
 Alpha  occ. eigenvalues --   -0.50820  -0.45827  -0.43271
 Alpha virt. eigenvalues --    0.19006   0.28589   0.29647   0.36262   0.78508
 Alpha virt. eigenvalues --    0.84015   0.90153   0.94485   0.98688   1.16784
 Alpha virt. eigenvalues --    1.19486   1.23872   1.31936   1.34543   2.74708

 Mulliken charges:
               1
     1  O   -0.797765
     2  H    0.362395
     3  H    0.435978
     4  O   -0.666883
     5  H    0.295334
     6  H    0.370941
 Sum of Mulliken charges =  -0.00000

 Dipole moment (field-independent basis, Debye):
    X=             -2.1047    Y=             -2.5452    Z=              0.0000  Tot=              3.3027
 Quadrupole moment (field-independent basis, Debye-Ang):
   XX=            -10.0470   YY=             -7.0919   ZZ=            -14.9526
   XY=             -2.2667   XZ=              0.0000   YZ=              0.0000

 \MP4DQ=-33.7909256\MP4SDQ=-33.7934527\CCSD=-33.7941699\CCSD(T)=-33.797
 Normal termination of Gaussian 16 at Sun Dec 10 06:29:21 2023.
