 Gaussian 16, Revision A.03,
 Gaussian 16:  ES64L-G16RevA.03 25-Dec-2016

 ------------------
 #p CCSD(T)/CEP-31G
 ------------------

 -----------
 H2O_H2O_266
 -----------
 Symbolic Z-matrix:
 Charge =  0 Multiplicity = 1

                         Standard orientation:
 ---------------------------------------------------------------------
 Center     Atomic      Atomic             Coordinates (Angstroms)
 Number     Number       Type             X           Y           Z
 ---------------------------------------------------------------------
      1          8           0        0.049591   -0.905778    0.000000
      2          1           0       -0.752575   -1.473260    0.000000
      3          1           0        0.846550   -1.480549    0.000000
      4          8           0        0.049591    0.962440    0.000000
      5          1           0       -0.040779    1.940877    0.000000
      6          1           0       -0.846654    0.559638    0.000000
 ---------------------------------------------------------------------

 SCF Done:  E(RHF) =  -33.5721611869     A.U. after   11 cycles
 E2 =    -0.2336542701D+00 EUMP2 =    -0.33805815457022D+02
 CCSD(T)
 CCSD(T)= -0.33822880337D+02

 The electronic state is 1-A'.
 Alpha  occ. eigenvalues --   -1.36671  -1.29861  -0.72592  -0.68916  -0.55436
 Alpha  occ. eigenvalues --   -0.51037  -0.44003  -0.43446
 Alpha virt. eigenvalues --    0.19905   0.28190   0.30740   0.33838   0.79879
 Alpha virt. eigenvalues --    0.84699   0.89812   0.96095   0.98454   1.17501
 Alpha virt. eigenvalues --    1.20251   1.25631   1.27814   1.33708   2.58884

 Mulliken charges:
               1
     1  O   -0.776371
     2  H    0.349540
     3  H    0.401349
     4  O   -0.650523
     5  H    0.319783
     6  H    0.356222
 Sum of Mulliken charges =   0.00000

 Dipole moment (field-independent basis, Debye):
    X=             -1.8826    Y=             -1.4301    Z=              0.0000  Tot=              2.3641
 Quadrupole moment (field-independent basis, Debye-Ang):
   XX=             -9.6987   YY=             -5.8160   ZZ=            -14.9782
   XY=             -1.6361   XZ=              0.0000   YZ=              0.0000

 \MP4DQ=-33.8164508\MP4SDQ=-33.8189001\CCSD=-33.8197512\CCSD(T)=-33.822
 Normal termination of Gaussian 16 at Sun Dec 10 06:29:44 2023.
