 Gaussian 16, Revision A.03,
 Gaussian 16:  ES64L-G16RevA.03 25-Dec-2016

 ------------------
 #p CCSD(T)/CEP-31G
 ------------------

 ------------
 H2O_H2O_3341
 ------------
 Symbolic Z-matrix:
 Charge =  0 Multiplicity = 1

                         Standard orientation:
 ---------------------------------------------------------------------
 Center     Atomic      Atomic             Coordinates (Angstroms)
 Number     Number       Type             X           Y           Z
 ---------------------------------------------------------------------
      1          8           0        0.049509   -2.541025    0.000000
      2          1           0       -0.751008   -3.110832    0.000000
      3          1           0        0.848132   -3.113482    0.000000
      4          8           0        0.049509    2.597975    0.000000
      5          1           0       -0.043699    3.576145    0.000000
      6          1           0       -0.845564    2.192574    0.000000
 ---------------------------------------------------------------------

 SCF Done:  E(RHF) =  -33.6510292245     A.U. after   11 cycles
 E2 =    -0.2284479563D+00 EUMP2 =    -0.33879477180751D+02
 CCSD(T)
 CCSD(T)= -0.33896499525D+02

 The electronic state is 1-A'.
 Alpha  occ. eigenvalues --   -1.35274  -1.34617  -0.70905  -0.70227  -0.54967
 Alpha  occ. eigenvalues --   -0.54303  -0.49834  -0.49178
 Alpha virt. eigenvalues --    0.20442   0.21139   0.30690   0.31343   0.80719
 Alpha virt. eigenvalues --    0.81363   0.83665   0.84580   0.86896   0.87714
 Alpha virt. eigenvalues --    1.17596   1.18247   1.22058   1.22722   2.57626

 Mulliken charges:
               1
     1  O   -0.738501
     2  H    0.367016
     3  H    0.371489
     4  O   -0.737607
     5  H    0.364839
     6  H    0.372764
 Sum of Mulliken charges =  -0.00000

 Dipole moment (field-independent basis, Debye):
    X=             -2.2783    Y=             -1.3436    Z=              0.0000  Tot=              2.6450
 Quadrupole moment (field-independent basis, Debye-Ang):
   XX=             -9.6284   YY=              9.7546   ZZ=            -14.9879
   XY=             -5.2628   XZ=              0.0000   YZ=              0.0000

 \MP4DQ=-33.890849\MP4SDQ=-33.8928792\CCSD=-33.8939348\CCSD(T)=-33.8964
 Normal termination of Gaussian 16 at Sun Dec 10 06:39:59 2023.
