 Gaussian 16, Revision A.03,
 Gaussian 16:  ES64L-G16RevA.03 25-Dec-2016

 ------------------
 #p CCSD(T)/CEP-31G
 ------------------

 ------------
 H2O_H2O_2567
 ------------
 Symbolic Z-matrix:
 Charge =  0 Multiplicity = 1

                         Standard orientation:
 ---------------------------------------------------------------------
 Center     Atomic      Atomic             Coordinates (Angstroms)
 Number     Number       Type             X           Y           Z
 ---------------------------------------------------------------------
      1          8           0        0.051288   -2.125297    0.000000
      2          1           0       -0.749449   -2.694793    0.000000
      3          1           0        0.849690   -2.698062    0.000000
      4          8           0        0.051288    2.188792    0.000000
      5          1           0       -0.105320    3.158834    0.000000
      6          1           0       -0.815533    1.726054    0.000000
 ---------------------------------------------------------------------

 SCF Done:  E(RHF) =  -33.6508660252     A.U. after   11 cycles
 E2 =    -0.2285217169D+00 EUMP2 =    -0.33879387742141D+02
 CCSD(T)
 CCSD(T)= -0.33896416388D+02

 The electronic state is 1-A'.
 Alpha  occ. eigenvalues --   -1.35260  -1.34196  -0.70892  -0.69785  -0.54943
 Alpha  occ. eigenvalues --   -0.53863  -0.49817  -0.48757
 Alpha virt. eigenvalues --    0.20251   0.21725   0.30667   0.31769   0.80690
 Alpha virt. eigenvalues --    0.81562   0.81821   0.85563   0.86902   0.90189
 Alpha virt. eigenvalues --    1.17601   1.18738   1.22018   1.23277   2.57618

 Mulliken charges:
               1
     1  O   -0.737967
     2  H    0.365305
     3  H    0.372774
     4  O   -0.735971
     5  H    0.361247
     6  H    0.374612
 Sum of Mulliken charges =  -0.00000

 Dipole moment (field-independent basis, Debye):
    X=             -2.3490    Y=             -1.5189    Z=              0.0000  Tot=              2.7973
 Quadrupole moment (field-independent basis, Debye-Ang):
   XX=             -9.7422   YY=              5.8301   ZZ=            -14.9884
   XY=             -4.6046   XZ=              0.0000   YZ=              0.0000

 MP4DQ=-33.8907597\MP4SDQ=-33.8927942\CCSD=-33.8938466\CCSD(T)=-33.8964
 Normal termination of Gaussian 16 at Sun Dec 10 06:25:58 2023.
