 Gaussian 16, Revision A.03,
 Gaussian 16:  ES64L-G16RevA.03 25-Dec-2016

 ------------------
 #p CCSD(T)/CEP-31G
 ------------------

 ------------
 H2O_H2O_4060
 ------------
 Symbolic Z-matrix:
 Charge =  0 Multiplicity = 1

                         Standard orientation:
 ---------------------------------------------------------------------
 Center     Atomic      Atomic             Coordinates (Angstroms)
 Number     Number       Type             X           Y           Z
 ---------------------------------------------------------------------
      1          8           0        0.034780   -2.944755    0.000000
      2          1           0       -0.765369   -3.515077    0.000000
      3          1           0        0.833773   -3.516696    0.000000
      4          8           0        0.034780    2.968289    0.000000
      5          1           0        0.322392    3.907856    0.000000
      6          1           0       -0.947279    2.935645    0.000000
 ---------------------------------------------------------------------

 SCF Done:  E(RHF) =  -33.6507222229     A.U. after   11 cycles
 E2 =    -0.2284425527D+00 EUMP2 =    -0.33879164775615D+02
 CCSD(T)
 CCSD(T)= -0.33896195807D+02

 The electronic state is 1-A'.
 Alpha  occ. eigenvalues --   -1.35090  -1.34887  -0.70718  -0.70509  -0.54765
 Alpha  occ. eigenvalues --   -0.54561  -0.49645  -0.49442
 Alpha virt. eigenvalues --    0.20623   0.20829   0.30856   0.31054   0.80909
 Alpha virt. eigenvalues --    0.81108   0.84032   0.84240   0.87107   0.87348
 Alpha virt. eigenvalues --    1.17767   1.17968   1.22234   1.22435   2.57810

 Mulliken charges:
               1
     1  O   -0.737349
     2  H    0.367587
     3  H    0.369761
     4  O   -0.737044
     5  H    0.366872
     6  H    0.370173
 Sum of Mulliken charges =  -0.00000

 Dipole moment (field-independent basis, Debye):
    X=             -1.6041    Y=             -0.5516    Z=              0.0000  Tot=              1.6963
 Quadrupole moment (field-independent basis, Debye-Ang):
   XX=             -8.8245   YY=             16.8022   ZZ=            -14.9870
   XY=             -3.9347   XZ=              0.0000   YZ=              0.0000

 \MP4DQ=-33.8905433\MP4SDQ=-33.8925739\CCSD=-33.8936311\CCSD(T)=-33.896
 Normal termination of Gaussian 16 at Sun Dec 10 06:53:11 2023.
