 Gaussian 16, Revision A.03,
 Gaussian 16:  ES64L-G16RevA.03 25-Dec-2016

 ------------------
 #p CCSD(T)/CEP-31G
 ------------------

 -----------
 H2O_H2O_649
 -----------
 Symbolic Z-matrix:
 Charge =  0 Multiplicity = 1

                         Standard orientation:
 ---------------------------------------------------------------------
 Center     Atomic      Atomic             Coordinates (Angstroms)
 Number     Number       Type             X           Y           Z
 ---------------------------------------------------------------------
      1          8           0        0.057361   -1.074226    0.000000
      2          1           0       -0.744685   -1.641877    0.000000
      3          1           0        0.854442   -1.648828    0.000000
      4          8           0        0.057361    1.187955    0.000000
      5          1           0       -0.510290    1.990001    0.000000
      6          1           0       -0.517241    0.390874    0.000000
 ---------------------------------------------------------------------

 SCF Done:  E(RHF) =  -33.6342351834     A.U. after   11 cycles
 E2 =    -0.2306071502D+00 EUMP2 =    -0.33864842333575D+02
 CCSD(T)
 CCSD(T)= -0.33881142399D+02

 The electronic state is 1-A'.
 Alpha  occ. eigenvalues --   -1.38358  -1.30031  -0.74108  -0.69822  -0.54083
 Alpha  occ. eigenvalues --   -0.52776  -0.50055  -0.44527
 Alpha virt. eigenvalues --    0.18553   0.28049   0.28565   0.38749   0.76276
 Alpha virt. eigenvalues --    0.84103   0.89616   0.91062   0.98425   1.12991
 Alpha virt. eigenvalues --    1.18510   1.19254   1.27170   1.31488   2.75828

 Mulliken charges:
               1
     1  O   -0.794393
     2  H    0.374441
     3  H    0.430391
     4  O   -0.720949
     5  H    0.320248
     6  H    0.390262
 Sum of Mulliken charges =   0.00000

 Dipole moment (field-independent basis, Debye):
    X=             -2.3625    Y=             -3.1535    Z=              0.0000  Tot=              3.9403
 Quadrupole moment (field-independent basis, Debye-Ang):
   XX=            -10.1066   YY=             -5.5392   ZZ=            -15.0042
   XY=             -3.3449   XZ=              0.0000   YZ=              0.0000

 \MP4DQ=-33.8750494\MP4SDQ=-33.8773087\CCSD=-33.8781827\CCSD(T)=-33.881
 Normal termination of Gaussian 16 at Sun Dec 10 06:36:52 2023.
