 Gaussian 16, Revision A.03,
 Gaussian 16:  ES64L-G16RevA.03 25-Dec-2016

 ------------------
 #p CCSD(T)/CEP-31G
 ------------------

 -----------
 H2O_H2O_170
 -----------
 Symbolic Z-matrix:
 Charge =  0 Multiplicity = 1

                         Standard orientation:
 ---------------------------------------------------------------------
 Center     Atomic      Atomic             Coordinates (Angstroms)
 Number     Number       Type             X           Y           Z
 ---------------------------------------------------------------------
      1          8           0        0.055395   -0.837710    0.000000
      2          1           0       -0.747248   -1.404518    0.000000
      3          1           0        0.851871   -1.413150    0.000000
      4          8           0        0.055395    0.921776    0.000000
      5          1           0       -0.284360    1.843770    0.000000
      6          1           0       -0.706580    0.301373    0.000000
 ---------------------------------------------------------------------

 SCF Done:  E(RHF) =  -33.5181916239     A.U. after   11 cycles
 E2 =    -0.2349071855D+00 EUMP2 =    -0.33753098809413D+02
 CCSD(T)
 CCSD(T)= -0.33769463341D+02

 The electronic state is 1-A'.
 Alpha  occ. eigenvalues --   -1.40722  -1.28698  -0.77165  -0.71460  -0.53804
 Alpha  occ. eigenvalues --   -0.51626  -0.43309  -0.43122
 Alpha virt. eigenvalues --    0.19163   0.28788   0.29947   0.35398   0.79144
 Alpha virt. eigenvalues --    0.83515   0.89863   0.94778   0.97891   1.17483
 Alpha virt. eigenvalues --    1.19880   1.25433   1.31295   1.36624   2.72603

 Mulliken charges:
               1
     1  O   -0.793523
     2  H    0.356389
     3  H    0.431581
     4  O   -0.651003
     5  H    0.289892
     6  H    0.366664
 Sum of Mulliken charges =  -0.00000

 Dipole moment (field-independent basis, Debye):
    X=             -2.0215    Y=             -2.3122    Z=              0.0000  Tot=              3.0713
 Quadrupole moment (field-independent basis, Debye-Ang):
   XX=            -10.0071   YY=             -7.5442   ZZ=            -14.9343
   XY=             -1.9997   XZ=              0.0000   YZ=              0.0000

 \MP4DQ=-33.7627595\MP4SDQ=-33.7653828\CCSD=-33.7660455\CCSD(T)=-33.769
 Normal termination of Gaussian 16 at Sun Dec 10 06:27:55 2023.
