 Gaussian 16, Revision A.03,
 Gaussian 16:  ES64L-G16RevA.03 25-Dec-2016

 ------------------
 #p CCSD(T)/CEP-31G
 ------------------

 -----------
 H2O_H2O_449
 -----------
 Symbolic Z-matrix:
 Charge =  0 Multiplicity = 1

                         Standard orientation:
 ---------------------------------------------------------------------
 Center     Atomic      Atomic             Coordinates (Angstroms)
 Number     Number       Type             X           Y           Z
 ---------------------------------------------------------------------
      1          8           0        0.057387   -0.967886    0.000000
      2          1           0       -0.744915   -1.535175    0.000000
      3          1           0        0.854208   -1.542848    0.000000
      4          8           0        0.057387    1.081563    0.000000
      5          1           0       -0.509903    1.883865    0.000000
      6          1           0       -0.517575    0.284741    0.000000
 ---------------------------------------------------------------------

 SCF Done:  E(RHF) =  -33.6015430449     A.U. after   11 cycles
 E2 =    -0.2314745927D+00 EUMP2 =    -0.33833017637622D+02
 CCSD(T)
 CCSD(T)= -0.33848840852D+02

 The electronic state is 1-A'.
 Alpha  occ. eigenvalues --   -1.40003  -1.28985  -0.76181  -0.71551  -0.53907
 Alpha  occ. eigenvalues --   -0.51188  -0.49127  -0.43387
 Alpha virt. eigenvalues --    0.18414   0.27859   0.29174   0.39395   0.76631
 Alpha virt. eigenvalues --    0.85034   0.90448   0.93232   0.98640   1.15120
 Alpha virt. eigenvalues --    1.18277   1.19756   1.29718   1.32240   2.87121

 Mulliken charges:
               1
     1  O   -0.800817
     2  H    0.376591
     3  H    0.447202
     4  O   -0.709591
     5  H    0.305924
     6  H    0.380692
 Sum of Mulliken charges =   0.00000

 Dipole moment (field-independent basis, Debye):
    X=             -2.2619    Y=             -3.2939    Z=              0.0000  Tot=              3.9957
 Quadrupole moment (field-independent basis, Debye-Ang):
   XX=            -10.0935   YY=             -6.6240   ZZ=            -14.9811
   XY=             -3.0176   XZ=              0.0000   YZ=              0.0000

 MP4DQ=-33.8425607\MP4SDQ=-33.8449276\CCSD=-33.8456957\CCSD(T)=-33.8488
 Normal termination of Gaussian 16 at Sun Dec 10 06:33:10 2023.
