 Gaussian 16, Revision A.03,
 Gaussian 16:  ES64L-G16RevA.03 25-Dec-2016

 ------------------
 #p CCSD(T)/CEP-31G
 ------------------

 -----------
 H2O_H2O_303
 -----------
 Symbolic Z-matrix:
 Charge =  0 Multiplicity = 1

                         Standard orientation:
 ---------------------------------------------------------------------
 Center     Atomic      Atomic             Coordinates (Angstroms)
 Number     Number       Type             X           Y           Z
 ---------------------------------------------------------------------
      1          8           0        0.011143   -0.961970    0.000000
      2          1           0       -0.788996   -1.532305    0.000000
      3          1           0        0.810145   -1.533898    0.000000
      4          8           0        0.011143    0.964142    0.000000
      5          1           0        0.684641    1.679618    0.000000
      6          1           0       -0.884084    1.369203    0.000000
 ---------------------------------------------------------------------

 SCF Done:  E(RHF) =  -33.5767187046     A.U. after   11 cycles
 E2 =    -0.2333260227D+00 EUMP2 =    -0.33810044727367D+02
 CCSD(T)
 CCSD(T)= -0.33827070234D+02

 The electronic state is 1-A'.
 Alpha  occ. eigenvalues --   -1.33668  -1.30043  -0.68589  -0.66144  -0.60155
 Alpha  occ. eigenvalues --   -0.48639  -0.43603  -0.39312
 Alpha virt. eigenvalues --    0.21470   0.26581   0.32646   0.33531   0.78878
 Alpha virt. eigenvalues --    0.81267   0.90168   0.93093   1.05519   1.20253
 Alpha virt. eigenvalues --    1.21923   1.22965   1.27576   1.28221   2.48223

 Mulliken charges:
               1
     1  O   -0.701328
     2  H    0.342856
     3  H    0.356835
     4  O   -0.694950
     5  H    0.351005
     6  H    0.345583
 Sum of Mulliken charges =  -0.00000

 Dipole moment (field-independent basis, Debye):
    X=             -0.4237    Y=             -0.0526    Z=              0.0000  Tot=              0.4269
 Quadrupole moment (field-independent basis, Debye-Ang):
   XX=             -8.4404   YY=             -4.5840   ZZ=            -15.0310
   XY=             -0.2380   XZ=              0.0000   YZ=              0.0000

 MP4DQ=-33.8207381\MP4SDQ=-33.8230857\CCSD=-33.8240163\CCSD(T)=-33.8270
 Normal termination of Gaussian 16 at Sun Dec 10 06:30:26 2023.
