 Gaussian 16, Revision A.03,
 Gaussian 16:  ES64L-G16RevA.03 25-Dec-2016

 ------------------
 #p CCSD(T)/CEP-31G
 ------------------

 ------------
 H2O_H2O_1079
 ------------
 Symbolic Z-matrix:
 Charge =  0 Multiplicity = 1

                         Standard orientation:
 ---------------------------------------------------------------------
 Center     Atomic      Atomic             Coordinates (Angstroms)
 Number     Number       Type             X           Y           Z
 ---------------------------------------------------------------------
      1          8           0        0.014784   -1.373224    0.000000
      2          1           0       -0.785315   -1.943616    0.000000
      3          1           0        0.813826   -1.945095    0.000000
      4          8           0        0.014784    1.377089    0.000000
      5          1           0        0.639993    2.135125    0.000000
      6          1           0       -0.905044    1.722667    0.000000
 ---------------------------------------------------------------------

 SCF Done:  E(RHF) =  -33.6371406061     A.U. after   11 cycles
 E2 =    -0.2295435060D+00 EUMP2 =    -0.33866684112157D+02
 CCSD(T)
 CCSD(T)= -0.33884101070D+02

 The electronic state is 1-A'.
 Alpha  occ. eigenvalues --   -1.33053  -1.32655  -0.68631  -0.68294  -0.54067
 Alpha  occ. eigenvalues --   -0.49660  -0.47689  -0.46813
 Alpha virt. eigenvalues --    0.21319   0.23549   0.32355   0.32667   0.79526
 Alpha virt. eigenvalues --    0.80712   0.82564   0.87433   1.00568   1.10600
 Alpha virt. eigenvalues --    1.19403   1.20777   1.24272   1.24437   2.58172

 Mulliken charges:
               1
     1  O   -0.705443
     2  H    0.348825
     3  H    0.356184
     4  O   -0.702769
     5  H    0.349703
     6  H    0.353500
 Sum of Mulliken charges =   0.00000

 Dipole moment (field-independent basis, Debye):
    X=             -0.6482    Y=             -0.0953    Z=              0.0000  Tot=              0.6552
 Quadrupole moment (field-independent basis, Debye-Ang):
   XX=             -8.3424   YY=              1.6512   ZZ=            -14.9882
   XY=             -0.5587   XZ=              0.0000   YZ=              0.0000

 MP4DQ=-33.8782436\MP4SDQ=-33.8803418\CCSD=-33.8814317\CCSD(T)=-33.8841
 Normal termination of Gaussian 16 at Sun Dec 10 06:44:56 2023.
