 Gaussian 16, Revision A.03,
 Gaussian 16:  ES64L-G16RevA.03 25-Dec-2016

 ------------------
 #p CCSD(T)/CEP-31G
 ------------------

 -----------
 H2O_H2O_112
 -----------
 Symbolic Z-matrix:
 Charge =  0 Multiplicity = 1

                         Standard orientation:
 ---------------------------------------------------------------------
 Center     Atomic      Atomic             Coordinates (Angstroms)
 Number     Number       Type             X           Y           Z
 ---------------------------------------------------------------------
      1          8           0        0.040453   -0.838786    0.000000
      2          1           0       -0.761433   -1.406663    0.000000
      3          1           0        0.837696   -1.413163    0.000000
      4          8           0        0.040453    0.871913    0.000000
      5          1           0        0.205922    1.840483    0.000000
      6          1           0       -0.929430    0.714323    0.000000
 ---------------------------------------------------------------------

 SCF Done:  E(RHF) =  -33.5202170784     A.U. after   12 cycles
 E2 =    -0.2362097018D+00 EUMP2 =    -0.33756426780243D+02
 CCSD(T)
 CCSD(T)= -0.33773287564D+02

 The electronic state is 1-A'.
 Alpha  occ. eigenvalues --   -1.37468  -1.29159  -0.72681  -0.68755  -0.59055
 Alpha  occ. eigenvalues --   -0.51792  -0.43073  -0.37018
 Alpha virt. eigenvalues --    0.20308   0.28494   0.31226   0.33485   0.81293
 Alpha virt. eigenvalues --    0.84723   0.89279   0.93704   0.97998   1.19921
 Alpha virt. eigenvalues --    1.20866   1.25839   1.26607   1.37408   2.55777

 Mulliken charges:
               1
     1  O   -0.746730
     2  H    0.337359
     3  H    0.390018
     4  O   -0.651673
     5  H    0.325785
     6  H    0.345241
 Sum of Mulliken charges =   0.00000

 Dipole moment (field-independent basis, Debye):
    X=             -1.4695    Y=             -0.8637    Z=              0.0000  Tot=              1.7046
 Quadrupole moment (field-independent basis, Debye-Ang):
   XX=             -9.3030   YY=             -7.0446   ZZ=            -14.9688
   XY=             -1.0494   XZ=              0.0000   YZ=              0.0000

 MP4DQ=-33.7665773\MP4SDQ=-33.769237\CCSD=-33.7699231\CCSD(T)=-33.77328
 Normal termination of Gaussian 16 at Sun Dec 10 06:26:50 2023.
