 Gaussian 16, Revision A.03,
 Gaussian 16:  ES64L-G16RevA.03 25-Dec-2016

 ------------------
 #p CCSD(T)/CEP-31G
 ------------------

 ------------
 H2O_H2O_1050
 ------------
 Symbolic Z-matrix:
 Charge =  0 Multiplicity = 1

                         Standard orientation:
 ---------------------------------------------------------------------
 Center     Atomic      Atomic             Coordinates (Angstroms)
 Number     Number       Type             X           Y           Z
 ---------------------------------------------------------------------
      1          8           0        0.000000   -0.000000    1.362027
      2          1           0        0.000000    0.799571    1.933159
      3          1           0       -0.000000   -0.799571    1.933159
      4          8           0        0.000000   -0.000000   -1.362027
      5          1           0       -0.000000   -0.799571   -1.933159
      6          1           0        0.000000    0.799571   -1.933159
 ---------------------------------------------------------------------

 SCF Done:  E(RHF) =  -33.6359819573     A.U. after   10 cycles
 E2 =    -0.2295745079D+00 EUMP2 =    -0.33865556465153D+02
 CCSD(T)
 CCSD(T)= -0.33882981420D+02

 The electronic state is 1-AG.
 Alpha  occ. eigenvalues --   -1.32950  -1.32558  -0.68518  -0.68208  -0.54090
 Alpha  occ. eigenvalues --   -0.49340  -0.47592  -0.46684
 Alpha virt. eigenvalues --    0.21440   0.23561   0.32406   0.32753   0.79574
 Alpha virt. eigenvalues --    0.80380   0.83334   0.87631   1.02937   1.08287
 Alpha virt. eigenvalues --    1.19488   1.20521   1.24412   1.24539   2.58028

 Mulliken charges:
               1
     1  O   -0.702446
     2  H    0.351223
     3  H    0.351223
     4  O   -0.702446
     5  H    0.351223
     6  H    0.351223
 Sum of Mulliken charges =  -0.00000

 Dipole moment (field-independent basis, Debye):
    X=             -0.0000    Y=              0.0000    Z=              0.0000  Tot=              0.0000
 Quadrupole moment (field-independent basis, Debye-Ang):
   XX=            -14.9889   YY=             -8.2172   ZZ=              1.5920
   XY=              0.0000   XZ=             -0.0000   YZ=             -0.0000

 33.8771186\MP4SDQ=-33.8792133\CCSD=-33.8803061\CCSD(T)=-33.8829814\RMS
 Normal termination of Gaussian 16 at Sun Dec 10 06:44:23 2023.
