 Gaussian 16, Revision A.03,
 Gaussian 16:  ES64L-G16RevA.03 25-Dec-2016

 ------------------
 #p CCSD(T)/CEP-31G
 ------------------

 ----------
 H2O_H2O_47
 ----------
 Symbolic Z-matrix:
 Charge =  0 Multiplicity = 1

                         Standard orientation:
 ---------------------------------------------------------------------
 Center     Atomic      Atomic             Coordinates (Angstroms)
 Number     Number       Type             X           Y           Z
 ---------------------------------------------------------------------
      1          8           0        0.056921   -0.763317    0.000000
      2          1           0       -0.746061   -1.329642    0.000000
      3          1           0        0.853052   -1.339235    0.000000
      4          8           0        0.056921    0.861952    0.000000
      5          1           0       -0.399749    1.731986    0.000000
      6          1           0       -0.617985    0.147805    0.000000
 ---------------------------------------------------------------------

 SCF Done:  E(RHF) =  -33.4082363634     A.U. after   12 cycles
 E2 =    -0.2371514309D+00 EUMP2 =    -0.33645387794356D+02
 CCSD(T)
 CCSD(T)= -0.33660832777D+02

 The electronic state is 1-A'.
 Alpha  occ. eigenvalues --   -1.46962  -1.27318  -0.82624  -0.74582  -0.57462
 Alpha  occ. eigenvalues --   -0.49266  -0.41820  -0.39181
 Alpha virt. eigenvalues --    0.18561   0.26587   0.31761   0.36841   0.78287
 Alpha virt. eigenvalues --    0.82731   0.90042   0.92570   0.97123   1.14072
 Alpha virt. eigenvalues --    1.17735   1.29371   1.32630   1.43074   2.86999

 Mulliken charges:
               1
     1  O   -0.748206
     2  H    0.351628
     3  H    0.458533
     4  O   -0.674124
     5  H    0.258280
     6  H    0.353889
 Sum of Mulliken charges =  -0.00000

 Dipole moment (field-independent basis, Debye):
    X=             -1.9481    Y=             -3.0069    Z=              0.0000  Tot=              3.5828
 Quadrupole moment (field-independent basis, Debye-Ang):
   XX=            -10.0959   YY=             -9.3766   ZZ=            -14.8445
   XY=             -2.0187   XZ=              0.0000   YZ=              0.0000

 4DQ=-33.6536145\MP4SDQ=-33.6565596\CCSD=-33.6569431\CCSD(T)=-33.660832
 Normal termination of Gaussian 16 at Sun Dec 10 06:25:36 2023.
