 Gaussian 16, Revision A.03,
 Gaussian 16:  ES64L-G16RevA.03 25-Dec-2016

 ------------------
 #p CCSD(T)/CEP-31G
 ------------------

 ------------
 H2O_H2O_2099
 ------------
 Symbolic Z-matrix:
 Charge =  0 Multiplicity = 1

                         Standard orientation:
 ---------------------------------------------------------------------
 Center     Atomic      Atomic             Coordinates (Angstroms)
 Number     Number       Type             X           Y           Z
 ---------------------------------------------------------------------
      1          8           0        0.057261   -1.845284    0.000000
      2          1           0       -0.743784   -2.414347    0.000000
      3          1           0        0.855353   -2.418481    0.000000
      4          8           0        0.057261    1.959215    0.000000
      5          1           0       -0.511803    2.760259    0.000000
      6          1           0       -0.515936    1.161122    0.000000
 ---------------------------------------------------------------------

 SCF Done:  E(RHF) =  -33.6539883475     A.U. after   11 cycles
 E2 =    -0.2285765417D+00 EUMP2 =    -0.33882564889153D+02
 CCSD(T)
 CCSD(T)= -0.33899526327D+02

 The electronic state is 1-A'.
 Alpha  occ. eigenvalues --   -1.36159  -1.33592  -0.71802  -0.69157  -0.56028
 Alpha  occ. eigenvalues --   -0.53363  -0.50760  -0.48192
 Alpha virt. eigenvalues --    0.19098   0.23014   0.29891   0.32953   0.79591
 Alpha virt. eigenvalues --    0.80126   0.82525   0.85522   0.86405   0.93623
 Alpha virt. eigenvalues --    1.16795   1.19839   1.21239   1.26921   2.55093

 Mulliken charges:
               1
     1  O   -0.747960
     2  H    0.369075
     3  H    0.380102
     4  O   -0.747816
     5  H    0.358208
     6  H    0.388390
 Sum of Mulliken charges =   0.00000

 Dipole moment (field-independent basis, Debye):
    X=             -2.6100    Y=             -2.7871    Z=              0.0000  Tot=              3.8183
 Quadrupole moment (field-independent basis, Debye-Ang):
   XX=            -10.1500   YY=             -0.3892   ZZ=            -14.9941
   XY=             -5.4027   XZ=              0.0000   YZ=              0.0000

 5\MP4DQ=-33.8938528\MP4SDQ=-33.8959055\CCSD=-33.8969424\CCSD(T)=-33.89
 Normal termination of Gaussian 16 at Sun Dec 10 07:05:11 2023.
