 Gaussian 16, Revision A.03,
 Gaussian 16:  ES64L-G16RevA.03 25-Dec-2016

 ------------------
 #p CCSD(T)/CEP-31G
 ------------------

 ------------
 H2O_H2O_2448
 ------------
 Symbolic Z-matrix:
 Charge =  0 Multiplicity = 1

                         Standard orientation:
 ---------------------------------------------------------------------
 Center     Atomic      Atomic             Coordinates (Angstroms)
 Number     Number       Type             X           Y           Z
 ---------------------------------------------------------------------
      1          8           0        0.057116   -2.035469    0.000000
      2          1           0       -0.743794   -2.604721    0.000000
      3          1           0        0.855343   -2.608477    0.000000
      4          8           0        0.057116    2.141957    0.000000
      5          1           0       -0.458536    2.978384    0.000000
      6          1           0       -0.566872    1.382915    0.000000
 ---------------------------------------------------------------------

 SCF Done:  E(RHF) =  -33.6530031769     A.U. after   11 cycles
 E2 =    -0.2284744324D+00 EUMP2 =    -0.33881477609369D+02
 CCSD(T)
 CCSD(T)= -0.33898448527D+02

 The electronic state is 1-A'.
 Alpha  occ. eigenvalues --   -1.35916  -1.33977  -0.71555  -0.69554  -0.55723
 Alpha  occ. eigenvalues --   -0.53725  -0.50504  -0.48564
 Alpha virt. eigenvalues --    0.19496   0.22265   0.30105   0.32236   0.80010
 Alpha virt. eigenvalues --    0.81452   0.81992   0.85508   0.86083   0.90147
 Alpha virt. eigenvalues --    1.17027   1.19249   1.21417   1.24654   2.56638

 Mulliken charges:
               1
     1  O   -0.744958
     2  H    0.368465
     3  H    0.377031
     4  O   -0.744244
     5  H    0.360962
     6  H    0.382744
 Sum of Mulliken charges =  -0.00000

 Dipole moment (field-independent basis, Debye):
    X=             -2.6138    Y=             -2.5665    Z=              0.0000  Tot=              3.6631
 Quadrupole moment (field-independent basis, Debye-Ang):
   XX=            -10.1451   YY=              1.3839   ZZ=            -14.9919
   XY=             -5.7345   XZ=              0.0000   YZ=              0.0000

 8\MP4DQ=-33.8927964\MP4SDQ=-33.8948344\CCSD=-33.8958784\CCSD(T)=-33.89
 Normal termination of Gaussian 16 at Sun Dec 10 07:11:27 2023.
