 Gaussian 16, Revision A.03,
 Gaussian 16:  ES64L-G16RevA.03 25-Dec-2016

 ------------------
 #p CCSD(T)/CEP-31G
 ------------------

 ------------
 H2O_H2O_2234
 ------------
 Symbolic Z-matrix:
 Charge =  0 Multiplicity = 1

                         Standard orientation:
 ---------------------------------------------------------------------
 Center     Atomic      Atomic             Coordinates (Angstroms)
 Number     Number       Type             X           Y           Z
 ---------------------------------------------------------------------
      1          8           0        0.031744   -1.976527    0.000000
      2          1           0       -0.768612   -2.546558    0.000000
      3          1           0        0.830528   -2.548758    0.000000
      4          8           0        0.031744    1.995690    0.000000
      5          1           0        0.380522    2.914308    0.000000
      6          1           0       -0.950336    2.027701    0.000000
 ---------------------------------------------------------------------

 SCF Done:  E(RHF) =  -33.6481030661     A.U. after   11 cycles
 E2 =    -0.2286786794D+00 EUMP2 =    -0.33876781745513D+02
 CCSD(T)
 CCSD(T)= -0.33893892881D+02

 The electronic state is 1-A'.
 Alpha  occ. eigenvalues --   -1.34452  -1.34075  -0.70077  -0.69679  -0.54053
 Alpha  occ. eigenvalues --   -0.53501  -0.48973  -0.48594
 Alpha virt. eigenvalues --    0.20831   0.21765   0.31352   0.31703   0.79413
 Alpha virt. eigenvalues --    0.81191   0.82332   0.86348   0.88431   0.93642
 Alpha virt. eigenvalues --    1.18297   1.18694   1.22796   1.23185   2.58168

 Mulliken charges:
               1
     1  O   -0.728472
     2  H    0.361331
     3  H    0.367221
     4  O   -0.726895
     5  H    0.359537
     6  H    0.367279
 Sum of Mulliken charges =  -0.00000

 Dipole moment (field-independent basis, Debye):
    X=             -1.4490    Y=             -0.4631    Z=              0.0000  Tot=              1.5212
 Quadrupole moment (field-independent basis, Debye-Ang):
   XX=             -8.7239   YY=              7.6633   ZZ=            -14.9852
   XY=             -2.1671   XZ=              0.0000   YZ=              0.0000

 4DQ=-33.8882086\MP4SDQ=-33.8902544\CCSD=-33.8913108\CCSD(T)=-33.893892
 Normal termination of Gaussian 16 at Sun Dec 10 07:07:37 2023.
