 Gaussian 16, Revision A.03,
 Gaussian 16:  ES64L-G16RevA.03 25-Dec-2016

 ------------------
 #p CCSD(T)/CEP-31G
 ------------------

 ------------
 H2O_H2O_2353
 ------------
 Symbolic Z-matrix:
 Charge =  0 Multiplicity = 1

                         Standard orientation:
 ---------------------------------------------------------------------
 Center     Atomic      Atomic             Coordinates (Angstroms)
 Number     Number       Type             X           Y           Z
 ---------------------------------------------------------------------
      1          8           0        0.011143   -2.052228    0.000000
      2          1           0       -0.788695   -2.622986    0.000000
      3          1           0        0.810447   -2.623733    0.000000
      4          8           0        0.011143    2.054412    0.000000
      5          1           0        0.684262    2.770244    0.000000
      6          1           0       -0.884298    2.459000    0.000000
 ---------------------------------------------------------------------

 SCF Done:  E(RHF) =  -33.6475852198     A.U. after   11 cycles
 E2 =    -0.2286563412D+00 EUMP2 =    -0.33876241561040D+02
 CCSD(T)
 CCSD(T)= -0.33893364916D+02

 The electronic state is 1-A'.
 Alpha  occ. eigenvalues --   -1.34242  -1.34201  -0.69864  -0.69820  -0.53887
 Alpha  occ. eigenvalues --   -0.53520  -0.48763  -0.48701
 Alpha virt. eigenvalues --    0.21052   0.21585   0.31483   0.31616   0.80648
 Alpha virt. eigenvalues --    0.81421   0.82206   0.87150   0.88886   0.90859
 Alpha virt. eigenvalues --    1.18486   1.18526   1.22915   1.23105   2.58326

 Mulliken charges:
               1
     1  O   -0.726614
     2  H    0.362361
     3  H    0.364260
     4  O   -0.726432
     5  H    0.362054
     6  H    0.364371
 Sum of Mulliken charges =  -0.00000

 Dipole moment (field-independent basis, Debye):
    X=             -0.5097    Y=             -0.0526    Z=              0.0000  Tot=              0.5124
 Quadrupole moment (field-independent basis, Debye-Ang):
   XX=             -8.1657   YY=              9.4549   ZZ=            -14.9843
   XY=             -0.7351   XZ=              0.0000   YZ=              0.0000

 P4DQ=-33.8876807\MP4SDQ=-33.8897245\CCSD=-33.8907841\CCSD(T)=-33.89336
 Normal termination of Gaussian 16 at Sun Dec 10 07:09:45 2023.
