 Gaussian 16, Revision A.03,
 Gaussian 16:  ES64L-G16RevA.03 25-Dec-2016

 ------------------
 #p CCSD(T)/CEP-31G
 ------------------

 ------------
 H2O_H2O_1692
 ------------
 Symbolic Z-matrix:
 Charge =  0 Multiplicity = 1

                         Standard orientation:
 ---------------------------------------------------------------------
 Center     Atomic      Atomic             Coordinates (Angstroms)
 Number     Number       Type             X           Y           Z
 ---------------------------------------------------------------------
      1          8           0        0.051306   -1.659970    0.000000
      2          1           0       -0.749751   -2.229016    0.000000
      3          1           0        0.849386   -2.233184    0.000000
      4          8           0        0.051306    1.723408    0.000000
      5          1           0       -0.104757    2.693537    0.000000
      6          1           0       -0.815776    1.261157    0.000000
 ---------------------------------------------------------------------

 SCF Done:  E(RHF) =  -33.6498391282     A.U. after   11 cycles
 E2 =    -0.2289075295D+00 EUMP2 =    -0.33878746657705D+02
 CCSD(T)
 CCSD(T)= -0.33895847874D+02

 The electronic state is 1-A'.
 Alpha  occ. eigenvalues --   -1.35135  -1.33357  -0.70772  -0.68913  -0.54802
 Alpha  occ. eigenvalues --   -0.52914  -0.49684  -0.47911
 Alpha virt. eigenvalues --    0.19810   0.23161   0.30697   0.32569   0.75610
 Alpha virt. eigenvalues --    0.79782   0.83749   0.85760   0.88061   1.04807
 Alpha virt. eigenvalues --    1.17631   1.20459   1.22140   1.25161   2.56509

 Mulliken charges:
               1
     1  O   -0.735056
     2  H    0.360676
     3  H    0.375123
     4  O   -0.729011
     5  H    0.352248
     6  H    0.376019
 Sum of Mulliken charges =  -0.00000

 Dipole moment (field-independent basis, Debye):
    X=             -2.3150    Y=             -1.5695    Z=              0.0000  Tot=              2.7969
 Quadrupole moment (field-independent basis, Debye-Ang):
   XX=             -9.7441   YY=              2.0987   ZZ=            -14.9892
   XY=             -3.5421   XZ=              0.0000   YZ=              0.0000

 \MP4DQ=-33.8901275\MP4SDQ=-33.8922013\CCSD=-33.8932447\CCSD(T)=-33.895
 Normal termination of Gaussian 16 at Sun Dec 10 06:56:20 2023.
