 Gaussian 16, Revision A.03,
 Gaussian 16:  ES64L-G16RevA.03 25-Dec-2016

 ------------------
 #p CCSD(T)/CEP-31G
 ------------------

 -----------
 H2O_H2O_464
 -----------
 Symbolic Z-matrix:
 Charge =  0 Multiplicity = 1

                         Standard orientation:
 ---------------------------------------------------------------------
 Center     Atomic      Atomic             Coordinates (Angstroms)
 Number     Number       Type             X           Y           Z
 ---------------------------------------------------------------------
      1          8           0        0.045394   -1.018834    0.000000
      2          1           0       -0.756311   -1.586966    0.000000
      3          1           0        0.842820   -1.592958    0.000000
      4          8           0        0.045394    1.063184    0.000000
      5          1           0        0.082713    2.045077    0.000000
      6          1           0       -0.895531    0.780048    0.000000
 ---------------------------------------------------------------------

 SCF Done:  E(RHF) =  -33.6121037454     A.U. after   11 cycles
 E2 =    -0.2318279147D+00 EUMP2 =    -0.33843931660069D+02
 CCSD(T)
 CCSD(T)= -0.33861215155D+02

 The electronic state is 1-A'.
 Alpha  occ. eigenvalues --   -1.34617  -1.30880  -0.70252  -0.67760  -0.55938
 Alpha  occ. eigenvalues --   -0.49348  -0.45900  -0.44946
 Alpha virt. eigenvalues --    0.20276   0.26705   0.31487   0.33469   0.79329
 Alpha virt. eigenvalues --    0.84416   0.89874   0.96708   0.99449   1.15003
 Alpha virt. eigenvalues --    1.19070   1.23470   1.25075   1.31907   2.55174

 Mulliken charges:
               1
     1  O   -0.753856
     2  H    0.348043
     3  H    0.386528
     4  O   -0.671041
     5  H    0.336255
     6  H    0.354071
 Sum of Mulliken charges =  -0.00000

 Dipole moment (field-independent basis, Debye):
    X=             -1.8177    Y=             -1.0870    Z=              0.0000  Tot=              2.1179
 Quadrupole moment (field-independent basis, Debye-Ang):
   XX=             -9.4695   YY=             -3.8087   ZZ=            -14.9967
   XY=             -1.5865   XZ=              0.0000   YZ=              0.0000

 DQ=-33.8550438\MP4SDQ=-33.8573196\CCSD=-33.8583118\CCSD(T)=-33.8612152
 Normal termination of Gaussian 16 at Sun Dec 10 06:33:26 2023.
