 Gaussian 16, Revision A.03,
 Gaussian 16:  ES64L-G16RevA.03 25-Dec-2016

 ------------------
 #p CCSD(T)/CEP-31G
 ------------------

 ------------
 H2O_H2O_2233
 ------------
 Symbolic Z-matrix:
 Charge =  0 Multiplicity = 1

                         Standard orientation:
 ---------------------------------------------------------------------
 Center     Atomic      Atomic             Coordinates (Angstroms)
 Number     Number       Type             X           Y           Z
 ---------------------------------------------------------------------
      1          8           0        0.028566   -1.978661    0.000000
      2          1           0       -0.771711   -2.548803    0.000000
      3          1           0        0.827429   -2.550782    0.000000
      4          8           0        0.028566    1.993894    0.000000
      5          1           0        0.436557    2.887791    0.000000
      6          1           0       -0.949331    2.089934    0.000000
 ---------------------------------------------------------------------

 SCF Done:  E(RHF) =  -33.6478833765     A.U. after   11 cycles
 E2 =    -0.2286832373D+00 EUMP2 =    -0.33876566613877D+02
 CCSD(T)
 CCSD(T)= -0.33893683866D+02

 The electronic state is 1-A'.
 Alpha  occ. eigenvalues --   -1.34384  -1.34084  -0.70008  -0.69691  -0.53992
 Alpha  occ. eigenvalues --   -0.53476  -0.48902  -0.48599
 Alpha virt. eigenvalues --    0.20889   0.21744   0.31409   0.31685   0.79479
 Alpha virt. eigenvalues --    0.81235   0.82353   0.86456   0.88593   0.93451
 Alpha virt. eigenvalues --    1.18356   1.18668   1.22860   1.23169   2.58206

 Mulliken charges:
               1
     1  O   -0.727713
     2  H    0.361236
     3  H    0.366541
     4  O   -0.726411
     5  H    0.359759
     6  H    0.366588
 Sum of Mulliken charges =  -0.00000

 Dipole moment (field-independent basis, Debye):
    X=             -1.3041    Y=             -0.3682    Z=              0.0000  Tot=              1.3551
 Quadrupole moment (field-independent basis, Debye-Ang):
   XX=             -8.6042   YY=              7.9185   ZZ=            -14.9849
   XY=             -1.9158   XZ=              0.0000   YZ=              0.0000

 P4DQ=-33.887998\MP4SDQ=-33.8900442\CCSD=-33.8911013\CCSD(T)=-33.893683
 Normal termination of Gaussian 16 at Sun Dec 10 07:07:36 2023.
