 Gaussian 16, Revision A.03,
 Gaussian 16:  ES64L-G16RevA.03 25-Dec-2016

 ------------------
 #p CCSD(T)/CEP-31G
 ------------------

 ------------
 H2O_H2O_3781
 ------------
 Symbolic Z-matrix:
 Charge =  0 Multiplicity = 1

                         Standard orientation:
 ---------------------------------------------------------------------
 Center     Atomic      Atomic             Coordinates (Angstroms)
 Number     Number       Type             X           Y           Z
 ---------------------------------------------------------------------
      1          8           0        0.021859   -2.806575    0.000000
      2          1           0       -0.778094   -3.377171    0.000000
      3          1           0        0.821048   -3.378242    0.000000
      4          8           0        0.021859    2.815240    0.000000
      5          1           0        0.542562    3.648532    0.000000
      6          1           0       -0.935262    3.037555    0.000000
 ---------------------------------------------------------------------

 SCF Done:  E(RHF) =  -33.6502527632     A.U. after   11 cycles
 E2 =    -0.2284659559D+00 EUMP2 =    -0.33878718719119D+02
 CCSD(T)
 CCSD(T)= -0.33895763255D+02

 The electronic state is 1-A'.
 Alpha  occ. eigenvalues --   -1.34907  -1.34824  -0.70533  -0.70448  -0.54555
 Alpha  occ. eigenvalues --   -0.54472  -0.49455  -0.49372
 Alpha virt. eigenvalues --    0.20779   0.20865   0.31011   0.31091   0.81098
 Alpha virt. eigenvalues --    0.81180   0.84212   0.84421   0.87323   0.87427
 Alpha virt. eigenvalues --    1.17930   1.18012   1.22401   1.22483   2.57984

 Mulliken charges:
               1
     1  O   -0.735697
     2  H    0.367057
     3  H    0.368639
     4  O   -0.735530
     5  H    0.366662
     6  H    0.368868
 Sum of Mulliken charges =  -0.00000

 Dipole moment (field-independent basis, Debye):
    X=             -1.0075    Y=             -0.2035    Z=              0.0000  Tot=              1.0279
 Quadrupole moment (field-independent basis, Debye-Ang):
   XX=             -8.3543   YY=             16.9276   ZZ=            -14.9864
   XY=             -2.2241   XZ=              0.0000   YZ=              0.0000

 \MP4DQ=-33.890107\MP4SDQ=-33.8921389\CCSD=-33.8931969\CCSD(T)=-33.8957
 Normal termination of Gaussian 16 at Sun Dec 10 06:48:03 2023.
