 Gaussian 16, Revision A.03,
 Gaussian 16:  ES64L-G16RevA.03 25-Dec-2016

 ------------------
 #p CCSD(T)/CEP-31G
 ------------------

 ------------
 H2O_H2O_3140
 ------------
 Symbolic Z-matrix:
 Charge =  0 Multiplicity = 1

                         Standard orientation:
 ---------------------------------------------------------------------
 Center     Atomic      Atomic             Coordinates (Angstroms)
 Number     Number       Type             X           Y           Z
 ---------------------------------------------------------------------
      1          8           0        0.047530   -2.438102    0.000000
      2          1           0       -0.752988   -3.007906    0.000000
      3          1           0        0.846152   -3.010560    0.000000
      4          8           0        0.047530    2.488710    0.000000
      5          1           0        0.018499    3.470883    0.000000
      6          1           0       -0.872142    2.142721    0.000000
 ---------------------------------------------------------------------

 SCF Done:  E(RHF) =  -33.6507439360     A.U. after   11 cycles
 E2 =    -0.2284698516D+00 EUMP2 =    -0.33879213787585D+02
 CCSD(T)
 CCSD(T)= -0.33896244575D+02

 The electronic state is 1-A'.
 Alpha  occ. eigenvalues --   -1.35178  -1.34540  -0.70808  -0.70148  -0.54854
 Alpha  occ. eigenvalues --   -0.54211  -0.49734  -0.49098
 Alpha virt. eigenvalues --    0.20509   0.21210   0.30769   0.31399   0.80818
 Alpha virt. eigenvalues --    0.81445   0.83547   0.84844   0.87011   0.87925
 Alpha virt. eigenvalues --    1.17680   1.18313   1.22143   1.22790   2.57718

 Mulliken charges:
               1
     1  O   -0.737519
     2  H    0.366339
     3  H    0.371187
     4  O   -0.736445
     5  H    0.364126
     6  H    0.372312
 Sum of Mulliken charges =  -0.00000

 Dipole moment (field-independent basis, Debye):
    X=             -2.1853    Y=             -1.1968    Z=              0.0000  Tot=              2.4915
 Quadrupole moment (field-independent basis, Debye-Ang):
   XX=             -9.5049   YY=              9.5182   ZZ=            -14.9876
   XY=             -4.7275   XZ=              0.0000   YZ=              0.0000

 7\MP4DQ=-33.8905915\MP4SDQ=-33.8926227\CCSD=-33.8936785\CCSD(T)=-33.89
 Normal termination of Gaussian 16 at Sun Dec 10 06:36:24 2023.
