 Gaussian 16, Revision A.03,
 Gaussian 16:  ES64L-G16RevA.03 25-Dec-2016

 ------------------
 #p CCSD(T)/CEP-31G
 ------------------

 -----------
 H2O_H2O_779
 -----------
 Symbolic Z-matrix:
 Charge =  0 Multiplicity = 1

                         Standard orientation:
 ---------------------------------------------------------------------
 Center     Atomic      Atomic             Coordinates (Angstroms)
 Number     Number       Type             X           Y           Z
 ---------------------------------------------------------------------
      1          8           0        0.014784   -1.213675    0.000000
      2          1           0       -0.785384   -1.783969    0.000000
      3          1           0        0.813757   -1.785643    0.000000
      4          8           0        0.014784    1.217536    0.000000
      5          1           0        0.640085    1.975498    0.000000
      6          1           0       -0.905002    1.563226    0.000000
 ---------------------------------------------------------------------

 SCF Done:  E(RHF) =  -33.6283125266     A.U. after   11 cycles
 E2 =    -0.2302144058D+00 EUMP2 =    -0.33858526932446D+02
 CCSD(T)
 CCSD(T)= -0.33875944521D+02

 The electronic state is 1-A'.
 Alpha  occ. eigenvalues --   -1.32791  -1.31893  -0.68291  -0.67599  -0.55122
 Alpha  occ. eigenvalues --   -0.47540  -0.47167  -0.45850
 Alpha virt. eigenvalues --    0.21434   0.24424   0.32679   0.32973   0.79219
 Alpha virt. eigenvalues --    0.79498   0.89141   0.91089   1.03511   1.11195
 Alpha virt. eigenvalues --    1.19738   1.22151   1.24176   1.25727   2.54516

 Mulliken charges:
               1
     1  O   -0.702518
     2  H    0.345537
     3  H    0.355755
     4  O   -0.697326
     5  H    0.349057
     6  H    0.349495
 Sum of Mulliken charges =  -0.00000

 Dipole moment (field-independent basis, Debye):
    X=             -0.6241    Y=             -0.0924    Z=              0.0000  Tot=              0.6309
 Quadrupole moment (field-independent basis, Debye-Ang):
   XX=             -8.3861   YY=             -0.4667   ZZ=            -14.9984
   XY=             -0.4563   XZ=              0.0000   YZ=              0.0000

 P4DQ=-33.8699954\MP4SDQ=-33.8721155\CCSD=-33.8732048\CCSD(T)=-33.87594
 Normal termination of Gaussian 16 at Sun Dec 10 06:39:18 2023.
