 Gaussian 16, Revision A.03,
 Gaussian 16:  ES64L-G16RevA.03 25-Dec-2016

 ------------------
 #p CCSD(T)/CEP-31G
 ------------------

 -----------
 H2O_H2O_317
 -----------
 Symbolic Z-matrix:
 Charge =  0 Multiplicity = 1

                         Standard orientation:
 ---------------------------------------------------------------------
 Center     Atomic      Atomic             Coordinates (Angstroms)
 Number     Number       Type             X           Y           Z
 ---------------------------------------------------------------------
      1          8           0        0.051369   -0.928801    0.000000
      2          1           0       -0.750816   -1.496256    0.000000
      3          1           0        0.848309   -1.503598    0.000000
      4          8           0        0.051369    0.992035    0.000000
      5          1           0       -0.102768    1.962472    0.000000
      6          1           0       -0.816629    0.531507    0.000000
 ---------------------------------------------------------------------

 SCF Done:  E(RHF) =  -33.5843928466     A.U. after   11 cycles
 E2 =    -0.2331291072D+00 EUMP2 =    -0.33817521953834D+02
 CCSD(T)
 CCSD(T)= -0.33834560342D+02

 The electronic state is 1-A'.
 Alpha  occ. eigenvalues --   -1.36605  -1.30027  -0.72592  -0.68984  -0.54651
 Alpha  occ. eigenvalues --   -0.50979  -0.45067  -0.44233
 Alpha virt. eigenvalues --    0.19770   0.28095   0.30540   0.34112   0.79397
 Alpha virt. eigenvalues --    0.84664   0.89893   0.96003   0.99080   1.16557
 Alpha virt. eigenvalues --    1.19954   1.25138   1.27689   1.33077   2.60493

 Mulliken charges:
               1
     1  O   -0.780087
     2  H    0.352459
     3  H    0.404242
     4  O   -0.655908
     5  H    0.318858
     6  H    0.360436
 Sum of Mulliken charges =  -0.00000

 Dipole moment (field-independent basis, Debye):
    X=             -1.9776    Y=             -1.6069    Z=              0.0000  Tot=              2.5481
 Quadrupole moment (field-independent basis, Debye-Ang):
   XX=             -9.7873   YY=             -5.5426   ZZ=            -14.9825
   XY=             -1.8361   XZ=              0.0000   YZ=              0.0000

 4DQ=-33.8281944\MP4SDQ=-33.8306002\CCSD=-33.8314765\CCSD(T)=-33.834560
 Normal termination of Gaussian 16 at Sun Dec 10 06:30:42 2023.
