 Gaussian 16, Revision A.03,
 Gaussian 16:  ES64L-G16RevA.03 25-Dec-2016

 ------------------
 #p CCSD(T)/CEP-31G
 ------------------

 ------------
 H2O_H2O_3120
 ------------
 Symbolic Z-matrix:
 Charge =  0 Multiplicity = 1

                         Standard orientation:
 ---------------------------------------------------------------------
 Center     Atomic      Atomic             Coordinates (Angstroms)
 Number     Number       Type             X           Y           Z
 ---------------------------------------------------------------------
      1          8           0        0.055249   -2.406428    0.000000
      2          1           0       -0.745428   -2.976008    0.000000
      3          1           0        0.853711   -2.979110    0.000000
      4          8           0        0.055249    2.490876    0.000000
      5          1           0       -0.287693    3.411690    0.000000
      6          1           0       -0.704576    1.867842    0.000000
 ---------------------------------------------------------------------

 SCF Done:  E(RHF) =  -33.6517617712     A.U. after   11 cycles
 E2 =    -0.2284242029D+00 EUMP2 =    -0.33880185974116D+02
 CCSD(T)
 CCSD(T)= -0.33897187046D+02

 The electronic state is 1-A'.
 Alpha  occ. eigenvalues --   -1.35554  -1.34474  -0.71187  -0.70076  -0.55289
 Alpha  occ. eigenvalues --   -0.54190  -0.50124  -0.49046
 Alpha virt. eigenvalues --    0.20157   0.21377   0.30448   0.31553   0.80430
 Alpha virt. eigenvalues --    0.81485   0.83177   0.84737   0.86553   0.87904
 Alpha virt. eigenvalues --    1.17347   1.18434   1.21794   1.22952   2.57358

 Mulliken charges:
               1
     1  O   -0.741076
     2  H    0.367780
     3  H    0.373325
     4  O   -0.740139
     5  H    0.364173
     6  H    0.375938
 Sum of Mulliken charges =   0.00000

 Dipole moment (field-independent basis, Debye):
    X=             -2.5401    Y=             -1.9998    Z=              0.0000  Tot=              3.2328
 Quadrupole moment (field-independent basis, Debye-Ang):
   XX=            -10.0159   YY=              5.9305   ZZ=            -14.9893
   XY=             -6.0579   XZ=              0.0000   YZ=              0.0000

 \MP4DQ=-33.8915413\MP4SDQ=-33.8935703\CCSD=-33.8946236\CCSD(T)=-33.897
 Normal termination of Gaussian 16 at Sun Dec 10 06:36:04 2023.
