 Gaussian 16, Revision A.03,
 Gaussian 16:  ES64L-G16RevA.03 25-Dec-2016

 ------------------
 #p CCSD(T)/CEP-31G
 ------------------

 ------------
 H2O_H2O_1232
 ------------
 Symbolic Z-matrix:
 Charge =  0 Multiplicity = 1

                         Standard orientation:
 ---------------------------------------------------------------------
 Center     Atomic      Atomic             Coordinates (Angstroms)
 Number     Number       Type             X           Y           Z
 ---------------------------------------------------------------------
      1          8           0        0.025269   -1.448741    0.000000
      2          1           0       -0.775155   -2.018677    0.000000
      3          1           0        0.823986   -2.021068    0.000000
      4          8           0        0.025269    1.460445    0.000000
      5          1           0        0.491071    2.325624    0.000000
      6          1           0       -0.944212    1.620486    0.000000
 ---------------------------------------------------------------------

 SCF Done:  E(RHF) =  -33.6407809103     A.U. after   11 cycles
 E2 =    -0.2293547862D+00 EUMP2 =    -0.33870135696471D+02
 CCSD(T)
 CCSD(T)= -0.33887502488D+02

 The electronic state is 1-A'.
 Alpha  occ. eigenvalues --   -1.33430  -1.32959  -0.69039  -0.68564  -0.53913
 Alpha  occ. eigenvalues --   -0.50785  -0.48000  -0.47259
 Alpha virt. eigenvalues --    0.21041   0.23302   0.32099   0.32470   0.78980
 Alpha virt. eigenvalues --    0.79624   0.82356   0.86433   0.96424   1.11970
 Alpha virt. eigenvalues --    1.19080   1.20756   1.23884   1.24108   2.59112

 Mulliken charges:
               1
     1  O   -0.711995
     2  H    0.350378
     3  H    0.361050
     4  O   -0.706601
     5  H    0.349318
     6  H    0.357850
 Sum of Mulliken charges =  -0.00000

 Dipole moment (field-independent basis, Debye):
    X=             -1.1205    Y=             -0.2913    Z=              0.0000  Tot=              1.1578
 Quadrupole moment (field-independent basis, Debye-Ang):
   XX=             -8.5713   YY=              2.3568   ZZ=            -14.9859
   XY=             -1.0977   XZ=              0.0000   YZ=              0.0000

 MP4DQ=-33.881679\MP4SDQ=-33.8837775\CCSD=-33.8848557\CCSD(T)=-33.88750
 Normal termination of Gaussian 16 at Sun Dec 10 06:47:47 2023.
