 Gaussian 16, Revision A.03,
 Gaussian 16:  ES64L-G16RevA.03 25-Dec-2016

 ------------------
 #p CCSD(T)/CEP-31G
 ------------------

 -----------
 H2O_H2O_287
 -----------
 Symbolic Z-matrix:
 Charge =  0 Multiplicity = 1

                         Standard orientation:
 ---------------------------------------------------------------------
 Center     Atomic      Atomic             Coordinates (Angstroms)
 Number     Number       Type             X           Y           Z
 ---------------------------------------------------------------------
      1          8           0        0.040446   -0.931840    0.000000
      2          1           0       -0.761213   -1.500038    0.000000
      3          1           0        0.837918   -1.505899    0.000000
      4          8           0        0.040446    0.965000    0.000000
      5          1           0        0.205529    1.933635    0.000000
      6          1           0       -0.929373    0.807023    0.000000
 ---------------------------------------------------------------------

 SCF Done:  E(RHF) =  -33.5797254036     A.U. after   11 cycles
 E2 =    -0.2333436104D+00 EUMP2 =    -0.33813069014074D+02
 CCSD(T)
 CCSD(T)= -0.33830226412D+02

 The electronic state is 1-A'.
 Alpha  occ. eigenvalues --   -1.35113  -1.30118  -0.70590  -0.67649  -0.57802
 Alpha  occ. eigenvalues --   -0.49852  -0.43990  -0.41746
 Alpha virt. eigenvalues --    0.20509   0.27362   0.31632   0.33427   0.80522
 Alpha virt. eigenvalues --    0.84316   0.89898   0.96550   0.98615   1.18586
 Alpha virt. eigenvalues --    1.19547   1.25187   1.26525   1.32575   2.52752

 Mulliken charges:
               1
     1  O   -0.749583
     2  H    0.343197
     3  H    0.385415
     4  O   -0.663622
     5  H    0.338387
     6  H    0.346205
 Sum of Mulliken charges =   0.00000

 Dipole moment (field-independent basis, Debye):
    X=             -1.5472    Y=             -0.8125    Z=              0.0000  Tot=              1.7476
 Quadrupole moment (field-independent basis, Debye-Ang):
   XX=             -9.2678   YY=             -5.0953   ZZ=            -14.9959
   XY=             -1.1539   XZ=              0.0000   YZ=              0.0000

 P4DQ=-33.8238641\MP4SDQ=-33.8262625\CCSD=-33.8271681\CCSD(T)=-33.83022
 Normal termination of Gaussian 16 at Sun Dec 10 06:30:08 2023.
