 Gaussian 16, Revision A.03,
 Gaussian 16:  ES64L-G16RevA.03 25-Dec-2016

 ------------------
 #p CCSD(T)/CEP-31G
 ------------------

 -----------
 H2O_H2O_210
 -----------
 Symbolic Z-matrix:
 Charge =  0 Multiplicity = 1

                         Standard orientation:
 ---------------------------------------------------------------------
 Center     Atomic      Atomic             Coordinates (Angstroms)
 Number     Number       Type             X           Y           Z
 ---------------------------------------------------------------------
      1          8           0        0.034807   -0.897267    0.000000
      2          1           0       -0.766640   -1.465763    0.000000
      3          1           0        0.832493   -1.471029    0.000000
      4          8           0        0.034807    0.920643    0.000000
      5          1           0        0.324560    1.859552    0.000000
      6          1           0       -0.947324    0.890238    0.000000
 ---------------------------------------------------------------------

 SCF Done:  E(RHF) =  -33.5575585548     A.U. after   11 cycles
 E2 =    -0.2344342895D+00 EUMP2 =    -0.33791992844326D+02
 CCSD(T)
 CCSD(T)= -0.33808996998D+02

 The electronic state is 1-A'.
 Alpha  occ. eigenvalues --   -1.35418  -1.29708  -0.70597  -0.67410  -0.59477
 Alpha  occ. eigenvalues --   -0.50168  -0.43457  -0.38919
 Alpha virt. eigenvalues --    0.20713   0.27611   0.31756   0.33470   0.81188
 Alpha virt. eigenvalues --    0.83639   0.89754   0.94347   0.99731   1.19541
 Alpha virt. eigenvalues --    1.20652   1.25037   1.26937   1.33695   2.51693

 Mulliken charges:
               1
     1  O   -0.736530
     2  H    0.339166
     3  H    0.381124
     4  O   -0.668435
     5  H    0.341950
     6  H    0.342726
 Sum of Mulliken charges =  -0.00000

 Dipole moment (field-independent basis, Debye):
    X=             -1.3017    Y=             -0.5841    Z=              0.0000  Tot=              1.4267
 Quadrupole moment (field-independent basis, Debye-Ang):
   XX=             -9.0615   YY=             -5.7559   ZZ=            -14.9999
   XY=             -0.8824   XZ=              0.0000   YZ=              0.0000

 MP4DQ=-33.8025115\MP4SDQ=-33.8049963\CCSD=-33.8058329\CCSD(T)=-33.8089
 Normal termination of Gaussian 16 at Sun Dec 10 06:28:40 2023.
