 Gaussian 16, Revision A.03,
 Gaussian 16:  ES64L-G16RevA.03 25-Dec-2016

 ------------------
 #p CCSD(T)/CEP-31G
 ------------------

 ------------
 H2O_H2O_3198
 ------------
 Symbolic Z-matrix:
 Charge =  0 Multiplicity = 1

                         Standard orientation:
 ---------------------------------------------------------------------
 Center     Atomic      Atomic             Coordinates (Angstroms)
 Number     Number       Type             X           Y           Z
 ---------------------------------------------------------------------
      1          8           0        0.057096   -2.434324    0.000000
      2          1           0       -0.743600   -3.003878    0.000000
      3          1           0        0.855539   -3.007032    0.000000
      4          8           0        0.057096    2.540855    0.000000
      5          1           0       -0.458871    3.377087    0.000000
      6          1           0       -0.566607    1.781577    0.000000
 ---------------------------------------------------------------------

 SCF Done:  E(RHF) =  -33.6523956675     A.U. after   11 cycles
 E2 =    -0.2283874448D+00 EUMP2 =    -0.33880783112275D+02
 CCSD(T)
 CCSD(T)= -0.33897765474D+02

 The electronic state is 1-A'.
 Alpha  occ. eigenvalues --   -1.35787  -1.34474  -0.71422  -0.70077  -0.55559
 Alpha  occ. eigenvalues --   -0.54215  -0.50367  -0.49054
 Alpha virt. eigenvalues --    0.19950   0.21429   0.30253   0.31619   0.80190
 Alpha virt. eigenvalues --    0.81470   0.83004   0.84626   0.86277   0.87768
 Alpha virt. eigenvalues --    1.17141   1.18467   1.21583   1.23028   2.57134

 Mulliken charges:
               1
     1  O   -0.743266
     2  H    0.369019
     3  H    0.374294
     4  O   -0.742785
     5  H    0.364740
     6  H    0.377998
 Sum of Mulliken charges =   0.00000

 Dipole moment (field-independent basis, Debye):
    X=             -2.6256    Y=             -2.5216    Z=              0.0000  Tot=              3.6404
 Quadrupole moment (field-independent basis, Debye-Ang):
   XX=            -10.1516   YY=              3.6932   ZZ=            -14.9903
   XY=             -6.7659   XZ=              0.0000   YZ=              0.0000

 MP4DQ=-33.8921243\MP4SDQ=-33.8941519\CCSD=-33.8952039\CCSD(T)=-33.8977
 Normal termination of Gaussian 16 at Sun Dec 10 06:37:26 2023.
