 Gaussian 16, Revision A.03,
 Gaussian 16:  ES64L-G16RevA.03 25-Dec-2016

 ------------------
 #p CCSD(T)/CEP-31G
 ------------------

 ------------
 H2O_H2O_2002
 ------------
 Symbolic Z-matrix:
 Charge =  0 Multiplicity = 1

                         Standard orientation:
 ---------------------------------------------------------------------
 Center     Atomic      Atomic             Coordinates (Angstroms)
 Number     Number       Type             X           Y           Z
 ---------------------------------------------------------------------
      1          8           0        0.007455   -1.866744    0.000000
      2          1           0       -0.792312   -2.437601    0.000000
      3          1           0        0.806830   -2.438150    0.000000
      4          8           0        0.007455    1.867716    0.000000
      5          1           0        0.725868    2.538080    0.000000
      6          1           0       -0.859665    2.329895    0.000000
 ---------------------------------------------------------------------

 SCF Done:  E(RHF) =  -33.6461239819     A.U. after   11 cycles
 E2 =    -0.2287811089D+00 EUMP2 =    -0.33874905090772D+02
 CCSD(T)
 CCSD(T)= -0.33892077838D+02

 The electronic state is 1-A'.
 Alpha  occ. eigenvalues --   -1.33969  -1.33937  -0.69590  -0.69554  -0.53718
 Alpha  occ. eigenvalues --   -0.52967  -0.48500  -0.48387
 Alpha virt. eigenvalues --    0.21084   0.21946   0.31624   0.31870   0.78122
 Alpha virt. eigenvalues --    0.81198   0.83001   0.86381   0.90569   0.95654
 Alpha virt. eigenvalues --    1.18705   1.18739   1.23064   1.23443   2.58217

 Mulliken charges:
               1
     1  O   -0.721883
     2  H    0.360126
     3  H    0.361765
     4  O   -0.721761
     5  H    0.359913
     6  H    0.361840
 Sum of Mulliken charges =   0.00000

 Dipole moment (field-independent basis, Debye):
    X=             -0.3397    Y=             -0.0238    Z=              0.0000  Tot=              0.3405
 Quadrupole moment (field-independent basis, Debye-Ang):
   XX=             -8.1444   YY=              7.4924   ZZ=            -14.9836
   XY=             -0.4297   XZ=              0.0000   YZ=              0.0000

 4DQ=-33.8863692\MP4SDQ=-33.8884251\CCSD=-33.889485\CCSD(T)=-33.8920778
 Normal termination of Gaussian 16 at Sun Dec 10 07:03:26 2023.
