 Gaussian 16, Revision A.03,
 Gaussian 16:  ES64L-G16RevA.03 25-Dec-2016

 ------------------
 #p CCSD(T)/CEP-31G
 ------------------

 ------------
 H2O_H2O_3437
 ------------
 Symbolic Z-matrix:
 Charge =  0 Multiplicity = 1

                         Standard orientation:
 ---------------------------------------------------------------------
 Center     Atomic      Atomic             Coordinates (Angstroms)
 Number     Number       Type             X           Y           Z
 ---------------------------------------------------------------------
      1          8           0        0.040407   -2.607026    0.000000
      2          1           0       -0.759920   -3.177098    0.000000
      3          1           0        0.839221   -3.179217    0.000000
      4          8           0        0.040407    2.640375    0.000000
      5          1           0        0.203222    3.609394    0.000000
      6          1           0       -0.929040    2.480129    0.000000
 ---------------------------------------------------------------------

 SCF Done:  E(RHF) =  -33.6504963165     A.U. after   11 cycles
 E2 =    -0.2284673411D+00 EUMP2 =    -0.33878963657608D+02
 CCSD(T)
 CCSD(T)= -0.33896001363D+02

 The electronic state is 1-A'.
 Alpha  occ. eigenvalues --   -1.35053  -1.34685  -0.70681  -0.70301  -0.54715
 Alpha  occ. eigenvalues --   -0.54346  -0.49605  -0.49238
 Alpha virt. eigenvalues --    0.20642   0.21026   0.30880   0.31239   0.80948
 Alpha virt. eigenvalues --    0.81309   0.83955   0.84584   0.87157   0.87628
 Alpha virt. eigenvalues --    1.17794   1.18158   1.22263   1.22629   2.57841

 Mulliken charges:
               1
     1  O   -0.736605
     2  H    0.366554
     3  H    0.370052
     4  O   -0.735937
     5  H    0.365257
     6  H    0.370679
 Sum of Mulliken charges =   0.00000

 Dipole moment (field-independent basis, Debye):
    X=             -1.8602    Y=             -0.7857    Z=              0.0000  Tot=              2.0193
 Quadrupole moment (field-independent basis, Debye-Ang):
   XX=             -9.1012   YY=             12.6321   ZZ=            -14.9870
   XY=             -4.0886   XZ=              0.0000   YZ=              0.0000

 \MP4DQ=-33.8903468\MP4SDQ=-33.8923783\CCSD=-33.8934353\CCSD(T)=-33.896
 Normal termination of Gaussian 16 at Sun Dec 10 06:41:44 2023.
