 Gaussian 16, Revision A.03,
 Gaussian 16:  ES64L-G16RevA.03 25-Dec-2016

 ------------------
 #p CCSD(T)/CEP-31G
 ------------------

 -----------
 H2O_H2O_132
 -----------
 Symbolic Z-matrix:
 Charge =  0 Multiplicity = 1

                         Standard orientation:
 ---------------------------------------------------------------------
 Center     Atomic      Atomic             Coordinates (Angstroms)
 Number     Number       Type             X           Y           Z
 ---------------------------------------------------------------------
      1          8           0        0.025275   -0.863747    0.000000
      2          1           0       -0.775722   -1.432878    0.000000
      3          1           0        0.823415   -1.436877    0.000000
      4          8           0        0.025275    0.875401    0.000000
      5          1           0        0.491947    1.740111    0.000000
      6          1           0       -0.944044    1.036416    0.000000
 ---------------------------------------------------------------------

 SCF Done:  E(RHF) =  -33.5268827343     A.U. after   11 cycles
 E2 =    -0.2361624497D+00 EUMP2 =    -0.33763045184082D+02
 CCSD(T)
 CCSD(T)= -0.33779764980D+02

 The electronic state is 1-A'.
 Alpha  occ. eigenvalues --   -1.35931  -1.29272  -0.70530  -0.67076  -0.61882
 Alpha  occ. eigenvalues --   -0.50684  -0.42886  -0.35379
 Alpha virt. eigenvalues --    0.20954   0.27947   0.31841   0.33595   0.81828
 Alpha virt. eigenvalues --    0.82078   0.89485   0.91190   1.01955   1.19677
 Alpha virt. eigenvalues --    1.22804   1.23337   1.27346   1.35755   2.51186

 Mulliken charges:
               1
     1  O   -0.714858
     2  H    0.334983
     3  H    0.372283
     4  O   -0.679094
     5  H    0.344810
     6  H    0.341876
 Sum of Mulliken charges =   0.00000

 Dipole moment (field-independent basis, Debye):
    X=             -0.9264    Y=             -0.3091    Z=              0.0000  Tot=              0.9766
 Quadrupole moment (field-independent basis, Debye-Ang):
   XX=             -8.7955   YY=             -6.6060   ZZ=            -15.0116
   XY=             -0.5856   XZ=              0.0000   YZ=              0.0000

 P4DQ=-33.7730964\MP4SDQ=-33.7757147\CCSD=-33.7764368\CCSD(T)=-33.77976
 Normal termination of Gaussian 16 at Sun Dec 10 06:27:12 2023.
