 Gaussian 16, Revision A.03,
 Gaussian 16:  ES64L-G16RevA.03 25-Dec-2016

 ------------------
 #p CCSD(T)/CEP-31G
 ------------------

 -----------
 H2O_H2O_963
 -----------
 Symbolic Z-matrix:
 Charge =  0 Multiplicity = 1

                         Standard orientation:
 ---------------------------------------------------------------------
 Center     Atomic      Atomic             Coordinates (Angstroms)
 Number     Number       Type             X           Y           Z
 ---------------------------------------------------------------------
      1          8           0        0.042995   -1.287839    0.000000
      2          1           0       -0.758188   -1.856708    0.000000
      3          1           0        0.840948   -1.861230    0.000000
      4          8           0        0.042995    1.326508    0.000000
      5          1           0        0.143553    2.303951    0.000000
      6          1           0       -0.914230    1.104638    0.000000
 ---------------------------------------------------------------------

 SCF Done:  E(RHF) =  -33.6403186831     A.U. after   11 cycles
 E2 =    -0.2298859070D+00 EUMP2 =    -0.33870204590133D+02
 CCSD(T)
 CCSD(T)= -0.33887567224D+02

 The electronic state is 1-A'.
 Alpha  occ. eigenvalues --   -1.34027  -1.32329  -0.69653  -0.68002  -0.54556
 Alpha  occ. eigenvalues --   -0.50239  -0.48620  -0.46672
 Alpha virt. eigenvalues --    0.20393   0.24584   0.31647   0.32899   0.78658
 Alpha virt. eigenvalues --    0.82897   0.84855   0.87849   0.95089   1.16079
 Alpha virt. eigenvalues --    1.18724   1.22452   1.23316   1.28536   2.58711

 Mulliken charges:
               1
     1  O   -0.727343
     2  H    0.350141
     3  H    0.372956
     4  O   -0.700762
     5  H    0.343197
     6  H    0.361810
 Sum of Mulliken charges =   0.00000

 Dipole moment (field-independent basis, Debye):
    X=             -1.8615    Y=             -0.9615    Z=              0.0000  Tot=              2.0951
 Quadrupole moment (field-independent basis, Debye-Ang):
   XX=             -9.3051   YY=             -0.3047   ZZ=            -14.9908
   XY=             -1.9321   XZ=              0.0000   YZ=              0.0000

 MP4DQ=-33.8816717\MP4SDQ=-33.8838094\CCSD=-33.8848785\CCSD(T)=-33.8875
 Normal termination of Gaussian 16 at Sun Dec 10 06:42:46 2023.
