 Gaussian 16, Revision A.03,
 Gaussian 16:  ES64L-G16RevA.03 25-Dec-2016

 ------------------
 #p CCSD(T)/CEP-31G
 ------------------

 ------------
 H2O_H2O_3552
 ------------
 Symbolic Z-matrix:
 Charge =  0 Multiplicity = 1

                         Standard orientation:
 ---------------------------------------------------------------------
 Center     Atomic      Atomic             Coordinates (Angstroms)
 Number     Number       Type             X           Y           Z
 ---------------------------------------------------------------------
      1          8           0        0.007455   -2.691089    0.000000
      2          1           0       -0.792252   -3.262031    0.000000
      3          1           0        0.806890   -3.262412    0.000000
      4          8           0        0.007455    2.692063    0.000000
      5          1           0        0.725798    3.362503    0.000000
      6          1           0       -0.859714    3.154151    0.000000
 ---------------------------------------------------------------------

 SCF Done:  E(RHF) =  -33.6498658021     A.U. after   11 cycles
 E2 =    -0.2284853793D+00 EUMP2 =    -0.33878351181472D+02
 CCSD(T)
 CCSD(T)= -0.33895406840D+02

 The electronic state is 1-A'.
 Alpha  occ. eigenvalues --   -1.34772  -1.34762  -0.70397  -0.70387  -0.54402
 Alpha  occ. eigenvalues --   -0.54383  -0.49315  -0.49305
 Alpha virt. eigenvalues --    0.20882   0.20916   0.31122   0.31133   0.81233
 Alpha virt. eigenvalues --    0.81254   0.84245   0.84684   0.87470   0.87512
 Alpha virt. eigenvalues --    1.18048   1.18058   1.22522   1.22534   2.58107

 Mulliken charges:
               1
     1  O   -0.734345
     2  H    0.366868
     3  H    0.367477
     4  O   -0.734321
     5  H    0.366755
     6  H    0.367565
 Sum of Mulliken charges =  -0.00000

 Dipole moment (field-independent basis, Debye):
    X=             -0.3434    Y=             -0.0229    Z=              0.0000  Tot=              0.3442
 Quadrupole moment (field-independent basis, Debye-Ang):
   XX=             -8.0859   YY=             16.4135   ZZ=            -14.9860
   XY=             -0.7000   XZ=              0.0000   YZ=              0.0000

 Q=-33.8897475\MP4SDQ=-33.8917804\CCSD=-33.8928391\CCSD(T)=-33.8954068\
 Normal termination of Gaussian 16 at Sun Dec 10 06:43:50 2023.
