 Gaussian 16, Revision A.03,
 Gaussian 16:  ES64L-G16RevA.03 25-Dec-2016

 ------------------
 #p CCSD(T)/CEP-31G
 ------------------

 ------------
 H2O_H2O_1400
 ------------
 Symbolic Z-matrix:
 Charge =  0 Multiplicity = 1

                         Standard orientation:
 ---------------------------------------------------------------------
 Center     Atomic      Atomic             Coordinates (Angstroms)
 Number     Number       Type             X           Y           Z
 ---------------------------------------------------------------------
      1          8           0        0.000000   -0.000000    1.548170
      2          1           0        0.000000    0.799571    2.119302
      3          1           0       -0.000000   -0.799571    2.119302
      4          8           0        0.000000   -0.000000   -1.548170
      5          1           0       -0.000000   -0.799571   -2.119302
      6          1           0        0.000000    0.799571   -2.119302
 ---------------------------------------------------------------------

 SCF Done:  E(RHF) =  -33.6414380876     A.U. after   10 cycles
 E2 =    -0.2291436036D+00 EUMP2 =    -0.33870581691218D+02
 CCSD(T)
 CCSD(T)= -0.33887917945D+02

 The electronic state is 1-AG.
 Alpha  occ. eigenvalues --   -1.33363  -1.33221  -0.68969  -0.68844  -0.53648
 Alpha  occ. eigenvalues --   -0.51234  -0.47937  -0.47513
 Alpha virt. eigenvalues --    0.21262   0.22812   0.32010   0.32415   0.77669
 Alpha virt. eigenvalues --    0.80179   0.83007   0.85546   0.96609   1.06142
 Alpha virt. eigenvalues --    1.19163   1.19469   1.23656   1.24182   2.59933

 Mulliken charges:
               1
     1  O   -0.709844
     2  H    0.354922
     3  H    0.354922
     4  O   -0.709844
     5  H    0.354922
     6  H    0.354922
 Sum of Mulliken charges =   0.00000

 Dipole moment (field-independent basis, Debye):
    X=             -0.0000    Y=              0.0000    Z=              0.0000  Tot=              0.0000
 Quadrupole moment (field-independent basis, Debye-Ang):
   XX=            -14.9839   YY=             -8.1706   ZZ=              3.8987
   XY=              0.0000   XZ=             -0.0000   YZ=             -0.0000

 -33.8821269\MP4SDQ=-33.8842111\CCSD=-33.8852864\CCSD(T)=-33.8879179\RM
 Normal termination of Gaussian 16 at Sun Dec 10 06:50:55 2023.
