 Gaussian 16, Revision A.03,
 Gaussian 16:  ES64L-G16RevA.03 25-Dec-2016

 ------------------
 #p CCSD(T)/CEP-31G
 ------------------

 ------------
 H2O_H2O_1621
 ------------
 Symbolic Z-matrix:
 Charge =  0 Multiplicity = 1

                         Standard orientation:
 ---------------------------------------------------------------------
 Center     Atomic      Atomic             Coordinates (Angstroms)
 Number     Number       Type             X           Y           Z
 ---------------------------------------------------------------------
      1          8           0        0.056150   -1.604779    0.000000
      2          1           0       -0.745086   -2.173573    0.000000
      3          1           0        0.854049   -2.178245    0.000000
      4          8           0        0.056150    1.696394    0.000000
      5          1           0       -0.345401    2.593202    0.000000
      6          1           0       -0.661960    1.025704    0.000000
 ---------------------------------------------------------------------

 SCF Done:  E(RHF) =  -33.6525762813     A.U. after   11 cycles
 E2 =    -0.2289188512D+00 EUMP2 =    -0.33881495132514D+02
 CCSD(T)
 CCSD(T)= -0.33898531361D+02

 The electronic state is 1-A'.
 Alpha  occ. eigenvalues --   -1.35838  -1.33071  -0.71483  -0.68638  -0.55616
 Alpha  occ. eigenvalues --   -0.52793  -0.50421  -0.47660
 Alpha virt. eigenvalues --    0.19259   0.23885   0.30138   0.33421   0.76379
 Alpha virt. eigenvalues --    0.79063   0.83997   0.86307   0.87779   1.04690
 Alpha virt. eigenvalues --    1.16990   1.20491   1.21728   1.27639   2.54553

 Mulliken charges:
               1
     1  O   -0.744918
     2  H    0.364545
     3  H    0.381718
     4  O   -0.739259
     5  H    0.351332
     6  H    0.386581
 Sum of Mulliken charges =  -0.00000

 Dipole moment (field-independent basis, Debye):
    X=             -2.5307    Y=             -2.2854    Z=              0.0000  Tot=              3.4099
 Quadrupole moment (field-independent basis, Debye-Ang):
   XX=            -10.0617   YY=             -0.1398   ZZ=            -14.9937
   XY=             -4.2675   XZ=              0.0000   YZ=              0.0000

 1\MP4DQ=-33.8928022\MP4SDQ=-33.8948825\CCSD=-33.8959175\CCSD(T)=-33.89
 Normal termination of Gaussian 16 at Sun Dec 10 06:55:01 2023.
