 Gaussian 16, Revision A.03,
 Gaussian 16:  ES64L-G16RevA.03 25-Dec-2016

 ------------------
 #p CCSD(T)/CEP-31G
 ------------------

 ------------
 H2O_H2O_1915
 ------------
 Symbolic Z-matrix:
 Charge =  0 Multiplicity = 1

                         Standard orientation:
 ---------------------------------------------------------------------
 Center     Atomic      Atomic             Coordinates (Angstroms)
 Number     Number       Type             X           Y           Z
 ---------------------------------------------------------------------
      1          8           0        0.047545   -1.786632    0.000000
      2          1           0       -0.753312   -2.355959    0.000000
      3          1           0        0.845825   -2.359567    0.000000
      4          8           0        0.047545    1.837183    0.000000
      5          1           0        0.019100    2.819373    0.000000
      6          1           0       -0.872334    1.491743    0.000000
 ---------------------------------------------------------------------

 SCF Done:  E(RHF) =  -33.6492841951     A.U. after   11 cycles
 E2 =    -0.2287773908D+00 EUMP2 =    -0.33878061585860D+02
 CCSD(T)
 CCSD(T)= -0.33895154759D+02

 The electronic state is 1-A'.
 Alpha  occ. eigenvalues --   -1.34906  -1.33683  -0.70538  -0.69252  -0.54538
 Alpha  occ. eigenvalues --   -0.53211  -0.49444  -0.48226
 Alpha virt. eigenvalues --    0.20155   0.22516   0.30907   0.32179   0.76517
 Alpha virt. eigenvalues --    0.80425   0.83000   0.85755   0.87978   1.00070
 Alpha virt. eigenvalues --    1.17872   1.19607   1.22291   1.23973   2.57281

 Mulliken charges:
               1
     1  O   -0.732655
     2  H    0.360967
     3  H    0.372129
     4  O   -0.728443
     5  H    0.355363
     6  H    0.372638
 Sum of Mulliken charges =   0.00000

 Dipole moment (field-independent basis, Debye):
    X=             -2.1573    Y=             -1.2372    Z=              0.0000  Tot=              2.4869
 Quadrupole moment (field-independent basis, Debye-Ang):
   XX=             -9.5124   YY=              3.9646   ZZ=            -14.9875
   XY=             -3.3445   XZ=              0.0000   YZ=              0.0000

 7\MP4DQ=-33.8894584\MP4SDQ=-33.8915165\CCSD=-33.8925643\CCSD(T)=-33.89
 Normal termination of Gaussian 16 at Sun Dec 10 07:00:42 2023.
