 Gaussian 16, Revision A.03,
 Gaussian 16:  ES64L-G16RevA.03 25-Dec-2016

 ------------------
 #p CCSD(T)/CEP-31G
 ------------------

 ------------
 H2O_H2O_1544
 ------------
 Symbolic Z-matrix:
 Charge =  0 Multiplicity = 1

                         Standard orientation:
 ---------------------------------------------------------------------
 Center     Atomic      Atomic             Coordinates (Angstroms)
 Number     Number       Type             X           Y           Z
 ---------------------------------------------------------------------
      1          8           0        0.054194   -1.572721    0.000000
      2          1           0       -0.747024   -2.141541    0.000000
      3          1           0        0.852112   -2.146161    0.000000
      4          8           0        0.054194    1.649918    0.000000
      5          1           0       -0.226896    2.591457    0.000000
      6          1           0       -0.745296    1.078672    0.000000
 ---------------------------------------------------------------------

 SCF Done:  E(RHF) =  -33.6509070829     A.U. after   11 cycles
 E2 =    -0.2290194228D+00 EUMP2 =    -0.33879926505686D+02
 CCSD(T)
 CCSD(T)= -0.33897017413D+02

 The electronic state is 1-A'.
 Alpha  occ. eigenvalues --   -1.35467  -1.33057  -0.71111  -0.68621  -0.55173
 Alpha  occ. eigenvalues --   -0.52690  -0.50032  -0.47627
 Alpha virt. eigenvalues --    0.19510   0.23804   0.30436   0.33076   0.75893
 Alpha virt. eigenvalues --    0.79148   0.84366   0.86172   0.88196   1.07590
 Alpha virt. eigenvalues --    1.17302   1.20767   1.22012   1.26833   2.55693

 Mulliken charges:
               1
     1  O   -0.739862
     2  H    0.361628
     3  H    0.379229
     4  O   -0.732020
     5  H    0.349884
     6  H    0.381141
 Sum of Mulliken charges =   0.00000

 Dipole moment (field-independent basis, Debye):
    X=             -2.4341    Y=             -1.9268    Z=              0.0000  Tot=              3.1044
 Quadrupole moment (field-independent basis, Debye-Ang):
   XX=             -9.9298   YY=              0.5599   ZZ=            -14.9917
   XY=             -3.7797   XZ=              0.0000   YZ=              0.0000

 \MP4DQ=-33.8912742\MP4SDQ=-33.8933609\CCSD=-33.8944001\CCSD(T)=-33.897
 Normal termination of Gaussian 16 at Sun Dec 10 06:53:36 2023.
