 Gaussian 16, Revision A.03,
 Gaussian 16:  ES64L-G16RevA.03 25-Dec-2016

 ------------------
 #p CCSD(T)/CEP-31G
 ------------------

 ------------
 H2O_H2O_2331
 ------------
 Symbolic Z-matrix:
 Charge =  0 Multiplicity = 1

                         Standard orientation:
 ---------------------------------------------------------------------
 Center     Atomic      Atomic             Coordinates (Angstroms)
 Number     Number       Type             X           Y           Z
 ---------------------------------------------------------------------
      1          8           0        0.021860   -2.035418    0.000000
      2          1           0       -0.778237   -2.605812    0.000000
      3          1           0        0.820904   -2.607287    0.000000
      4          8           0        0.021860    2.044073    0.000000
      5          1           0        0.542774    2.877232    0.000000
      6          1           0       -0.935205    2.266630    0.000000
 ---------------------------------------------------------------------

 SCF Done:  E(RHF) =  -33.6478360899     A.U. after   11 cycles
 E2 =    -0.2286578898D+00 EUMP2 =    -0.33876493979721D+02
 CCSD(T)
 CCSD(T)= -0.33893610728D+02

 The electronic state is 1-A'.
 Alpha  occ. eigenvalues --   -1.34332  -1.34171  -0.69955  -0.69785  -0.53947
 Alpha  occ. eigenvalues --   -0.53550  -0.48850  -0.48683
 Alpha virt. eigenvalues --    0.20982   0.21617   0.31448   0.31612   0.80365
 Alpha virt. eigenvalues --    0.81353   0.82206   0.86800   0.88582   0.91733
 Alpha virt. eigenvalues --    1.18406   1.18568   1.22893   1.23090   2.58286

 Mulliken charges:
               1
     1  O   -0.727500
     2  H    0.361871
     3  H    0.365657
     4  O   -0.726799
     5  H    0.361008
     6  H    0.365762
 Sum of Mulliken charges =   0.00000

 Dipole moment (field-independent basis, Debye):
    X=             -0.9994    Y=             -0.2085    Z=              0.0000  Tot=              1.0209
 Quadrupole moment (field-independent basis, Debye-Ang):
   XX=             -8.3884   YY=              8.8969   ZZ=            -14.9847
   XY=             -1.4727   XZ=              0.0000   YZ=              0.0000

 4DQ=-33.8879277\MP4SDQ=-33.8899716\CCSD=-33.8910301\CCSD(T)=-33.893610
 Normal termination of Gaussian 16 at Sun Dec 10 07:09:21 2023.
