 Gaussian 16, Revision A.03,
 Gaussian 16:  ES64L-G16RevA.03 25-Dec-2016

 ------------------
 #p CCSD(T)/CEP-31G
 ------------------

 -----------
 H2O_H2O_730
 -----------
 Symbolic Z-matrix:
 Charge =  0 Multiplicity = 1

                         Standard orientation:
 ---------------------------------------------------------------------
 Center     Atomic      Atomic             Coordinates (Angstroms)
 Number     Number       Type             X           Y           Z
 ---------------------------------------------------------------------
      1          8           0        0.018362   -1.185914    0.000000
      2          1           0       -0.781967   -1.755982    0.000000
      3          1           0        0.817173   -1.758108    0.000000
      4          8           0        0.018362    1.191927    0.000000
      5          1           0        0.592977    1.988999    0.000000
      6          1           0       -0.921981    1.476985    0.000000
 ---------------------------------------------------------------------

 SCF Done:  E(RHF) =  -33.6264686058     A.U. after   11 cycles
 E2 =    -0.2303768189D+00 EUMP2 =    -0.33856845424713D+02
 CCSD(T)
 CCSD(T)= -0.33874252336D+02

 The electronic state is 1-A'.
 Alpha  occ. eigenvalues --   -1.32830  -1.31765  -0.68317  -0.67492  -0.55398
 Alpha  occ. eigenvalues --   -0.47603  -0.46747  -0.45696
 Alpha virt. eigenvalues --    0.21377   0.24635   0.32672   0.33002   0.79338
 Alpha virt. eigenvalues --    0.79523   0.89352   0.92570   1.02710   1.12139
 Alpha virt. eigenvalues --    1.19760   1.22583   1.24216   1.26144   2.53761

 Mulliken charges:
               1
     1  O   -0.704712
     2  H    0.344629
     3  H    0.357930
     4  O   -0.695855
     5  H    0.349023
     6  H    0.348985
 Sum of Mulliken charges =  -0.00000

 Dipole moment (field-independent basis, Debye):
    X=             -0.7692    Y=             -0.1433    Z=              0.0000  Tot=              0.7825
 Quadrupole moment (field-independent basis, Debye-Ang):
   XX=             -8.4633   YY=             -0.8826   ZZ=            -15.0003
   XY=             -0.5579   XZ=              0.0000   YZ=              0.0000

 MP4DQ=-33.8682814\MP4SDQ=-33.8704126\CCSD=-33.8714971\CCSD(T)=-33.8742
 Normal termination of Gaussian 16 at Sun Dec 10 06:38:23 2023.
