 Gaussian 16, Revision A.03,
 Gaussian 16:  ES64L-G16RevA.03 25-Dec-2016

 ------------------
 #p CCSD(T)/CEP-31G
 ------------------

 ------------
 H2O_H2O_3164
 ------------
 Symbolic Z-matrix:
 Charge =  0 Multiplicity = 1

                         Standard orientation:
 ---------------------------------------------------------------------
 Center     Atomic      Atomic             Coordinates (Angstroms)
 Number     Number       Type             X           Y           Z
 ---------------------------------------------------------------------
      1          8           0        0.045346   -2.454690    0.000000
      2          1           0       -0.755123   -3.024562    0.000000
      3          1           0        0.844017   -3.027080    0.000000
      4          8           0        0.045346    2.499237    0.000000
      5          1           0        0.080531    3.481208    0.000000
      6          1           0       -0.894962    2.214058    0.000000
 ---------------------------------------------------------------------

 SCF Done:  E(RHF) =  -33.6505828082     A.U. after   11 cycles
 E2 =    -0.2284753515D+00 EUMP2 =    -0.33879058159717D+02
 CCSD(T)
 CCSD(T)= -0.33896093586D+02

 The electronic state is 1-A'.
 Alpha  occ. eigenvalues --   -1.35115  -1.34560  -0.70744  -0.70170  -0.54782
 Alpha  occ. eigenvalues --   -0.54223  -0.49668  -0.49116
 Alpha virt. eigenvalues --    0.20569   0.21174   0.30823   0.31368   0.80883
 Alpha virt. eigenvalues --    0.81429   0.83636   0.84851   0.87087   0.87888
 Alpha virt. eigenvalues --    1.17736   1.18286   1.22202   1.22761   2.57779

 Mulliken charges:
               1
     1  O   -0.736948
     2  H    0.366190
     3  H    0.370763
     4  O   -0.735941
     5  H    0.364243
     6  H    0.371693
 Sum of Mulliken charges =   0.00000

 Dipole moment (field-independent basis, Debye):
    X=             -2.0851    Y=             -1.0530    Z=              0.0000  Tot=              2.3359
 Quadrupole moment (field-independent basis, Debye-Ang):
   XX=             -9.3746   YY=             10.2215   ZZ=            -14.9873
   XY=             -4.4501   XZ=              0.0000   YZ=              0.0000

 \MP4DQ=-33.8904393\MP4SDQ=-33.8924709\CCSD=-33.8935272\CCSD(T)=-33.896
 Normal termination of Gaussian 16 at Sun Dec 10 06:36:50 2023.
