 Gaussian 16, Revision A.03,
 Gaussian 16:  ES64L-G16RevA.03 25-Dec-2016

 ------------------
 #p CCSD(T)/CEP-31G
 ------------------

 ------------
 H2O_H2O_1857
 ------------
 Symbolic Z-matrix:
 Charge =  0 Multiplicity = 1

                         Standard orientation:
 ---------------------------------------------------------------------
 Center     Atomic      Atomic             Coordinates (Angstroms)
 Number     Number       Type             X           Y           Z
 ---------------------------------------------------------------------
      1          8           0        0.025268   -1.781131    0.000000
      2          1           0       -0.774998   -2.351290    0.000000
      3          1           0        0.824143   -2.353236    0.000000
      4          8           0        0.025268    1.792849    0.000000
      5          1           0        0.490829    2.658159    0.000000
      6          1           0       -0.944258    1.952621    0.000000
 ---------------------------------------------------------------------

 SCF Done:  E(RHF) =  -33.6461318135     A.U. after   11 cycles
 E2 =    -0.2288502902D+00 EUMP2 =    -0.33874982103796D+02
 CCSD(T)
 CCSD(T)= -0.33892164383D+02

 The electronic state is 1-A'.
 Alpha  occ. eigenvalues --   -1.34061  -1.33773  -0.69683  -0.69377  -0.53794
 Alpha  occ. eigenvalues --   -0.52827  -0.48572  -0.48249
 Alpha virt. eigenvalues --    0.20916   0.22187   0.31643   0.31919   0.76798
 Alpha virt. eigenvalues --    0.80885   0.83387   0.85615   0.90513   0.99826
 Alpha virt. eigenvalues --    1.18612   1.18971   1.23149   1.23476   2.58214

 Mulliken charges:
               1
     1  O   -0.722207
     2  H    0.358041
     3  H    0.364262
     4  O   -0.720549
     5  H    0.356471
     6  H    0.363982
 Sum of Mulliken charges =   0.00000

 Dipole moment (field-independent basis, Debye):
    X=             -1.1471    Y=             -0.2882    Z=              0.0000  Tot=              1.1828
 Quadrupole moment (field-independent basis, Debye-Ang):
   XX=             -8.5141   YY=              6.0421   ZZ=            -14.9842
   XY=             -1.4515   XZ=              0.0000   YZ=              0.0000

 MP4DQ=-33.8864448\MP4SDQ=-33.888508\CCSD=-33.8895658\CCSD(T)=-33.89216
 Normal termination of Gaussian 16 at Sun Dec 10 06:59:23 2023.
