 Gaussian 16, Revision A.03,
 Gaussian 16:  ES64L-G16RevA.03 25-Dec-2016

 ------------------
 #p CCSD(T)/CEP-31G
 ------------------

 ------------
 H2O_H2O_4397
 ------------
 Symbolic Z-matrix:
 Charge =  0 Multiplicity = 1

                         Standard orientation:
 ---------------------------------------------------------------------
 Center     Atomic      Atomic             Coordinates (Angstroms)
 Number     Number       Type             X           Y           Z
 ---------------------------------------------------------------------
      1          8           0        0.056702   -3.076542    0.000000
      2          1           0       -0.743759   -3.646427    0.000000
      3          1           0        0.855381   -3.648920    0.000000
      4          8           0        0.056702    3.175682    0.000000
      5          1           0       -0.403826    4.043680    0.000000
      6          1           0       -0.615028    2.458546    0.000000
 ---------------------------------------------------------------------

 SCF Done:  E(RHF) =  -33.6519514495     A.U. after   11 cycles
 E2 =    -0.2283774420D+00 EUMP2 =    -0.33880328891502D+02
 CCSD(T)
 CCSD(T)= -0.33897324206D+02

 The electronic state is 1-A'.
 Alpha  occ. eigenvalues --   -1.35659  -1.34909  -0.71293  -0.70529  -0.55403
 Alpha  occ. eigenvalues --   -0.54642  -0.50233  -0.49483
 Alpha virt. eigenvalues --    0.20121   0.20893   0.30362   0.31128   0.80319
 Alpha virt. eigenvalues --    0.81057   0.83325   0.84088   0.86445   0.87252
 Alpha virt. eigenvalues --    1.17250   1.17996   1.21706   1.22468   2.57262

 Mulliken charges:
               1
     1  O   -0.741716
     2  H    0.369457
     3  H    0.372259
     4  O   -0.741510
     5  H    0.367483
     6  H    0.374027
 Sum of Mulliken charges =   0.00000

 Dipole moment (field-independent basis, Debye):
    X=             -2.6162    Y=             -2.3202    Z=              0.0000  Tot=              3.4969
 Quadrupole moment (field-independent basis, Debye-Ang):
   XX=            -10.1281   YY=              8.4424   ZZ=            -14.9891
   XY=             -8.2402   XZ=              0.0000   YZ=              0.0000

 MP4DQ=-33.8916813\MP4SDQ=-33.8937086\CCSD=-33.8947635\CCSD(T)=-33.8973
 Normal termination of Gaussian 16 at Sun Dec 10 06:59:09 2023.
