 Gaussian 16, Revision A.03,
 Gaussian 16:  ES64L-G16RevA.03 25-Dec-2016

 ------------------
 #p CCSD(T)/CEP-31G
 ------------------

 ------------
 H2O_H2O_2471
 ------------
 Symbolic Z-matrix:
 Charge =  0 Multiplicity = 1

                         Standard orientation:
 ---------------------------------------------------------------------
 Center     Atomic      Atomic             Coordinates (Angstroms)
 Number     Number       Type             X           Y           Z
 ---------------------------------------------------------------------
      1          8           0        0.056121   -2.056804    0.000000
      2          1           0       -0.744758   -2.626101    0.000000
      3          1           0        0.854380   -2.629768    0.000000
      4          8           0        0.056121    2.148488    0.000000
      5          1           0       -0.345993    3.045043    0.000000
      6          1           0       -0.661567    1.477348    0.000000
 ---------------------------------------------------------------------

 SCF Done:  E(RHF) =  -33.6522226610     A.U. after   11 cycles
 E2 =    -0.2284928503D+00 EUMP2 =    -0.33880715511235D+02
 CCSD(T)
 CCSD(T)= -0.33897706946D+02

 The electronic state is 1-A'.
 Alpha  occ. eigenvalues --   -1.35684  -1.34044  -0.71321  -0.69623  -0.55445
 Alpha  occ. eigenvalues --   -0.53766  -0.50261  -0.48623
 Alpha virt. eigenvalues --    0.19752   0.22090   0.30296   0.32067   0.80247
 Alpha virt. eigenvalues --    0.81240   0.81945   0.85536   0.86340   0.90426
 Alpha virt. eigenvalues --    1.17229   1.19092   1.21616   1.24037   2.57030

 Mulliken charges:
               1
     1  O   -0.742460
     2  H    0.367156
     3  H    0.375652
     4  O   -0.740975
     5  H    0.360850
     6  H    0.379777
 Sum of Mulliken charges =  -0.00000

 Dipole moment (field-independent basis, Debye):
    X=             -2.5687    Y=             -2.2045    Z=              0.0000  Tot=              3.3850
 Quadrupole moment (field-independent basis, Debye-Ang):
   XX=            -10.0727   YY=              2.8893   ZZ=            -14.9906
   XY=             -5.4053   XZ=              0.0000   YZ=              0.0000

 5\MP4DQ=-33.8920541\MP4SDQ=-33.8940903\CCSD=-33.8951373\CCSD(T)=-33.89
 Normal termination of Gaussian 16 at Sun Dec 10 07:11:52 2023.
