 Gaussian 16, Revision A.03,
 Gaussian 16:  ES64L-G16RevA.03 25-Dec-2016

 ------------------
 #p CCSD(T)/CEP-31G
 ------------------

 ------------
 H2O_H2O_1943
 ------------
 Symbolic Z-matrix:
 Charge =  0 Multiplicity = 1

                         Standard orientation:
 ---------------------------------------------------------------------
 Center     Atomic      Atomic             Coordinates (Angstroms)
 Number     Number       Type             X           Y           Z
 ---------------------------------------------------------------------
      1          8           0        0.052853   -1.789229    0.000000
      2          1           0       -0.748137   -2.358369    0.000000
      3          1           0        0.851000   -2.362350    0.000000
      4          8           0        0.052853    1.859480    0.000000
      5          1           0       -0.166436    2.817299    0.000000
      6          1           0       -0.782079    1.341412    0.000000
 ---------------------------------------------------------------------

 SCF Done:  E(RHF) =  -33.6508354832     A.U. after   11 cycles
 E2 =    -0.2287260743D+00 EUMP2 =    -0.33879561557521D+02
 CCSD(T)
 CCSD(T)= -0.33896611237D+02

 The electronic state is 1-A'.
 Alpha  occ. eigenvalues --   -1.35321  -1.33625  -0.70958  -0.69184  -0.55008
 Alpha  occ. eigenvalues --   -0.53266  -0.49880  -0.48190
 Alpha virt. eigenvalues --    0.19776   0.22736   0.30546   0.32397   0.77011
 Alpha virt. eigenvalues --    0.80144   0.82877   0.85927   0.87110   0.98891
 Alpha virt. eigenvalues --    1.17508   1.19852   1.21918   1.24713   2.56525

 Mulliken charges:
               1
     1  O   -0.737754
     2  H    0.363169
     3  H    0.375260
     4  O   -0.733864
     5  H    0.355656
     6  H    0.377533
 Sum of Mulliken charges =  -0.00000

 Dipole moment (field-independent basis, Debye):
    X=             -2.4002    Y=             -1.7197    Z=              0.0000  Tot=              2.9527
 Quadrupole moment (field-independent basis, Debye-Ang):
   XX=             -9.8431   YY=              2.6941   ZZ=            -14.9896
   XY=             -4.0725   XZ=              0.0000   YZ=              0.0000

 \MP4DQ=-33.8909236\MP4SDQ=-33.8929797\CCSD=-33.8940233\CCSD(T)=-33.896
 Normal termination of Gaussian 16 at Sun Dec 10 07:01:19 2023.
