 Gaussian 16, Revision A.03,
 Gaussian 16:  ES64L-G16RevA.03 25-Dec-2016

 ------------------
 #p CCSD(T)/CEP-31G
 ------------------

 ------------
 H2O_H2O_3912
 ------------
 Symbolic Z-matrix:
 Charge =  0 Multiplicity = 1

                         Standard orientation:
 ---------------------------------------------------------------------
 Center     Atomic      Atomic             Coordinates (Angstroms)
 Number     Number       Type             X           Y           Z
 ---------------------------------------------------------------------
      1          8           0        0.040405   -2.859644    0.000000
      2          1           0       -0.759855   -3.429809    0.000000
      3          1           0        0.839285   -3.431742    0.000000
      4          8           0        0.040405    2.893002    0.000000
      5          1           0        0.203108    3.862039    0.000000
      6          1           0       -0.929023    2.732643    0.000000
 ---------------------------------------------------------------------

 SCF Done:  E(RHF) =  -33.6508091190     A.U. after   11 cycles
 E2 =    -0.2284417984D+00 EUMP2 =    -0.33879250917449D+02
 CCSD(T)
 CCSD(T)= -0.33896279448D+02

 The electronic state is 1-A'.
 Alpha  occ. eigenvalues --   -1.35142  -1.34838  -0.70771  -0.70458  -0.54822
 Alpha  occ. eigenvalues --   -0.54517  -0.49699  -0.49395
 Alpha virt. eigenvalues --    0.20575   0.20885   0.30809   0.31108   0.80854
 Alpha virt. eigenvalues --    0.81154   0.83965   0.84282   0.87047   0.87407
 Alpha virt. eigenvalues --    1.17718   1.18019   1.22184   1.22487   2.57759

 Mulliken charges:
               1
     1  O   -0.737669
     2  H    0.367479
     3  H    0.370191
     4  O   -0.737235
     5  H    0.366468
     6  H    0.370766
 Sum of Mulliken charges =  -0.00000

 Dipole moment (field-independent basis, Debye):
    X=             -1.8629    Y=             -0.7827    Z=              0.0000  Tot=              2.0206
 Quadrupole moment (field-independent basis, Debye-Ang):
   XX=             -9.0988   YY=             14.9524   ZZ=            -14.9872
   XY=             -4.5516   XZ=              0.0000   YZ=              0.0000

 \MP4DQ=-33.8906276\MP4SDQ=-33.892658\CCSD=-33.8937149\CCSD(T)=-33.8962
 Normal termination of Gaussian 16 at Sun Dec 10 06:50:29 2023.
