 Gaussian 16, Revision A.03,
 Gaussian 16:  ES64L-G16RevA.03 25-Dec-2016

 ------------------
 #p CCSD(T)/CEP-31G
 ------------------

 ------------
 H2O_H2O_3984
 ------------
 Symbolic Z-matrix:
 Charge =  0 Multiplicity = 1

                         Standard orientation:
 ---------------------------------------------------------------------
 Center     Atomic      Atomic             Coordinates (Angstroms)
 Number     Number       Type             X           Y           Z
 ---------------------------------------------------------------------
      1          8           0        0.031739   -2.907226    0.000000
      2          1           0       -0.768366   -3.477609    0.000000
      3          1           0        0.830775   -3.479106    0.000000
      4          8           0        0.031739    2.926417    0.000000
      5          1           0        0.380115    3.845188    0.000000
      6          1           0       -0.950354    2.957998    0.000000
 ---------------------------------------------------------------------

 SCF Done:  E(RHF) =  -33.6506009440     A.U. after   11 cycles
 E2 =    -0.2284486935D+00 EUMP2 =    -0.33879049637528D+02
 CCSD(T)
 CCSD(T)= -0.33896084161D+02

 The electronic state is 1-A'.
 Alpha  occ. eigenvalues --   -1.35041  -1.34870  -0.70668  -0.70493  -0.54709
 Alpha  occ. eigenvalues --   -0.54539  -0.49594  -0.49424
 Alpha virt. eigenvalues --    0.20665   0.20838   0.30898   0.31063   0.80959
 Alpha virt. eigenvalues --    0.81127   0.84090   0.84277   0.87165   0.87369
 Alpha virt. eigenvalues --    1.17811   1.17979   1.22278   1.22447   2.57857

 Mulliken charges:
               1
     1  O   -0.736921
     2  H    0.367428
     3  H    0.369493
     4  O   -0.736643
     5  H    0.366792
     6  H    0.369851
 Sum of Mulliken charges =   0.00000

 Dipole moment (field-independent basis, Debye):
    X=             -1.4636    Y=             -0.4501    Z=              0.0000  Tot=              1.5313
 Quadrupole moment (field-independent basis, Debye-Ang):
   XX=             -8.6942   YY=             16.8952   ZZ=            -14.9869
   XY=             -3.4890   XZ=              0.0000   YZ=              0.0000

 \MP4DQ=-33.8904307\MP4SDQ=-33.8924616\CCSD=-33.893519\CCSD(T)=-33.8960
 Normal termination of Gaussian 16 at Sun Dec 10 06:51:48 2023.
