 Gaussian 16, Revision A.03,
 Gaussian 16:  ES64L-G16RevA.03 25-Dec-2016

 ------------------
 #p CCSD(T)/CEP-31G
 ------------------

 ------------
 H2O_H2O_1669
 ------------
 Symbolic Z-matrix:
 Charge =  0 Multiplicity = 1

                         Standard orientation:
 ---------------------------------------------------------------------
 Center     Atomic      Atomic             Coordinates (Angstroms)
 Number     Number       Type             X           Y           Z
 ---------------------------------------------------------------------
      1          8           0        0.054190   -1.639194    0.000000
      2          1           0       -0.746963   -2.208106    0.000000
      3          1           0        0.852173   -2.212543    0.000000
      4          8           0        0.054190    1.716403    0.000000
      5          1           0       -0.227008    2.657910    0.000000
      6          1           0       -0.745235    1.145066    0.000000
 ---------------------------------------------------------------------

 SCF Done:  E(RHF) =  -33.6511287519     A.U. after   11 cycles
 E2 =    -0.2289028936D+00 EUMP2 =    -0.33880031645503D+02
 CCSD(T)
 CCSD(T)= -0.33897101608D+02

 The electronic state is 1-A'.
 Alpha  occ. eigenvalues --   -1.35468  -1.33242  -0.71109  -0.68797  -0.55178
 Alpha  occ. eigenvalues --   -0.52891  -0.50033  -0.47814
 Alpha virt. eigenvalues --    0.19533   0.23471   0.30424   0.32884   0.75932
 Alpha virt. eigenvalues --    0.79472   0.83811   0.86093   0.87623   1.04607
 Alpha virt. eigenvalues --    1.17329   1.20537   1.21917   1.26249   2.55623

 Mulliken charges:
               1
     1  O   -0.739509
     2  H    0.362431
     3  H    0.378099
     4  O   -0.733618
     5  H    0.351924
     6  H    0.380673
 Sum of Mulliken charges =   0.00000

 Dipole moment (field-independent basis, Debye):
    X=             -2.4444    Y=             -1.9159    Z=              0.0000  Tot=              3.1058
 Quadrupole moment (field-independent basis, Debye-Ang):
   XX=             -9.9302   YY=              1.0728   ZZ=            -14.9912
   XY=             -3.9401   XZ=              0.0000   YZ=              0.0000

 \MP4DQ=-33.8913801\MP4SDQ=-33.893456\CCSD=-33.8944955\CCSD(T)=-33.8971
 Normal termination of Gaussian 16 at Sun Dec 10 06:55:55 2023.
