 Gaussian 16, Revision A.03,
 Gaussian 16:  ES64L-G16RevA.03 25-Dec-2016

 ------------------
 #p CCSD(T)/CEP-31G
 ------------------

 -----------
 H2O_H2O_443
 -----------
 Symbolic Z-matrix:
 Charge =  0 Multiplicity = 1

                         Standard orientation:
 ---------------------------------------------------------------------
 Center     Atomic      Atomic             Coordinates (Angstroms)
 Number     Number       Type             X           Y           Z
 ---------------------------------------------------------------------
      1          8           0        0.052921   -0.991581    0.000000
      2          1           0       -0.749169   -1.559170    0.000000
      3          1           0        0.849957   -1.566246    0.000000
      4          8           0        0.052921    1.061628    0.000000
      5          1           0       -0.164515    2.019869    0.000000
      6          1           0       -0.783012    0.545176    0.000000
 ---------------------------------------------------------------------

 SCF Done:  E(RHF) =  -33.6090346949     A.U. after   11 cycles
 E2 =    -0.2321079120D+00 EUMP2 =    -0.33841142606913D+02
 CCSD(T)
 CCSD(T)= -0.33858184245D+02

 The electronic state is 1-A'.
 Alpha  occ. eigenvalues --   -1.36162  -1.30468  -0.72057  -0.68732  -0.54100
 Alpha  occ. eigenvalues --   -0.50653  -0.47619  -0.44757
 Alpha virt. eigenvalues --    0.19634   0.27619   0.30416   0.34459   0.78576
 Alpha virt. eigenvalues --    0.84724   0.89879   0.95918   0.99423   1.14825
 Alpha virt. eigenvalues --    1.19195   1.23434   1.26656   1.32224   2.62641

 Mulliken charges:
               1
     1  O   -0.777624
     2  H    0.355740
     3  H    0.404059
     4  O   -0.670977
     5  H    0.322272
     6  H    0.366530
 Sum of Mulliken charges =  -0.00000

 Dipole moment (field-independent basis, Debye):
    X=             -2.1036    Y=             -1.7925    Z=              0.0000  Tot=              2.7637
 Quadrupole moment (field-independent basis, Debye-Ang):
   XX=             -9.8651   YY=             -4.7727   ZZ=            -14.9926
   XY=             -2.1556   XZ=              0.0000   YZ=              0.0000

 \MP4DQ=-33.8519564\MP4SDQ=-33.854276\CCSD=-33.855207\CCSD(T)=-33.85818
 Normal termination of Gaussian 16 at Sun Dec 10 06:33:03 2023.
