 Gaussian 16, Revision A.03,
 Gaussian 16:  ES64L-G16RevA.03 25-Dec-2016

 ------------------
 #p CCSD(T)/CEP-31G
 ------------------

 ------------
 H2O_H2O_3005
 ------------
 Symbolic Z-matrix:
 Charge =  0 Multiplicity = 1

                         Standard orientation:
 ---------------------------------------------------------------------
 Center     Atomic      Atomic             Coordinates (Angstroms)
 Number     Number       Type             X           Y           Z
 ---------------------------------------------------------------------
      1          8           0        0.018360   -2.395829    0.000000
      2          1           0       -0.781587   -2.966434    0.000000
      3          1           0        0.817555   -2.967487    0.000000
      4          8           0        0.018360    2.401866    0.000000
      5          1           0        0.592440    3.199324    0.000000
      6          1           0       -0.922174    2.686294    0.000000
 ---------------------------------------------------------------------

 SCF Done:  E(RHF) =  -33.6492389788     A.U. after   11 cycles
 E2 =    -0.2285312741D+00 EUMP2 =    -0.33877770252916D+02
 CCSD(T)
 CCSD(T)= -0.33894844260D+02

 The electronic state is 1-A'.
 Alpha  occ. eigenvalues --   -1.34628  -1.34548  -0.70252  -0.70169  -0.54231
 Alpha  occ. eigenvalues --   -0.54120  -0.49162  -0.49082
 Alpha virt. eigenvalues --    0.20958   0.21130   0.31231   0.31310   0.81358
 Alpha virt. eigenvalues --    0.81500   0.83638   0.85736   0.87619   0.87913
 Alpha virt. eigenvalues --    1.18167   1.18245   1.22646   1.22729   2.58246

 Mulliken charges:
               1
     1  O   -0.732222
     2  H    0.365085
     3  H    0.367138
     4  O   -0.731976
     5  H    0.364645
     6  H    0.367330
 Sum of Mulliken charges =  -0.00000

 Dipole moment (field-independent basis, Debye):
    X=             -0.8437    Y=             -0.1431    Z=              0.0000  Tot=              0.8558
 Quadrupole moment (field-independent basis, Debye-Ang):
   XX=             -8.2775   YY=             12.8674   ZZ=            -14.9855
   XY=             -1.5126   XZ=              0.0000   YZ=              0.0000

 MP4DQ=-33.8891793\MP4SDQ=-33.8912144\CCSD=-33.8922735\CCSD(T)=-33.8948
 Normal termination of Gaussian 16 at Sun Dec 10 06:34:03 2023.
