 Gaussian 16, Revision A.03,
 Gaussian 16:  ES64L-G16RevA.03 25-Dec-2016

 ------------------
 #p CCSD(T)/CEP-31G
 ------------------

 ------------
 H2O_H2O_1184
 ------------
 Symbolic Z-matrix:
 Charge =  0 Multiplicity = 1

                         Standard orientation:
 ---------------------------------------------------------------------
 Center     Atomic      Atomic             Coordinates (Angstroms)
 Number     Number       Type             X           Y           Z
 ---------------------------------------------------------------------
      1          8           0        0.031749   -1.418116    0.000000
      2          1           0       -0.768913   -1.987717    0.000000
      3          1           0        0.830226   -1.990777    0.000000
      4          8           0        0.031749    1.437245    0.000000
      5          1           0        0.381022    2.355676    0.000000
      6          1           0       -0.950314    1.469785    0.000000
 ---------------------------------------------------------------------

 SCF Done:  E(RHF) =  -33.6411424798     A.U. after   11 cycles
 E2 =    -0.2294382832D+00 EUMP2 =    -0.33870580763001D+02
 CCSD(T)
 CCSD(T)= -0.33887945290D+02

 The electronic state is 1-A'.
 Alpha  occ. eigenvalues --   -1.33590  -1.32853  -0.69204  -0.68451  -0.54051
 Alpha  occ. eigenvalues --   -0.50772  -0.48151  -0.47183
 Alpha virt. eigenvalues --    0.20858   0.23537   0.31984   0.32535   0.79391
 Alpha virt. eigenvalues --    0.79497   0.82504   0.86660   0.95703   1.13693
 Alpha virt. eigenvalues --    1.18937   1.21725   1.23712   1.24474   2.58904

 Mulliken charges:
               1
     1  O   -0.715214
     2  H    0.350121
     3  H    0.364033
     4  O   -0.705953
     5  H    0.347824
     6  H    0.359189
 Sum of Mulliken charges =   0.00000

 Dipole moment (field-independent basis, Debye):
    X=             -1.4021    Y=             -0.4759    Z=              0.0000  Tot=              1.4806
 Quadrupole moment (field-independent basis, Debye-Ang):
   XX=             -8.7948   YY=              1.7726   ZZ=            -14.9868
   XY=             -1.4108   XZ=              0.0000   YZ=              0.0000

 MP4DQ=-33.8821117\MP4SDQ=-33.8842176\CCSD=-33.885294\CCSD(T)=-33.88794
 Normal termination of Gaussian 16 at Sun Dec 10 06:46:53 2023.
