 Gaussian 16, Revision A.03,
 Gaussian 16:  ES64L-G16RevA.03 25-Dec-2016

 ------------------
 #p CCSD(T)/CEP-31G
 ------------------

 ------------
 H2O_H2O_1793
 ------------
 Symbolic Z-matrix:
 Charge =  0 Multiplicity = 1

                         Standard orientation:
 ---------------------------------------------------------------------
 Center     Atomic      Atomic             Coordinates (Angstroms)
 Number     Number       Type             X           Y           Z
 ---------------------------------------------------------------------
      1          8           0        0.052857   -1.709460    0.000000
      2          1           0       -0.748198   -2.278508    0.000000
      3          1           0        0.850939   -2.282672    0.000000
      4          8           0        0.052857    1.779699    0.000000
      5          1           0       -0.166323    2.737543    0.000000
      6          1           0       -0.782134    1.261726    0.000000
 ---------------------------------------------------------------------

 SCF Done:  E(RHF) =  -33.6506537256     A.U. after   11 cycles
 E2 =    -0.2288198946D+00 EUMP2 =    -0.33879473620191D+02
 CCSD(T)
 CCSD(T)= -0.33896541798D+02

 The electronic state is 1-A'.
 Alpha  occ. eigenvalues --   -1.35309  -1.33448  -0.70947  -0.69003  -0.54994
 Alpha  occ. eigenvalues --   -0.53071  -0.49866  -0.48012
 Alpha virt. eigenvalues --    0.19707   0.23050   0.30551   0.32571   0.76128
 Alpha virt. eigenvalues --    0.79878   0.83350   0.85932   0.87444   1.02130
 Alpha virt. eigenvalues --    1.17495   1.20228   1.21967   1.25228   2.56209

 Mulliken charges:
               1
     1  O   -0.737382
     2  H    0.362261
     3  H    0.375941
     4  O   -0.732478
     5  H    0.353704
     6  H    0.377955
 Sum of Mulliken charges =  -0.00000

 Dipole moment (field-independent basis, Debye):
    X=             -2.3921    Y=             -1.7312    Z=              0.0000  Tot=              2.9528
 Quadrupole moment (field-independent basis, Debye-Ang):
   XX=             -9.8431   YY=              2.0714   ZZ=            -14.9899
   XY=             -3.8850   XZ=              0.0000   YZ=              0.0000

 4\MP4DQ=-33.8908372\MP4SDQ=-33.8929032\CCSD=-33.8939453\CCSD(T)=-33.89
 Normal termination of Gaussian 16 at Sun Dec 10 06:58:12 2023.
