 Gaussian 16, Revision A.03,
 Gaussian 16:  ES64L-G16RevA.03 25-Dec-2016

 ------------------
 #p CCSD(T)/CEP-31G
 ------------------

 ------------
 H2O_H2O_1413
 ------------
 Symbolic Z-matrix:
 Charge =  0 Multiplicity = 1

                         Standard orientation:
 ---------------------------------------------------------------------
 Center     Atomic      Atomic             Coordinates (Angstroms)
 Number     Number       Type             X           Y           Z
 ---------------------------------------------------------------------
      1          8           0        0.042986   -1.527146    0.000000
      2          1           0       -0.757947   -2.096365    0.000000
      3          1           0        0.841190   -2.100188    0.000000
      4          8           0        0.042986    1.565853    0.000000
      5          1           0        0.143117    2.543339    0.000000
      6          1           0       -0.914142    1.343564    0.000000
 ---------------------------------------------------------------------

 SCF Done:  E(RHF) =  -33.6459730845     A.U. after   11 cycles
 E2 =    -0.2291908702D+00 EUMP2 =    -0.33875163954633D+02
 CCSD(T)
 CCSD(T)= -0.33892403992D+02

 The electronic state is 1-A'.
 Alpha  occ. eigenvalues --   -1.34369  -1.33116  -0.69999  -0.68685  -0.54197
 Alpha  occ. eigenvalues --   -0.52119  -0.48894  -0.47598
 Alpha virt. eigenvalues --    0.20322   0.23351   0.31352   0.32489   0.76177
 Alpha virt. eigenvalues --    0.79541   0.84406   0.85191   0.91212   1.11642
 Alpha virt. eigenvalues --    1.18266   1.21298   1.22885   1.24626   2.59340

 Mulliken charges:
               1
     1  O   -0.725175
     2  H    0.354924
     3  H    0.370160
     4  O   -0.716009
     5  H    0.348711
     6  H    0.367389
 Sum of Mulliken charges =   0.00000

 Dipole moment (field-independent basis, Debye):
    X=             -1.9201    Y=             -0.9652    Z=              0.0000  Tot=              2.1490
 Quadrupole moment (field-independent basis, Debye-Ang):
   XX=             -9.2765   YY=              2.1865   ZZ=            -14.9869
   XY=             -2.3727   XZ=              0.0000   YZ=              0.0000

 4DQ=-33.8866256\MP4SDQ=-33.8887216\CCSD=-33.8897781\CCSD(T)=-33.892404
 Normal termination of Gaussian 16 at Sun Dec 10 06:51:10 2023.
