 Gaussian 16, Revision A.03,
 Gaussian 16:  ES64L-G16RevA.03 25-Dec-2016

 ------------------
 #p CCSD(T)/CEP-31G
 ------------------

 ------------
 H2O_H2O_3051
 ------------
 Symbolic Z-matrix:
 Charge =  0 Multiplicity = 1

                         Standard orientation:
 ---------------------------------------------------------------------
 Center     Atomic      Atomic             Coordinates (Angstroms)
 Number     Number       Type             X           Y           Z
 ---------------------------------------------------------------------
      1          8           0        0.003735   -2.425568    0.000000
      2          1           0       -0.795911   -2.996594    0.000000
      3          1           0        0.803231   -2.996806    0.000000
      4          8           0        0.003735    2.425811    0.000000
      5          1           0        0.764324    3.047914    0.000000
      6          1           0       -0.831409    2.943536    0.000000
 ---------------------------------------------------------------------

 SCF Done:  E(RHF) =  -33.6491443504     A.U. after   10 cycles
 E2 =    -0.2285303234D+00 EUMP2 =    -0.33877674673795D+02
 CCSD(T)
 CCSD(T)= -0.33894751271D+02

 The electronic state is 1-A'.
 Alpha  occ. eigenvalues --   -1.34581  -1.34577  -0.70204  -0.70201  -0.54196
 Alpha  occ. eigenvalues --   -0.54125  -0.49115  -0.49107
 Alpha virt. eigenvalues --    0.20986   0.21111   0.31262   0.31289   0.81390
 Alpha virt. eigenvalues --    0.81491   0.83771   0.85735   0.87607   0.87841
 Alpha virt. eigenvalues --    1.18210   1.18213   1.22676   1.22711   2.58290

 Mulliken charges:
               1
     1  O   -0.731874
     2  H    0.365734
     3  H    0.366140
     4  O   -0.731865
     5  H    0.365673
     6  H    0.366192
 Sum of Mulliken charges =  -0.00000

 Dipole moment (field-independent basis, Debye):
    X=             -0.1717    Y=             -0.0058    Z=              0.0000  Tot=              0.1718
 Quadrupole moment (field-independent basis, Debye-Ang):
   XX=             -8.0703   YY=             13.6177   ZZ=            -14.9853
   XY=             -0.3054   XZ=              0.0000   YZ=              0.0000

 MP4DQ=-33.8890857\MP4SDQ=-33.8911209\CCSD=-33.8921804\CCSD(T)=-33.8947
 Normal termination of Gaussian 16 at Sun Dec 10 06:34:51 2023.
