 Gaussian 16, Revision A.03,
 Gaussian 16:  ES64L-G16RevA.03 25-Dec-2016

 ------------------
 #p CCSD(T)/CEP-31G
 ------------------

 -----------
 H2O_H2O_288
 -----------
 Symbolic Z-matrix:
 Charge =  0 Multiplicity = 1

                         Standard orientation:
 ---------------------------------------------------------------------
 Center     Atomic      Atomic             Coordinates (Angstroms)
 Number     Number       Type             X           Y           Z
 ---------------------------------------------------------------------
      1          8           0        0.043016   -0.928898    0.000000
      2          1           0       -0.758776   -1.496908    0.000000
      3          1           0        0.840354   -1.503143    0.000000
      4          8           0        0.043016    0.967475    0.000000
      5          1           0        0.144620    1.944809    0.000000
      6          1           0       -0.914447    0.746629    0.000000
 ---------------------------------------------------------------------

 SCF Done:  E(RHF) =  -33.5801556632     A.U. after   11 cycles
 E2 =    -0.2333421003D+00 EUMP2 =    -0.33813497763519D+02
 CCSD(T)
 CCSD(T)= -0.33830661451D+02

 The electronic state is 1-A'.
 Alpha  occ. eigenvalues --   -1.35379  -1.30112  -0.70955  -0.67905  -0.57278
 Alpha  occ. eigenvalues --   -0.50057  -0.44047  -0.42267
 Alpha virt. eigenvalues --    0.20367   0.27504   0.31460   0.33468   0.80355
 Alpha virt. eigenvalues --    0.84666   0.89876   0.96644   0.98377   1.18215
 Alpha virt. eigenvalues --    1.19594   1.25348   1.26602   1.32840   2.53887

 Mulliken charges:
               1
     1  O   -0.756282
     2  H    0.344644
     3  H    0.388717
     4  O   -0.659914
     5  H    0.334563
     6  H    0.348271
 Sum of Mulliken charges =   0.00000

 Dipole moment (field-independent basis, Debye):
    X=             -1.6464    Y=             -0.9493    Z=              0.0000  Tot=              1.9005
 Quadrupole moment (field-independent basis, Debye-Ang):
   XX=             -9.3801   YY=             -5.1885   ZZ=            -14.9918
   XY=             -1.2781   XZ=              0.0000   YZ=              0.0000

 MP4DQ=-33.8242945\MP4SDQ=-33.8266983\CCSD=-33.8275983\CCSD(T)=-33.8306
 Normal termination of Gaussian 16 at Sun Dec 10 06:30:09 2023.
