 Gaussian 16, Revision A.03,
 Gaussian 16:  ES64L-G16RevA.03 25-Dec-2016

 ------------------
 #p CCSD(T)/CEP-31G
 ------------------

 -----------
 H2O_H2O_619
 -----------
 Symbolic Z-matrix:
 Charge =  0 Multiplicity = 1

                         Standard orientation:
 ---------------------------------------------------------------------
 Center     Atomic      Atomic             Coordinates (Angstroms)
 Number     Number       Type             X           Y           Z
 ---------------------------------------------------------------------
      1          8           0        0.054243   -1.080845    0.000000
      2          1           0       -0.747696   -1.648646    0.000000
      3          1           0        0.851432   -1.655297    0.000000
      4          8           0        0.054243    1.157904    0.000000
      5          1           0       -0.225651    2.099799    0.000000
      6          1           0       -0.745972    0.587673    0.000000
 ---------------------------------------------------------------------

 SCF Done:  E(RHF) =  -33.6301792615     A.U. after   11 cycles
 E2 =    -0.2311177966D+00 EUMP2 =    -0.33861297058061D+02
 CCSD(T)
 CCSD(T)= -0.33878350520D+02

 The electronic state is 1-A'.
 Alpha  occ. eigenvalues --   -1.35926  -1.30969  -0.71686  -0.68350  -0.54141
 Alpha  occ. eigenvalues --   -0.50489  -0.49772  -0.45370
 Alpha virt. eigenvalues --    0.19484   0.27007   0.30294   0.34741   0.77767
 Alpha virt. eigenvalues --    0.84470   0.89447   0.94564   0.97554   1.14060
 Alpha virt. eigenvalues --    1.18935   1.21418   1.25485   1.31366   2.66566

 Mulliken charges:
               1
     1  O   -0.770160
     2  H    0.358350
     3  H    0.401640
     4  O   -0.691013
     5  H    0.327145
     6  H    0.374038
 Sum of Mulliken charges =  -0.00000

 Dipole moment (field-independent basis, Debye):
    X=             -2.2348    Y=             -1.9871    Z=              0.0000  Tot=              2.9905
 Quadrupole moment (field-independent basis, Debye-Ang):
   XX=             -9.9353   YY=             -3.8828   ZZ=            -14.9989
   XY=             -2.5604   XZ=              0.0000   YZ=              0.0000

 MP4DQ=-33.8722614\MP4SDQ=-33.8745058\CCSD=-33.8754813\CCSD(T)=-33.8783
 Normal termination of Gaussian 16 at Sun Dec 10 06:36:19 2023.
