 Gaussian 16, Revision A.03,
 Gaussian 16:  ES64L-G16RevA.03 25-Dec-2016

 ------------------
 #p CCSD(T)/CEP-31G
 ------------------

 ------------
 H2O_H2O_3799
 ------------
 Symbolic Z-matrix:
 Charge =  0 Multiplicity = 1

                         Standard orientation:
 ---------------------------------------------------------------------
 Center     Atomic      Atomic             Coordinates (Angstroms)
 Number     Number       Type             X           Y           Z
 ---------------------------------------------------------------------
      1          8           0        0.057213   -2.749356    0.000000
      2          1           0       -0.743357   -3.319086    0.000000
      3          1           0        0.855782   -3.321888    0.000000
      4          8           0        0.057213    2.863382    0.000000
      5          1           0       -0.512517    3.663953    0.000000
      6          1           0       -0.515319    2.064813    0.000000
 ---------------------------------------------------------------------

 SCF Done:  E(RHF) =  -33.6523115779     A.U. after   11 cycles
 E2 =    -0.2283665341D+00 EUMP2 =    -0.33880678112041D+02
 CCSD(T)
 CCSD(T)= -0.33897662871D+02

 The electronic state is 1-A'.
 Alpha  occ. eigenvalues --   -1.35796  -1.34717  -0.71431  -0.70332  -0.55562
 Alpha  occ. eigenvalues --   -0.54461  -0.50375  -0.49296
 Alpha virt. eigenvalues --    0.19997   0.21125   0.30246   0.31363   0.80178
 Alpha virt. eigenvalues --    0.81235   0.83133   0.84262   0.86282   0.87442
 Alpha virt. eigenvalues --    1.17128   1.18203   1.21581   1.22692   2.57126

 Mulliken charges:
               1
     1  O   -0.742995
     2  H    0.369645
     3  H    0.373354
     4  O   -0.742821
     5  H    0.366541
     6  H    0.376276
 Sum of Mulliken charges =  -0.00000

 Dipole moment (field-independent basis, Debye):
    X=             -2.6360    Y=             -2.6801    Z=              0.0000  Tot=              3.7591
 Quadrupole moment (field-independent basis, Debye-Ang):
   XX=            -10.1645   YY=              4.5325   ZZ=            -14.9899
   XY=             -7.7508   XZ=              0.0000   YZ=              0.0000

 MP4DQ=-33.8920225\MP4SDQ=-33.894049\CCSD=-33.8951027\CCSD(T)=-33.89766
 Normal termination of Gaussian 16 at Sun Dec 10 06:48:23 2023.
