 Gaussian 16, Revision A.03,
 Gaussian 16:  ES64L-G16RevA.03 25-Dec-2016

 ------------------
 #p CCSD(T)/CEP-31G
 ------------------

 ----------
 H2O_H2O_34
 ----------
 Symbolic Z-matrix:
 Charge =  0 Multiplicity = 1

                         Standard orientation:
 ---------------------------------------------------------------------
 Center     Atomic      Atomic             Coordinates (Angstroms)
 Number     Number       Type             X           Y           Z
 ---------------------------------------------------------------------
      1          8           0        0.031762   -0.806552    0.000000
      2          1           0       -0.769716   -1.375004    0.000000
      3          1           0        0.829417   -1.380357    0.000000
      4          8           0        0.031762    0.825590    0.000000
      5          1           0        0.382352    1.743518    0.000000
      6          1           0       -0.950252    0.859538    0.000000
 ---------------------------------------------------------------------

 SCF Done:  E(RHF) =  -33.4794640405     A.U. after   12 cycles
 E2 =    -0.2387246633D+00 EUMP2 =    -0.33718188703744D+02
 CCSD(T)
 CCSD(T)= -0.33734649138D+02

 The electronic state is 1-A'.
 Alpha  occ. eigenvalues --   -1.38411  -1.28794  -0.72785  -0.68951  -0.61709
 Alpha  occ. eigenvalues --   -0.52672  -0.42587  -0.32669
 Alpha virt. eigenvalues --    0.20490   0.28701   0.31402   0.33566   0.81818
 Alpha virt. eigenvalues --    0.83932   0.88786   0.90852   0.98792   1.19406
 Alpha virt. eigenvalues --    1.22567   1.23612   1.26757   1.39916   2.55277

 Mulliken charges:
               1
     1  O   -0.716319
     2  H    0.328191
     3  H    0.379846
     4  O   -0.663510
     5  H    0.328335
     6  H    0.343458
 Sum of Mulliken charges =   0.00000

 Dipole moment (field-independent basis, Debye):
    X=             -1.1395    Y=             -0.5413    Z=              0.0000  Tot=              1.2615
 Quadrupole moment (field-independent basis, Debye-Ang):
   XX=             -9.0302   YY=             -8.0314   ZZ=            -14.9735
   XY=             -0.7962   XZ=              0.0000   YZ=              0.0000

 DQ=-33.7276962\MP4SDQ=-33.7305376\CCSD=-33.7310464\CCSD(T)=-33.7346491
 Normal termination of Gaussian 16 at Sun Dec 10 06:25:22 2023.
