 Gaussian 16, Revision A.03,
 Gaussian 16:  ES64L-G16RevA.03 25-Dec-2016

 ------------------
 #p CCSD(T)/CEP-31G
 ------------------

 ----------
 H2O_H2O_56
 ----------
 Symbolic Z-matrix:
 Charge =  0 Multiplicity = 1

                         Standard orientation:
 ---------------------------------------------------------------------
 Center     Atomic      Atomic             Coordinates (Angstroms)
 Number     Number       Type             X           Y           Z
 ---------------------------------------------------------------------
      1          8           0        0.021866   -0.825521    0.000000
      2          1           0       -0.778998   -1.394838    0.000000
      3          1           0        0.820140   -1.398464    0.000000
      4          8           0        0.021866    0.834117    0.000000
      5          1           0        0.543900    1.666575    0.000000
      6          1           0       -0.934899    1.057960    0.000000
 ---------------------------------------------------------------------

 SCF Done:  E(RHF) =  -33.4896260543     A.U. after   11 cycles
 E2 =    -0.2384389380D+00 EUMP2 =    -0.33728064992356D+02
 CCSD(T)
 CCSD(T)= -0.33744472748D+02

 The electronic state is 1-A'.
 Alpha  occ. eigenvalues --   -1.37262  -1.28919  -0.71319  -0.67768  -0.63256
 Alpha  occ. eigenvalues --   -0.51840  -0.42532  -0.32324
 Alpha virt. eigenvalues --    0.20878   0.28526   0.31595   0.33646   0.81918
 Alpha virt. eigenvalues --    0.82073   0.88999   0.89408   1.01615   1.19497
 Alpha virt. eigenvalues --    1.22066   1.23783   1.27364   1.38891   2.52722

 Mulliken charges:
               1
     1  O   -0.702942
     2  H    0.330608
     3  H    0.368316
     4  O   -0.678261
     5  H    0.339801
     6  H    0.342478
 Sum of Mulliken charges =  -0.00000

 Dipole moment (field-independent basis, Debye):
    X=             -0.7926    Y=             -0.2474    Z=              0.0000  Tot=              0.8303
 Quadrupole moment (field-independent basis, Debye-Ang):
   XX=             -8.7704   YY=             -7.6619   ZZ=            -15.0074
   XY=             -0.5315   XZ=              0.0000   YZ=              0.0000

 =-33.7375671\MP4SDQ=-33.7403679\CCSD=-33.7409217\CCSD(T)=-33.7444727\R
 Normal termination of Gaussian 16 at Sun Dec 10 06:25:46 2023.
