 Gaussian 16, Revision A.03,
 Gaussian 16:  ES64L-G16RevA.03 25-Dec-2016

 ------------------
 #p CCSD(T)/CEP-31G
 ------------------

 -----------
 H2O_H2O_192
 -----------
 Symbolic Z-matrix:
 Charge =  0 Multiplicity = 1

                         Standard orientation:
 ---------------------------------------------------------------------
 Center     Atomic      Atomic             Coordinates (Angstroms)
 Number     Number       Type             X           Y           Z
 ---------------------------------------------------------------------
      1          8           0        0.051380   -0.862339    0.000000
      2          1           0       -0.750999   -1.429520    0.000000
      3          1           0        0.848124   -1.437408    0.000000
      4          8           0        0.051380    0.925538    0.000000
      5          1           0       -0.102426    1.896028    0.000000
      6          1           0       -0.816775    0.465307    0.000000
 ---------------------------------------------------------------------

 SCF Done:  E(RHF) =  -33.5441505031     A.U. after   11 cycles
 E2 =    -0.2346381943D+00 EUMP2 =    -0.33778788697385D+02
 CCSD(T)
 CCSD(T)= -0.33795692226D+02

 The electronic state is 1-A'.
 Alpha  occ. eigenvalues --   -1.38169  -1.29357  -0.74243  -0.69812  -0.54681
 Alpha  occ. eigenvalues --   -0.52118  -0.43599  -0.42271
 Alpha virt. eigenvalues --    0.19697   0.28897   0.30268   0.34028   0.79980
 Alpha virt. eigenvalues --    0.84131   0.89653   0.95771   0.97769   1.17982
 Alpha virt. eigenvalues --    1.21089   1.25796   1.28957   1.35491   2.62517

 Mulliken charges:
               1
     1  O   -0.783308
     2  H    0.349685
     3  H    0.409264
     4  O   -0.641763
     5  H    0.307855
     6  H    0.358268
 Sum of Mulliken charges =   0.00000

 Dipole moment (field-independent basis, Debye):
    X=             -1.9010    Y=             -1.6319    Z=              0.0000  Tot=              2.5054
 Quadrupole moment (field-independent basis, Debye-Ang):
   XX=             -9.7972   YY=             -6.7118   ZZ=            -14.9590
   XY=             -1.6637   XZ=              0.0000   YZ=              0.0000

 MP4DQ=-33.7891113\MP4SDQ=-33.7916642\CCSD=-33.7924242\CCSD(T)=-33.7956
 Normal termination of Gaussian 16 at Sun Dec 10 06:28:20 2023.
