 Gaussian 16, Revision A.03,
 Gaussian 16:  ES64L-G16RevA.03 25-Dec-2016

 ------------------
 #p CCSD(T)/CEP-31G
 ------------------

 ------------
 H2O_H2O_1233
 ------------
 Symbolic Z-matrix:
 Charge =  0 Multiplicity = 1

                         Standard orientation:
 ---------------------------------------------------------------------
 Center     Atomic      Atomic             Coordinates (Angstroms)
 Number     Number       Type             X           Y           Z
 ---------------------------------------------------------------------
      1          8           0        0.028569   -1.446839    0.000000
      2          1           0       -0.771966   -2.016618    0.000000
      3          1           0        0.827174   -2.019321    0.000000
      4          8           0        0.028569    1.462046    0.000000
      5          1           0        0.436965    2.355756    0.000000
      6          1           0       -0.949284    1.558528    0.000000
 ---------------------------------------------------------------------

 SCF Done:  E(RHF) =  -33.6412656765     A.U. after   11 cycles
 E2 =    -0.2293632912D+00 EUMP2 =    -0.33870628967611D+02
 CCSD(T)
 CCSD(T)= -0.33887987988D+02

 The electronic state is 1-A'.
 Alpha  occ. eigenvalues --   -1.33530  -1.32951  -0.69143  -0.68550  -0.53952
 Alpha  occ. eigenvalues --   -0.50893  -0.48089  -0.47277
 Alpha virt. eigenvalues --    0.20947   0.23354   0.32029   0.32474   0.78819
 Alpha virt. eigenvalues --    0.79560   0.82534   0.86397   0.95790   1.12628
 Alpha virt. eigenvalues --    1.18992   1.21070   1.23778   1.24163   2.59118

 Mulliken charges:
               1
     1  O   -0.713720
     2  H    0.350511
     3  H    0.362519
     4  O   -0.706924
     5  H    0.348801
     6  H    0.358813
 Sum of Mulliken charges =  -0.00000

 Dipole moment (field-independent basis, Debye):
    X=             -1.2664    Y=             -0.3786    Z=              0.0000  Tot=              1.3218
 Quadrupole moment (field-independent basis, Debye-Ang):
   XX=             -8.6764   YY=              2.2254   ZZ=            -14.9861
   XY=             -1.2696   XZ=              0.0000   YZ=              0.0000

 MP4DQ=-33.882165\MP4SDQ=-33.8842657\CCSD=-33.8853419\CCSD(T)=-33.88798
 Normal termination of Gaussian 16 at Sun Dec 10 06:47:48 2023.
