 Gaussian 16, Revision A.03,
 Gaussian 16:  ES64L-G16RevA.03 25-Dec-2016

 ------------------
 #p CCSD(T)/CEP-31G
 ------------------

 ------------
 H2O_H2O_1191
 ------------
 Symbolic Z-matrix:
 Charge =  0 Multiplicity = 1

                         Standard orientation:
 ---------------------------------------------------------------------
 Center     Atomic      Atomic             Coordinates (Angstroms)
 Number     Number       Type             X           Y           Z
 ---------------------------------------------------------------------
      1          8           0        0.049546   -1.397646    0.000000
      2          1           0       -0.751726   -1.966388    0.000000
      3          1           0        0.847409   -1.971163    0.000000
      4          8           0        0.049546    1.454464    0.000000
      5          1           0       -0.042362    2.432757    0.000000
      6          1           0       -0.846064    1.050253    0.000000
 ---------------------------------------------------------------------

 SCF Done:  E(RHF) =  -33.6464450815     A.U. after   11 cycles
 E2 =    -0.2294979162D+00 EUMP2 =    -0.33875942997684D+02
 CCSD(T)
 CCSD(T)= -0.33893186478D+02

 The electronic state is 1-A'.
 Alpha  occ. eigenvalues --   -1.34783  -1.32627  -0.70425  -0.68244  -0.54594
 Alpha  occ. eigenvalues --   -0.51747  -0.49334  -0.47123
 Alpha virt. eigenvalues --    0.19931   0.24344   0.31028   0.33003   0.78623
 Alpha virt. eigenvalues --    0.78789   0.85386   0.86373   0.91311   1.15371
 Alpha virt. eigenvalues --    1.17978   1.21955   1.22619   1.27435   2.61419

 Mulliken charges:
               1
     1  O   -0.733498
     2  H    0.355356
     3  H    0.377045
     4  O   -0.715041
     5  H    0.344195
     6  H    0.371943
 Sum of Mulliken charges =   0.00000

 Dipole moment (field-independent basis, Debye):
    X=             -2.1845    Y=             -1.4272    Z=              0.0000  Tot=              2.6093
 Quadrupole moment (field-independent basis, Debye-Ang):
   XX=             -9.6457   YY=              0.1314   ZZ=            -14.9905
   XY=             -2.7430   XZ=              0.0000   YZ=              0.0000

 \MP4DQ=-33.8873591\MP4SDQ=-33.8894796\CCSD=-33.890532\CCSD(T)=-33.8931
 Normal termination of Gaussian 16 at Sun Dec 10 06:47:01 2023.
