 Gaussian 16, Revision A.03,
 Gaussian 16:  ES64L-G16RevA.03 25-Dec-2016

 ------------------
 #p CCSD(T)/CEP-31G
 ------------------

 -----------
 H2O_H2O_199
 -----------
 Symbolic Z-matrix:
 Charge =  0 Multiplicity = 1

                         Standard orientation:
 ---------------------------------------------------------------------
 Center     Atomic      Atomic             Coordinates (Angstroms)
 Number     Number       Type             X           Y           Z
 ---------------------------------------------------------------------
      1          8           0        0.057427   -0.834970    0.000000
      2          1           0       -0.745280   -1.401685    0.000000
      3          1           0        0.853837   -1.410501    0.000000
      4          8           0        0.057427    0.948564    0.000000
      5          1           0       -0.509288    1.751273    0.000000
      6          1           0       -0.518104    0.152154    0.000000
 ---------------------------------------------------------------------

 SCF Done:  E(RHF) =  -33.4995260804     A.U. after   11 cycles
 E2 =    -0.2334455549D+00 EUMP2 =    -0.33732971635342D+02
 CCSD(T)
 CCSD(T)= -0.33748103486D+02

 The electronic state is 1-A'.
 Alpha  occ. eigenvalues --   -1.44707  -1.27355  -0.81406  -0.74039  -0.56576
 Alpha  occ. eigenvalues --   -0.48251  -0.44388  -0.41625
 Alpha virt. eigenvalues --    0.18160   0.26348   0.31032   0.39718   0.77223
 Alpha virt. eigenvalues --    0.84217   0.91005   0.92279   0.97351   1.14253
 Alpha virt. eigenvalues --    1.17263   1.26173   1.33543   1.39342   2.93717

 Mulliken charges:
               1
     1  O   -0.770195
     2  H    0.373289
     3  H    0.472055
     4  O   -0.708882
     5  H    0.277838
     6  H    0.355895
 Sum of Mulliken charges =  -0.00000

 Dipole moment (field-independent basis, Debye):
    X=             -2.0884    Y=             -3.5723    Z=              0.0000  Tot=              4.1379
 Quadrupole moment (field-independent basis, Debye-Ang):
   XX=            -10.0751   YY=             -8.3690   ZZ=            -14.8992
   XY=             -2.5750   XZ=              0.0000   YZ=              0.0000

 \MP4DQ=-33.741365\MP4SDQ=-33.7440136\CCSD=-33.7445685\CCSD(T)=-33.7481
 Normal termination of Gaussian 16 at Sun Dec 10 06:28:28 2023.
