 Gaussian 16, Revision A.03,
 Gaussian 16:  ES64L-G16RevA.03 25-Dec-2016

 ------------------
 #p CCSD(T)/CEP-31G
 ------------------

 ------------
 H2O_H2O_1995
 ------------
 Symbolic Z-matrix:
 Charge =  0 Multiplicity = 1

                         Standard orientation:
 ---------------------------------------------------------------------
 Center     Atomic      Atomic             Coordinates (Angstroms)
 Number     Number       Type             X           Y           Z
 ---------------------------------------------------------------------
      1          8           0        0.055276   -1.808148    0.000000
      2          1           0       -0.745759   -2.377226    0.000000
      3          1           0        0.853378   -2.381330    0.000000
      4          8           0        0.055276    1.892527    0.000000
      5          1           0       -0.287089    2.813556    0.000000
      6          1           0       -0.704940    1.269969    0.000000
 ---------------------------------------------------------------------

 SCF Done:  E(RHF) =  -33.6519359035     A.U. after   11 cycles
 E2 =    -0.2286719401D+00 EUMP2 =    -0.33880607843530D+02
 CCSD(T)
 CCSD(T)= -0.33897625505D+02

 The electronic state is 1-A'.
 Alpha  occ. eigenvalues --   -1.35610  -1.33616  -0.71249  -0.69174  -0.55353
 Alpha  occ. eigenvalues --   -0.53315  -0.50183  -0.48194
 Alpha virt. eigenvalues --    0.19539   0.22834   0.30310   0.32557   0.77852
 Alpha virt. eigenvalues --    0.79975   0.82731   0.85944   0.86662   0.97171
 Alpha virt. eigenvalues --    1.17261   1.19871   1.21679   1.25345   2.56027

 Mulliken charges:
               1
     1  O   -0.741341
     2  H    0.365062
     3  H    0.377112
     4  O   -0.738395
     5  H    0.356419
     6  H    0.381142
 Sum of Mulliken charges =  -0.00000

 Dipole moment (field-independent basis, Debye):
    X=             -2.5138    Y=             -2.0645    Z=              0.0000  Tot=              3.2529
 Quadrupole moment (field-independent basis, Debye-Ang):
   XX=            -10.0070   YY=              1.8096   ZZ=            -14.9911
   XY=             -4.5696   XZ=              0.0000   YZ=              0.0000

 \MP4DQ=-33.8919448\MP4SDQ=-33.8939986\CCSD=-33.8950399\CCSD(T)=-33.897
 Normal termination of Gaussian 16 at Sun Dec 10 07:03:19 2023.
