 Gaussian 16, Revision A.03,
 Gaussian 16:  ES64L-G16RevA.03 25-Dec-2016

 ------------------
 #p CCSD(T)/CEP-31G
 ------------------

 -----------
 H2O_H2O_602
 -----------
 Symbolic Z-matrix:
 Charge =  0 Multiplicity = 1

                         Standard orientation:
 ---------------------------------------------------------------------
 Center     Atomic      Atomic             Coordinates (Angstroms)
 Number     Number       Type             X           Y           Z
 ---------------------------------------------------------------------
      1          8           0        0.007455   -1.122174    0.000000
      2          1           0       -0.792442   -1.692849    0.000000
      3          1           0        0.806700   -1.693763    0.000000
      4          8           0        0.007455    1.123143    0.000000
      5          1           0        0.726021    1.793344    0.000000
      6          1           0       -0.859560    1.585520    0.000000
 ---------------------------------------------------------------------

 SCF Done:  E(RHF) =  -33.6173305034     A.U. after   11 cycles
 E2 =    -0.2309059694D+00 EUMP2 =    -0.33848236472749D+02
 CCSD(T)
 CCSD(T)= -0.33865579257D+02

 The electronic state is 1-A'.
 Alpha  occ. eigenvalues --   -1.32730  -1.31277  -0.68112  -0.67055  -0.56353
 Alpha  occ. eigenvalues --   -0.47568  -0.45076  -0.44844
 Alpha virt. eigenvalues --    0.21566   0.25033   0.32872   0.33203   0.78364
 Alpha virt. eigenvalues --    0.79956   0.89895   0.97558   1.00773   1.15056
 Alpha virt. eigenvalues --    1.19993   1.22536   1.23755   1.26524   2.51576

 Mulliken charges:
               1
     1  O   -0.698822
     2  H    0.345952
     3  H    0.352383
     4  O   -0.696961
     5  H    0.349486
     6  H    0.347961
 Sum of Mulliken charges =  -0.00000

 Dipole moment (field-independent basis, Debye):
    X=             -0.3042    Y=             -0.0227    Z=              0.0000  Tot=              0.3051
 Quadrupole moment (field-independent basis, Debye-Ang):
   XX=             -8.3211   YY=             -1.8032   ZZ=            -15.0100
   XY=             -0.1940   XZ=              0.0000   YZ=              0.0000

 4DQ=-33.8595444\MP4SDQ=-33.8616967\CCSD=-33.8627636\CCSD(T)=-33.865579
 Normal termination of Gaussian 16 at Sun Dec 10 06:36:00 2023.
