 Gaussian 16, Revision A.03,
 Gaussian 16:  ES64L-G16RevA.03 25-Dec-2016

 ------------------
 #p CCSD(T)/CEP-31G
 ------------------

 ------------
 H2O_H2O_4528
 ------------
 Symbolic Z-matrix:
 Charge =  0 Multiplicity = 1

                         Standard orientation:
 ---------------------------------------------------------------------
 Center     Atomic      Atomic             Coordinates (Angstroms)
 Number     Number       Type             X           Y           Z
 ---------------------------------------------------------------------
      1          8           0        0.011143   -3.208970    0.000000
      2          1           0       -0.788599   -3.779863    0.000000
      3          1           0        0.810543   -3.780341    0.000000
      4          8           0        0.011143    3.211158    0.000000
      5          1           0        0.684141    3.927103    0.000000
      6          1           0       -0.884367    3.615595    0.000000
 ---------------------------------------------------------------------

 SCF Done:  E(RHF) =  -33.6506820877     A.U. after   11 cycles
 E2 =    -0.2284367238D+00 EUMP2 =    -0.33879118811541D+02
 CCSD(T)
 CCSD(T)= -0.33896151013D+02

 The electronic state is 1-A'.
 Alpha  occ. eigenvalues --   -1.35025  -1.35009  -0.70652  -0.70636  -0.54698
 Alpha  occ. eigenvalues --   -0.54682  -0.49579  -0.49563
 Alpha virt. eigenvalues --    0.20686   0.20702   0.30918   0.30933   0.80975
 Alpha virt. eigenvalues --    0.80990   0.84105   0.84124   0.87177   0.87196
 Alpha virt. eigenvalues --    1.17830   1.17846   1.22297   1.22313   2.57874

 Mulliken charges:
               1
     1  O   -0.737176
     2  H    0.368308
     3  H    0.368867
     4  O   -0.737151
     5  H    0.368182
     6  H    0.368970
 Sum of Mulliken charges =   0.00000

 Dipole moment (field-independent basis, Debye):
    X=             -0.5144    Y=             -0.0512    Z=              0.0000  Tot=              0.5169
 Quadrupole moment (field-independent basis, Debye-Ang):
   XX=             -8.1180   YY=             21.8040   ZZ=            -14.9868
   XY=             -1.3125   XZ=              0.0000   YZ=              0.0000

 \MP4DQ=-33.8904982\MP4SDQ=-33.8925289\CCSD=-33.8935864\CCSD(T)=-33.896
 Normal termination of Gaussian 16 at Sun Dec 10 07:03:09 2023.
