 Gaussian 16, Revision A.03,
 Gaussian 16:  ES64L-G16RevA.03 25-Dec-2016

 ------------------
 #p CCSD(T)/CEP-31G
 ------------------

 ------------
 H2O_H2O_2214
 ------------
 Symbolic Z-matrix:
 Charge =  0 Multiplicity = 1

                         Standard orientation:
 ---------------------------------------------------------------------
 Center     Atomic      Atomic             Coordinates (Angstroms)
 Number     Number       Type             X           Y           Z
 ---------------------------------------------------------------------
      1          8           0        0.045355   -1.949464    0.000000
      2          1           0       -0.755344   -2.519013    0.000000
      3          1           0        0.843795   -2.522177    0.000000
      4          8           0        0.045355    1.993975    0.000000
      5          1           0        0.080937    2.975932    0.000000
      6          1           0       -0.895068    1.709174    0.000000
 ---------------------------------------------------------------------

 SCF Done:  E(RHF) =  -33.6494953006     A.U. after   11 cycles
 E2 =    -0.2286498752D+00 EUMP2 =    -0.33878145175726D+02
 CCSD(T)
 CCSD(T)= -0.33895217768D+02

 The electronic state is 1-A'.
 Alpha  occ. eigenvalues --   -1.34884  -1.33985  -0.70513  -0.69570  -0.54505
 Alpha  occ. eigenvalues --   -0.53554  -0.49422  -0.48528
 Alpha virt. eigenvalues --    0.20405   0.21988   0.30963   0.31884   0.78953
 Alpha virt. eigenvalues --    0.80844   0.82293   0.85936   0.87597   0.94496
 Alpha virt. eigenvalues --    1.17918   1.18959   1.22340   1.23423   2.57761

 Mulliken charges:
               1
     1  O   -0.733258
     2  H    0.362470
     3  H    0.370986
     4  O   -0.730456
     5  H    0.358614
     6  H    0.371645
 Sum of Mulliken charges =  -0.00000

 Dipole moment (field-independent basis, Debye):
    X=             -2.0687    Y=             -1.0757    Z=              0.0000  Tot=              2.3317
 Quadrupole moment (field-independent basis, Debye-Ang):
   XX=             -9.3815   YY=              5.7894   ZZ=            -14.9870
   XY=             -3.4249   XZ=              0.0000   YZ=              0.0000

 \MP4DQ=-33.8895423\MP4SDQ=-33.8915865\CCSD=-33.8926384\CCSD(T)=-33.895
 Normal termination of Gaussian 16 at Sun Dec 10 07:07:15 2023.
