 Gaussian 16, Revision A.03,
 Gaussian 16:  ES64L-G16RevA.03 25-Dec-2016

 ------------------
 #p CCSD(T)/CEP-31G
 ------------------

 ------------
 H2O_H2O_2942
 ------------
 Symbolic Z-matrix:
 Charge =  0 Multiplicity = 1

                         Standard orientation:
 ---------------------------------------------------------------------
 Center     Atomic      Atomic             Coordinates (Angstroms)
 Number     Number       Type             X           Y           Z
 ---------------------------------------------------------------------
      1          8           0        0.051283   -2.324726    0.000000
      2          1           0       -0.749356   -2.894361    0.000000
      3          1           0        0.849784   -2.897353    0.000000
      4          8           0        0.051283    2.388239    0.000000
      5          1           0       -0.105493    3.358253    0.000000
      6          1           0       -0.815459    1.925351    0.000000
 ---------------------------------------------------------------------

 SCF Done:  E(RHF) =  -33.6510490606     A.U. after   11 cycles
 E2 =    -0.2284695882D+00 EUMP2 =    -0.33879518648819D+02
 CCSD(T)
 CCSD(T)= -0.33896540792D+02

 The electronic state is 1-A'.
 Alpha  occ. eigenvalues --   -1.35302  -1.34421  -0.70933  -0.70022  -0.54996
 Alpha  occ. eigenvalues --   -0.54104  -0.49861  -0.48984
 Alpha virt. eigenvalues --    0.20358   0.21392   0.30657   0.31545   0.80687
 Alpha virt. eigenvalues --    0.81557   0.83063   0.85056   0.86857   0.88301
 Alpha virt. eigenvalues --    1.17569   1.18456   1.22019   1.22953   2.57604

 Mulliken charges:
               1
     1  O   -0.738606
     2  H    0.366388
     3  H    0.372245
     4  O   -0.737266
     5  H    0.363288
     6  H    0.373951
 Sum of Mulliken charges =  -0.00000

 Dipole moment (field-independent basis, Debye):
    X=             -2.3553    Y=             -1.5072    Z=              0.0000  Tot=              2.7963
 Quadrupole moment (field-independent basis, Debye-Ang):
   XX=             -9.7428   YY=              7.3956   ZZ=            -14.9882
   XY=             -5.0649   XZ=              0.0000   YZ=              0.0000

 \MP4DQ=-33.8908892\MP4SDQ=-33.8929203\CCSD=-33.8939747\CCSD(T)=-33.896
 Normal termination of Gaussian 16 at Sun Dec 10 06:32:56 2023.
