 Gaussian 16, Revision A.03,
 Gaussian 16:  ES64L-G16RevA.03 25-Dec-2016

 ------------------
 #p CCSD(T)/CEP-31G
 ------------------

 ------------
 H2O_H2O_3128
 ------------
 Symbolic Z-matrix:
 Charge =  0 Multiplicity = 1

                         Standard orientation:
 ---------------------------------------------------------------------
 Center     Atomic      Atomic             Coordinates (Angstroms)
 Number     Number       Type             X           Y           Z
 ---------------------------------------------------------------------
      1          8           0        0.011143   -2.464400    0.000000
      2          1           0       -0.788650   -3.035221    0.000000
      3          1           0        0.810491   -3.035843    0.000000
      4          8           0        0.011143    2.466586    0.000000
      5          1           0        0.684206    3.182471    0.000000
      6          1           0       -0.884330    2.871105    0.000000
 ---------------------------------------------------------------------

 SCF Done:  E(RHF) =  -33.6493249461     A.U. after   11 cycles
 E2 =    -0.2285206854D+00 EUMP2 =    -0.33877845631582D+02
 CCSD(T)
 CCSD(T)= -0.33894917025D+02

 The electronic state is 1-A'.
 Alpha  occ. eigenvalues --   -1.34634  -1.34606  -0.70258  -0.70229  -0.54244
 Alpha  occ. eigenvalues --   -0.54181  -0.49169  -0.49141
 Alpha virt. eigenvalues --    0.20962   0.21072   0.31228   0.31260   0.81355
 Alpha virt. eigenvalues --    0.81439   0.83895   0.85460   0.87593   0.87772
 Alpha virt. eigenvalues --    1.18165   1.18192   1.22640   1.22676   2.58241

 Mulliken charges:
               1
     1  O   -0.732498
     2  H    0.365670
     3  H    0.366828
     4  O   -0.732417
     5  H    0.365458
     6  H    0.366959
 Sum of Mulliken charges =  -0.00000

 Dipole moment (field-independent basis, Debye):
    X=             -0.5124    Y=             -0.0517    Z=              0.0000  Tot=              0.5150
 Quadrupole moment (field-independent basis, Debye-Ang):
   XX=             -8.1387   YY=             13.8881   ZZ=            -14.9855
   XY=             -0.9376   XZ=              0.0000   YZ=              0.0000

 P4DQ=-33.889253\MP4SDQ=-33.8912876\CCSD=-33.8923469\CCSD(T)=-33.894917
 Normal termination of Gaussian 16 at Sun Dec 10 06:36:12 2023.
