 Gaussian 16, Revision A.03,
 Gaussian 16:  ES64L-G16RevA.03 25-Dec-2016

 ------------------
 #p CCSD(T)/CEP-31G
 ------------------

 ------------
 H2O_H2O_4685
 ------------
 Symbolic Z-matrix:
 Charge =  0 Multiplicity = 1

                         Standard orientation:
 ---------------------------------------------------------------------
 Center     Atomic      Atomic             Coordinates (Angstroms)
 Number     Number       Type             X           Y           Z
 ---------------------------------------------------------------------
      1          8           0        0.034779   -3.277149    0.000000
      2          1           0       -0.765311   -3.847553    0.000000
      3          1           0        0.833830   -3.849008    0.000000
      4          8           0        0.034779    3.300690    0.000000
      5          1           0        0.322294    4.240287    0.000000
      6          1           0       -0.947277    3.267945    0.000000
 ---------------------------------------------------------------------

 SCF Done:  E(RHF) =  -33.6510222550     A.U. after   11 cycles
 E2 =    -0.2284216784D+00 EUMP2 =    -0.33879443933359D+02
 CCSD(T)
 CCSD(T)= -0.33896466368D+02

 The electronic state is 1-A'.
 Alpha  occ. eigenvalues --   -1.35188  -1.35025  -0.70817  -0.70651  -0.54880
 Alpha  occ. eigenvalues --   -0.54717  -0.49748  -0.49585
 Alpha virt. eigenvalues --    0.20541   0.20706   0.30775   0.30935   0.80805
 Alpha virt. eigenvalues --    0.80966   0.83904   0.84063   0.86988   0.87174
 Alpha virt. eigenvalues --    1.17681   1.17842   1.22145   1.22307   2.57716

 Mulliken charges:
               1
     1  O   -0.738390
     2  H    0.368388
     3  H    0.370002
     4  O   -0.738205
     5  H    0.367845
     6  H    0.370360
 Sum of Mulliken charges =  -0.00000

 Dipole moment (field-independent basis, Debye):
    X=             -1.6059    Y=             -0.5500    Z=              0.0000  Tot=              1.6975
 Quadrupole moment (field-independent basis, Debye-Ang):
   XX=             -8.8216   YY=             19.9921   ZZ=            -14.9874
   XY=             -4.4618   XZ=              0.0000   YZ=              0.0000

 \MP4DQ=-33.8908163\MP4SDQ=-33.892846\CCSD=-33.8939028\CCSD(T)=-33.8964
 Normal termination of Gaussian 16 at Sun Dec 10 07:06:00 2023.
