 Gaussian 16, Revision A.03,
 Gaussian 16:  ES64L-G16RevA.03 25-Dec-2016

 ------------------
 #p CCSD(T)/CEP-31G
 ------------------

 ------------
 H2O_H2O_4882
 ------------
 Symbolic Z-matrix:
 Charge =  0 Multiplicity = 1

                         Standard orientation:
 ---------------------------------------------------------------------
 Center     Atomic      Atomic             Coordinates (Angstroms)
 Number     Number       Type             X           Y           Z
 ---------------------------------------------------------------------
      1          8           0        0.025264   -3.389921    0.000000
      2          1           0       -0.774672   -3.960541    0.000000
      3          1           0        0.824469   -3.961565    0.000000
      4          8           0        0.025264    3.401669    0.000000
      5          1           0        0.490327    4.267245    0.000000
      6          1           0       -0.944353    3.560881    0.000000
 ---------------------------------------------------------------------

 SCF Done:  E(RHF) =  -33.6509657076     A.U. after   11 cycles
 E2 =    -0.2284220452D+00 EUMP2 =    -0.33879387752774D+02
 CCSD(T)
 CCSD(T)= -0.33896411851D+02

 The electronic state is 1-A'.
 Alpha  occ. eigenvalues --   -1.35144  -1.35068  -0.70773  -0.70695  -0.54833
 Alpha  occ. eigenvalues --   -0.54757  -0.49703  -0.49627
 Alpha virt. eigenvalues --    0.20582   0.20659   0.30815   0.30890   0.80850
 Alpha virt. eigenvalues --    0.80926   0.83954   0.84028   0.87037   0.87124
 Alpha virt. eigenvalues --    1.17722   1.17798   1.22187   1.22263   2.57759

 Mulliken charges:
               1
     1  O   -0.738179
     2  H    0.368551
     3  H    0.369629
     4  O   -0.738089
     5  H    0.368241
     6  H    0.369848
 Sum of Mulliken charges =   0.00000

 Dipole moment (field-independent basis, Debye):
    X=             -1.1669    Y=             -0.2742    Z=              0.0000  Tot=              1.1987
 Quadrupole moment (field-independent basis, Debye-Ang):
   XX=             -8.4494   YY=             22.5542   ZZ=            -14.9872
   XY=             -3.2681   XZ=              0.0000   YZ=              0.0000

 MP4DQ=-33.8907613\MP4SDQ=-33.8927912\CCSD=-33.8938482\CCSD(T)=-33.8964
 Normal termination of Gaussian 16 at Sun Dec 10 07:09:39 2023.
