 Gaussian 16, Revision A.03,
 Gaussian 16:  ES64L-G16RevA.03 25-Dec-2016

 ------------------
 #p CCSD(T)/CEP-31G
 ------------------

 ------------
 H2O_H2O_1637
 ------------
 Symbolic Z-matrix:
 Charge =  0 Multiplicity = 1

                         Standard orientation:
 ---------------------------------------------------------------------
 Center     Atomic      Atomic             Coordinates (Angstroms)
 Number     Number       Type             X           Y           Z
 ---------------------------------------------------------------------
      1          8           0        0.040420   -1.649753    0.000000
      2          1           0       -0.760341   -2.219216    0.000000
      3          1           0        0.838798   -2.222552    0.000000
      4          8           0        0.040420    1.683040    0.000000
      5          1           0        0.203973    2.651935    0.000000
      6          1           0       -0.929149    1.523532    0.000000
 ---------------------------------------------------------------------

 SCF Done:  E(RHF) =  -33.6467884323     A.U. after   11 cycles
 E2 =    -0.2289855965D+00 EUMP2 =    -0.33875774028809D+02
 CCSD(T)
 CCSD(T)= -0.33892962669D+02

 The electronic state is 1-A'.
 Alpha  occ. eigenvalues --   -1.34384  -1.33445  -0.70012  -0.69020  -0.54098
 Alpha  occ. eigenvalues --   -0.52617  -0.48902  -0.47944
 Alpha virt. eigenvalues --    0.20449   0.22787   0.31351   0.32242   0.75462
 Alpha virt. eigenvalues --    0.80168   0.84116   0.84946   0.90203   1.06433
 Alpha virt. eigenvalues --    1.18295   1.20001   1.22838   1.23939   2.58141

 Mulliken charges:
               1
     1  O   -0.725321
     2  H    0.356856
     3  H    0.368717
     4  O   -0.719934
     5  H    0.352165
     6  H    0.367516
 Sum of Mulliken charges =  -0.00000

 Dipole moment (field-independent basis, Debye):
    X=             -1.8216    Y=             -0.8245    Z=              0.0000  Tot=              1.9995
 Quadrupole moment (field-independent basis, Debye-Ang):
   XX=             -9.1360   YY=              3.6490   ZZ=            -14.9859
   XY=             -2.3740   XZ=              0.0000   YZ=              0.0000

 MP4DQ=-33.8872227\MP4SDQ=-33.8893006\CCSD=-33.8903539\CCSD(T)=-33.8929
 Normal termination of Gaussian 16 at Sun Dec 10 06:55:19 2023.
