 Gaussian 16, Revision A.03,
 Gaussian 16:  ES64L-G16RevA.03 25-Dec-2016

 ------------------
 #p CCSD(T)/CEP-31G
 ------------------

 -----------
 H2O_H2O_168
 -----------
 Symbolic Z-matrix:
 Charge =  0 Multiplicity = 1

                         Standard orientation:
 ---------------------------------------------------------------------
 Center     Atomic      Atomic             Coordinates (Angstroms)
 Number     Number       Type             X           Y           Z
 ---------------------------------------------------------------------
      1          8           0        0.052947   -0.845367    0.000000
      2          1           0       -0.749560   -1.412366    0.000000
      3          1           0        0.849560   -1.420617    0.000000
      4          8           0        0.052947    0.915335    0.000000
      5          1           0       -0.163785    1.873737    0.000000
      6          1           0       -0.783366    0.399499    0.000000
 ---------------------------------------------------------------------

 SCF Done:  E(RHF) =  -33.5294622185     A.U. after   11 cycles
 E2 =    -0.2350036586D+00 EUMP2 =    -0.33764465877087D+02
 CCSD(T)
 CCSD(T)= -0.33781217711D+02

 The electronic state is 1-A'.
 Alpha  occ. eigenvalues --   -1.39205  -1.29087  -0.75398  -0.70467  -0.53720
 Alpha  occ. eigenvalues --   -0.52812  -0.43415  -0.42204
 Alpha virt. eigenvalues --    0.19516   0.29266   0.29875   0.34330   0.79802
 Alpha virt. eigenvalues --    0.83728   0.89632   0.95555   0.97607   1.17912
 Alpha virt. eigenvalues --    1.21123   1.25745   1.29698   1.36289   2.65879

 Mulliken charges:
               1
     1  O   -0.787815
     2  H    0.350989
     3  H    0.416291
     4  O   -0.640174
     5  H    0.299622
     6  H    0.361087
 Sum of Mulliken charges =  -0.00000

 Dipole moment (field-independent basis, Debye):
    X=             -1.9386    Y=             -1.8418    Z=              0.0000  Tot=              2.6740
 Quadrupole moment (field-independent basis, Debye-Ang):
   XX=             -9.8809   YY=             -7.1429   ZZ=            -14.9467
   XY=             -1.7490   XZ=              0.0000   YZ=              0.0000

 \MP4DQ=-33.7745628\MP4SDQ=-33.7771627\CCSD=-33.777874\CCSD(T)=-33.7812
 Normal termination of Gaussian 16 at Sun Dec 10 06:27:53 2023.
