 Gaussian 16, Revision A.03,
 Gaussian 16:  ES64L-G16RevA.03 25-Dec-2016

 ------------------
 #p CCSD(T)/CEP-31G
 ------------------

 ------------
 H2O_H2O_1062
 ------------
 Symbolic Z-matrix:
 Charge =  0 Multiplicity = 1

                         Standard orientation:
 ---------------------------------------------------------------------
 Center     Atomic      Atomic             Coordinates (Angstroms)
 Number     Number       Type             X           Y           Z
 ---------------------------------------------------------------------
      1          8           0        0.040428   -1.343967    0.000000
      2          1           0       -0.760600   -1.913054    0.000000
      3          1           0        0.838537   -1.917140    0.000000
      4          8           0        0.040428    1.377216    0.000000
      5          1           0        0.204435    2.346034    0.000000
      6          1           0       -0.929216    1.218162    0.000000
 ---------------------------------------------------------------------

 SCF Done:  E(RHF) =  -33.6413583126     A.U. after   11 cycles
 E2 =    -0.2296721943D+00 EUMP2 =    -0.33871030506946D+02
 CCSD(T)
 CCSD(T)= -0.33888390231D+02

 The electronic state is 1-A'.
 Alpha  occ. eigenvalues --   -1.33916  -1.32561  -0.69539  -0.68179  -0.54360
 Alpha  occ. eigenvalues --   -0.50598  -0.48486  -0.46920
 Alpha virt. eigenvalues --    0.20514   0.24152   0.31729   0.32742   0.78894
 Alpha virt. eigenvalues --    0.81716   0.83137   0.87293   0.94856   1.15626
 Alpha virt. eigenvalues --    1.18695   1.22540   1.23396   1.26922   2.58850

 Mulliken charges:
               1
     1  O   -0.722765
     2  H    0.350270
     3  H    0.369877
     4  O   -0.703819
     5  H    0.344909
     6  H    0.361528
 Sum of Mulliken charges =  -0.00000

 Dipole moment (field-independent basis, Debye):
    X=             -1.7668    Y=             -0.8274    Z=              0.0000  Tot=              1.9509
 Quadrupole moment (field-independent basis, Debye-Ang):
   XX=             -9.1733   YY=              0.4896   ZZ=            -14.9891
   XY=             -1.8460   XZ=              0.0000   YZ=              0.0000

 MP4DQ=-33.8825259\MP4SDQ=-33.8846497\CCSD=-33.8857216\CCSD(T)=-33.8883
 Normal termination of Gaussian 16 at Sun Dec 10 06:44:37 2023.
