 Gaussian 16, Revision A.03,
 Gaussian 16:  ES64L-G16RevA.03 25-Dec-2016

 ------------------
 #p CCSD(T)/CEP-31G
 ------------------

 -----------
 H2O_H2O_304
 -----------
 Symbolic Z-matrix:
 Charge =  0 Multiplicity = 1

                         Standard orientation:
 ---------------------------------------------------------------------
 Center     Atomic      Atomic             Coordinates (Angstroms)
 Number     Number       Type             X           Y           Z
 ---------------------------------------------------------------------
      1          8           0        0.014785   -0.961057    0.000000
      2          1           0       -0.785540   -1.531132    0.000000
      3          1           0        0.813600   -1.533245    0.000000
      4          8           0        0.014785    0.964910    0.000000
      5          1           0        0.640293    1.722699    0.000000
      6          1           0       -0.904906    1.310852    0.000000
 ---------------------------------------------------------------------

 SCF Done:  E(RHF) =  -33.5774429944     A.U. after   11 cycles
 E2 =    -0.2332919695D+00 EUMP2 =    -0.33810734963913D+02
 CCSD(T)
 CCSD(T)= -0.33827772419D+02

 The electronic state is 1-A'.
 Alpha  occ. eigenvalues --   -1.33726  -1.30064  -0.68682  -0.66228  -0.60024
 Alpha  occ. eigenvalues --   -0.48691  -0.43639  -0.39477
 Alpha virt. eigenvalues --    0.21411   0.26606   0.32590   0.33512   0.79258
 Alpha virt. eigenvalues --    0.81223   0.90152   0.93426   1.04875   1.20168
 Alpha virt. eigenvalues --    1.21801   1.22847   1.27483   1.28690   2.48377

 Mulliken charges:
               1
     1  O   -0.704342
     2  H    0.341586
     3  H    0.359861
     4  O   -0.693085
     5  H    0.351365
     6  H    0.344616
 Sum of Mulliken charges =  -0.00000

 Dipole moment (field-independent basis, Debye):
    X=             -0.5627    Y=             -0.0932    Z=              0.0000  Tot=              0.5703
 Quadrupole moment (field-independent basis, Debye-Ang):
   XX=             -8.4936   YY=             -4.5842   ZZ=            -15.0286
   XY=             -0.3224   XZ=              0.0000   YZ=              0.0000

 4DQ=-33.8214429\MP4SDQ=-33.8237909\CCSD=-33.8247228\CCSD(T)=-33.827772
 Normal termination of Gaussian 16 at Sun Dec 10 06:30:27 2023.
