 Gaussian 16, Revision A.03,
 Gaussian 16:  ES64L-G16RevA.03 25-Dec-2016

 ------------------
 #p CCSD(T)/CEP-31G
 ------------------

 ------------
 H2O_H2O_2620
 ------------
 Symbolic Z-matrix:
 Charge =  0 Multiplicity = 1

                         Standard orientation:
 ---------------------------------------------------------------------
 Center     Atomic      Atomic             Coordinates (Angstroms)
 Number     Number       Type             X           Y           Z
 ---------------------------------------------------------------------
      1          8           0        0.055259   -2.140524    0.000000
      2          1           0       -0.745553   -2.709915    0.000000
      3          1           0        0.853586   -2.713394    0.000000
      4          8           0        0.055259    2.224946    0.000000
      5          1           0       -0.287465    3.145840    0.000000
      6          1           0       -0.704713    1.602091    0.000000
 ---------------------------------------------------------------------

 SCF Done:  E(RHF) =  -33.6518240924     A.U. after   11 cycles
 E2 =    -0.2284765531D+00 EUMP2 =    -0.33880300645532D+02
 CCSD(T)
 CCSD(T)= -0.33897301430D+02

 The electronic state is 1-A'.
 Alpha  occ. eigenvalues --   -1.35565  -1.34178  -0.71200  -0.69763  -0.55303
 Alpha  occ. eigenvalues --   -0.53888  -0.50136  -0.48751
 Alpha virt. eigenvalues --    0.19964   0.21833   0.30410   0.31875   0.80396
 Alpha virt. eigenvalues --    0.81797   0.81887   0.85405   0.86493   0.89497
 Alpha virt. eigenvalues --    1.17336   1.18840   1.21740   1.23530   2.57314

 Mulliken charges:
               1
     1  O   -0.741215
     2  H    0.366885
     3  H    0.374512
     4  O   -0.739672
     5  H    0.361727
     6  H    0.377764
 Sum of Mulliken charges =  -0.00000

 Dipole moment (field-independent basis, Debye):
    X=             -2.5325    Y=             -2.0197    Z=              0.0000  Tot=              3.2393
 Quadrupole moment (field-independent basis, Debye-Ang):
   XX=            -10.0127   YY=              4.1124   ZZ=            -14.9898
   XY=             -5.3937   XZ=              0.0000   YZ=              0.0000

 4\MP4DQ=-33.891651\MP4SDQ=-33.893684\CCSD=-33.894734\CCSD(T)=-33.89730
 Normal termination of Gaussian 16 at Sun Dec 10 06:26:57 2023.
