 Gaussian 16, Revision A.03,
 Gaussian 16:  ES64L-G16RevA.03 25-Dec-2016

 ------------------
 #p CCSD(T)/CEP-31G
 ------------------

 ----------
 H2O_H2O_76
 ----------
 Symbolic Z-matrix:
 Charge =  0 Multiplicity = 1

                         Standard orientation:
 ---------------------------------------------------------------------
 Center     Atomic      Atomic             Coordinates (Angstroms)
 Number     Number       Type             X           Y           Z
 ---------------------------------------------------------------------
      1          8           0        0.003735   -0.843355    0.000000
      2          1           0       -0.796053   -1.414182    0.000000
      3          1           0        0.803089   -1.414792    0.000000
      4          8           0        0.003735    0.843597    0.000000
      5          1           0        0.764479    1.465511    0.000000
      6          1           0       -0.831280    1.361530    0.000000
 ---------------------------------------------------------------------

 SCF Done:  E(RHF) =  -33.4976243294     A.U. after   11 cycles
 E2 =    -0.2381412212D+00 EUMP2 =    -0.33735765550671D+02
 CCSD(T)
 CCSD(T)= -0.33752156720D+02

 The electronic state is 1-A'.
 Alpha  occ. eigenvalues --   -1.36346  -1.29005  -0.70110  -0.65965  -0.65174
 Alpha  occ. eigenvalues --   -0.51130  -0.42486  -0.32209
 Alpha virt. eigenvalues --    0.21233   0.28361   0.31789   0.33718   0.79501
 Alpha virt. eigenvalues --    0.82239   0.88092   0.89218   1.05556   1.19517
 Alpha virt. eigenvalues --    1.20496   1.24973   1.28076   1.37734   2.50884

 Mulliken charges:
               1
     1  O   -0.690537
     2  H    0.341828
     3  H    0.348589
     4  O   -0.689820
     5  H    0.345239
     6  H    0.344700
 Sum of Mulliken charges =   0.00000

 Dipole moment (field-independent basis, Debye):
    X=             -0.1363    Y=             -0.0070    Z=              0.0000  Tot=              0.1365
 Quadrupole moment (field-independent basis, Debye-Ang):
   XX=             -8.5346   YY=             -7.3377   ZZ=            -15.0350
   XY=             -0.0869   XZ=              0.0000   YZ=              0.0000

 P4DQ=-33.7452864\MP4SDQ=-33.7480523\CCSD=-33.7486452\CCSD(T)=-33.75215
 Normal termination of Gaussian 16 at Sun Dec 10 06:26:09 2023.
