 Gaussian 16, Revision A.03,
 Gaussian 16:  ES64L-G16RevA.03 25-Dec-2016

 ------------------
 #p CCSD(T)/CEP-31G
 ------------------

 ------------
 H2O_H2O_2457
 ------------
 Symbolic Z-matrix:
 Charge =  0 Multiplicity = 1

                         Standard orientation:
 ---------------------------------------------------------------------
 Center     Atomic      Atomic             Coordinates (Angstroms)
 Number     Number       Type             X           Y           Z
 ---------------------------------------------------------------------
      1          8           0        0.025267   -2.100228    0.000000
      2          1           0       -0.774894   -2.670534    0.000000
      3          1           0        0.824248   -2.672185    0.000000
      4          8           0        0.025267    2.111956    0.000000
      5          1           0        0.490668    2.977350    0.000000
      6          1           0       -0.944288    2.271548    0.000000
 ---------------------------------------------------------------------

 SCF Done:  E(RHF) =  -33.6483313813     A.U. after   11 cycles
 E2 =    -0.2286207855D+00 EUMP2 =    -0.33876952166760D+02
 CCSD(T)
 CCSD(T)= -0.33894053704D+02

 The electronic state is 1-A'.
 Alpha  occ. eigenvalues --   -1.34451  -1.34247  -0.70074  -0.69860  -0.54047
 Alpha  occ. eigenvalues --   -0.53709  -0.48973  -0.48768
 Alpha virt. eigenvalues --    0.20949   0.21510   0.31362   0.31553   0.81206
 Alpha virt. eigenvalues --    0.81357   0.81994   0.86712   0.88144   0.90577
 Alpha virt. eigenvalues --    1.18308   1.18510   1.22799   1.23011   2.58290

 Mulliken charges:
               1
     1  O   -0.729179
     2  H    0.362596
     3  H    0.366608
     4  O   -0.728374
     5  H    0.361591
     6  H    0.366758
 Sum of Mulliken charges =   0.00000

 Dipole moment (field-independent basis, Debye):
    X=             -1.1564    Y=             -0.2813    Z=              0.0000  Tot=              1.1901
 Quadrupole moment (field-independent basis, Debye-Ang):
   XX=             -8.4843   YY=              9.3861   ZZ=            -14.9850
   XY=             -1.7993   XZ=              0.0000   YZ=              0.0000

 MP4DQ=-33.8883771\MP4SDQ=-33.8904179\CCSD=-33.8914763\CCSD(T)=-33.8940
 Normal termination of Gaussian 16 at Sun Dec 10 07:11:37 2023.
