 Gaussian 16, Revision A.03,
 Gaussian 16:  ES64L-G16RevA.03 25-Dec-2016

 ------------------
 #p CCSD(T)/CEP-31G
 ------------------

 -----------
 H2O_H2O_468
 -----------
 Symbolic Z-matrix:
 Charge =  0 Multiplicity = 1

                         Standard orientation:
 ---------------------------------------------------------------------
 Center     Atomic      Atomic             Coordinates (Angstroms)
 Number     Number       Type             X           Y           Z
 ---------------------------------------------------------------------
      1          8           0        0.052919   -1.004874    0.000000
      2          1           0       -0.749139   -1.572508    0.000000
      3          1           0        0.849988   -1.579493    0.000000
      4          8           0        0.052919    1.074926    0.000000
      5          1           0       -0.164571    2.033156    0.000000
      6          1           0       -0.782985    0.558428    0.000000
 ---------------------------------------------------------------------

 SCF Done:  E(RHF) =  -33.6129178635     A.U. after   11 cycles
 E2 =    -0.2319395037D+00 EUMP2 =    -0.33844857367273D+02
 CCSD(T)
 CCSD(T)= -0.33861917065D+02

 The electronic state is 1-A'.
 Alpha  occ. eigenvalues --   -1.36034  -1.30568  -0.71896  -0.68632  -0.54146
 Alpha  occ. eigenvalues --   -0.50551  -0.47930  -0.44866
 Alpha virt. eigenvalues --    0.19638   0.27491   0.30448   0.34447   0.78476
 Alpha virt. eigenvalues --    0.84727   0.89841   0.95914   0.99272   1.14604
 Alpha virt. eigenvalues --    1.19088   1.23114   1.26388   1.32110   2.62724

 Mulliken charges:
               1
     1  O   -0.775833
     2  H    0.355821
     3  H    0.402979
     4  O   -0.673524
     5  H    0.323472
     6  H    0.367083
 Sum of Mulliken charges =   0.00000

 Dipole moment (field-independent basis, Debye):
    X=             -2.1159    Y=             -1.7910    Z=              0.0000  Tot=              2.7721
 Quadrupole moment (field-independent basis, Debye-Ang):
   XX=             -9.8640   YY=             -4.5938   ZZ=            -14.9940
   XY=             -2.1909   XZ=              0.0000   YZ=              0.0000

 \MP4DQ=-33.8557138\MP4SDQ=-33.8580189\CCSD=-33.8589608\CCSD(T)=-33.861
 Normal termination of Gaussian 16 at Sun Dec 10 06:33:31 2023.
