 Gaussian 16, Revision A.03,
 Gaussian 16:  ES64L-G16RevA.03 25-Dec-2016

 ------------------
 #p CCSD(T)/CEP-31G
 ------------------

 ------------
 H2O_H2O_3343
 ------------
 Symbolic Z-matrix:
 Charge =  0 Multiplicity = 1

                         Standard orientation:
 ---------------------------------------------------------------------
 Center     Atomic      Atomic             Coordinates (Angstroms)
 Number     Number       Type             X           Y           Z
 ---------------------------------------------------------------------
      1          8           0        0.052828   -2.533760    0.000000
      2          1           0       -0.747752   -3.103478    0.000000
      3          1           0        0.851388   -3.106305    0.000000
      4          8           0        0.052828    2.604088    0.000000
      5          1           0       -0.167153    3.561748    0.000000
      6          1           0       -0.781730    2.085418    0.000000
 ---------------------------------------------------------------------

 SCF Done:  E(RHF) =  -33.6513798476     A.U. after   11 cycles
 E2 =    -0.2284313329D+00 EUMP2 =    -0.33879811180531D+02
 CCSD(T)
 CCSD(T)= -0.33896823300D+02

 The electronic state is 1-A'.
 Alpha  occ. eigenvalues --   -1.35411  -1.34598  -0.71042  -0.70207  -0.55124
 Alpha  occ. eigenvalues --   -0.54301  -0.49976  -0.49165
 Alpha virt. eigenvalues --    0.20320   0.21188   0.30574   0.31390   0.80578
 Alpha virt. eigenvalues --    0.81372   0.83515   0.84543   0.86733   0.87708
 Alpha virt. eigenvalues --    1.17474   1.18281   1.21932   1.22763   2.57494

 Mulliken charges:
               1
     1  O   -0.739735
     2  H    0.367512
     3  H    0.372229
     4  O   -0.738872
     5  H    0.364878
     6  H    0.373988
 Sum of Mulliken charges =  -0.00000

 Dipole moment (field-independent basis, Debye):
    X=             -2.4312    Y=             -1.6597    Z=              0.0000  Tot=              2.9436
 Quadrupole moment (field-independent basis, Debye-Ang):
   XX=             -9.8477   YY=              8.3218   ZZ=            -14.9885
   XY=             -5.8413   XZ=              0.0000   YZ=              0.0000

 5\MP4DQ=-33.8911754\MP4SDQ=-33.8932047\CCSD=-33.8942596\CCSD(T)=-33.89
 Normal termination of Gaussian 16 at Sun Dec 10 06:40:02 2023.
