 Gaussian 16, Revision A.03,
 Gaussian 16:  ES64L-G16RevA.03 25-Dec-2016

 ------------------
 #p CCSD(T)/CEP-31G
 ------------------

 ----------
 H2O_H2O_42
 ----------
 Symbolic Z-matrix:
 Charge =  0 Multiplicity = 1

                         Standard orientation:
 ---------------------------------------------------------------------
 Center     Atomic      Atomic             Coordinates (Angstroms)
 Number     Number       Type             X           Y           Z
 ---------------------------------------------------------------------
      1          8           0        0.051395   -0.782590    0.000000
      2          1           0       -0.751257   -1.349383    0.000000
      3          1           0        0.847861   -1.358044    0.000000
      4          8           0        0.051395    0.845740    0.000000
      5          1           0       -0.101942    1.816303    0.000000
      6          1           0       -0.816982    0.385927    0.000000
 ---------------------------------------------------------------------

 SCF Done:  E(RHF) =  -33.4630616475     A.U. after   12 cycles
 E2 =    -0.2376750869D+00 EUMP2 =    -0.33700736734458D+02
 CCSD(T)
 CCSD(T)= -0.33717368233D+02

 The electronic state is 1-A'.
 Alpha  occ. eigenvalues --   -1.41670  -1.28465  -0.77171  -0.71671  -0.54830
 Alpha  occ. eigenvalues --   -0.54500  -0.42892  -0.37479
 Alpha virt. eigenvalues --    0.19483   0.29310   0.30451   0.33807   0.80335
 Alpha virt. eigenvalues --    0.82861   0.88954   0.95768   0.95990   1.18847
 Alpha virt. eigenvalues --    1.21575   1.26377   1.28191   1.40500   2.68013

 Mulliken charges:
               1
     1  O   -0.768922
     2  H    0.339550
     3  H    0.412901
     4  O   -0.623648
     5  H    0.283661
     6  H    0.356459
 Sum of Mulliken charges =  -0.00000

 Dipole moment (field-independent basis, Debye):
    X=             -1.7911    Y=             -1.6965    Z=              0.0000  Tot=              2.4670
 Quadrupole moment (field-independent basis, Debye-Ang):
   XX=             -9.8255   YY=             -8.4899   ZZ=            -14.8994
   XY=             -1.4575   XZ=              0.0000   YZ=              0.0000

 P4DQ=-33.7103705\MP4SDQ=-33.7132141\CCSD=-33.7137203\CCSD(T)=-33.71736
 Normal termination of Gaussian 16 at Sun Dec 10 06:25:30 2023.
