 Gaussian 16, Revision A.03,
 Gaussian 16:  ES64L-G16RevA.03 25-Dec-2016

 ------------------
 #p CCSD(T)/CEP-31G
 ------------------

 ------------
 H2O_H2O_4819
 ------------
 Symbolic Z-matrix:
 Charge =  0 Multiplicity = 1

                         Standard orientation:
 ---------------------------------------------------------------------
 Center     Atomic      Atomic             Coordinates (Angstroms)
 Number     Number       Type             X           Y           Z
 ---------------------------------------------------------------------
      1          8           0        0.054136   -3.314401    0.000000
      2          1           0       -0.746227   -3.884422    0.000000
      3          1           0        0.852913   -3.886643    0.000000
      4          8           0        0.054136    3.391760    0.000000
      5          1           0       -0.228367    4.332876    0.000000
      6          1           0       -0.744496    2.819315    0.000000
 ---------------------------------------------------------------------

 SCF Done:  E(RHF) =  -33.6516787932     A.U. after   11 cycles
 E2 =    -0.2283887700D+00 EUMP2 =    -0.33880067563213D+02
 CCSD(T)
 CCSD(T)= -0.33897070927D+02

 The electronic state is 1-A'.
 Alpha  occ. eigenvalues --   -1.35526  -1.35018  -0.71159  -0.70641  -0.55255
 Alpha  occ. eigenvalues --   -0.54741  -0.50096  -0.49588
 Alpha virt. eigenvalues --    0.20239   0.20760   0.30478   0.30992   0.80455
 Alpha virt. eigenvalues --    0.80958   0.83491   0.84003   0.86599   0.87151
 Alpha virt. eigenvalues --    1.17371   1.17877   1.21830   1.22343   2.57390

 Mulliken charges:
               1
     1  O   -0.740738
     2  H    0.369235
     3  H    0.371503
     4  O   -0.740513
     5  H    0.367933
     6  H    0.372580
 Sum of Mulliken charges =   0.00000

 Dipole moment (field-independent basis, Debye):
    X=             -2.4998    Y=             -1.8067    Z=              0.0000  Tot=              3.0843
 Quadrupole moment (field-independent basis, Debye-Ang):
   XX=             -9.9429   YY=             13.1185   ZZ=            -14.9885
   XY=             -8.0489   XZ=              0.0000   YZ=              0.0000

 MP4DQ=-33.891426\MP4SDQ=-33.8934539\CCSD=-33.8945095\CCSD(T)=-33.89707
 Normal termination of Gaussian 16 at Sun Dec 10 07:08:29 2023.
