 Gaussian 16, Revision A.03,
 Gaussian 16:  ES64L-G16RevA.03 25-Dec-2016

 ------------------
 #p CCSD(T)/CEP-31G
 ------------------

 -----------
 H2O_H2O_707
 -----------
 Symbolic Z-matrix:
 Charge =  0 Multiplicity = 1

                         Standard orientation:
 ---------------------------------------------------------------------
 Center     Atomic      Atomic             Coordinates (Angstroms)
 Number     Number       Type             X           Y           Z
 ---------------------------------------------------------------------
      1          8           0        0.025271   -1.169536    0.000000
      2          1           0       -0.775355   -1.739188    0.000000
      3          1           0        0.823784   -1.742147    0.000000
      4          8           0        0.025271    1.181223    0.000000
      5          1           0        0.491381    2.046236    0.000000
      6          1           0       -0.944153    1.341607    0.000000
 ---------------------------------------------------------------------

 SCF Done:  E(RHF) =  -33.6264898427     A.U. after   11 cycles
 E2 =    -0.2304682270D+00 EUMP2 =    -0.33856958069720D+02
 CCSD(T)
 CCSD(T)= -0.33874362234D+02

 The electronic state is 1-A'.
 Alpha  occ. eigenvalues --   -1.32989  -1.31735  -0.68490  -0.67487  -0.55513
 Alpha  occ. eigenvalues --   -0.47767  -0.46800  -0.45688
 Alpha virt. eigenvalues --    0.21201   0.24832   0.32545   0.32986   0.79433
 Alpha virt. eigenvalues --    0.80061   0.89399   0.92876   1.01712   1.12823
 Alpha virt. eigenvalues --    1.19647   1.22831   1.24396   1.27102   2.53558

 Mulliken charges:
               1
     1  O   -0.710836
     2  H    0.344127
     3  H    0.362458
     4  O   -0.693327
     5  H    0.348370
     6  H    0.349208
 Sum of Mulliken charges =  -0.00000

 Dipole moment (field-independent basis, Debye):
    X=             -1.0559    Y=             -0.2794    Z=              0.0000  Tot=              1.0922
 Quadrupole moment (field-independent basis, Debye-Ang):
   XX=             -8.6420   YY=             -1.1773   ZZ=            -14.9999
   XY=             -0.7970   XZ=              0.0000   YZ=              0.0000

 MP4DQ=-33.8683777\MP4SDQ=-33.8705221\CCSD=-33.8716017\CCSD(T)=-33.8743
 Normal termination of Gaussian 16 at Sun Dec 10 06:37:57 2023.
