 Gaussian 16, Revision A.03,
 Gaussian 16:  ES64L-G16RevA.03 25-Dec-2016

 ------------------
 #p CCSD(T)/CEP-31G
 ------------------

 ------------
 H2O_H2O_4584
 ------------
 Symbolic Z-matrix:
 Charge =  0 Multiplicity = 1

                         Standard orientation:
 ---------------------------------------------------------------------
 Center     Atomic      Atomic             Coordinates (Angstroms)
 Number     Number       Type             X           Y           Z
 ---------------------------------------------------------------------
      1          8           0        0.031739   -3.226325    0.000000
      2          1           0       -0.768314   -3.796781    0.000000
      3          1           0        0.830827   -3.798131    0.000000
      4          8           0        0.031739    3.245522    0.000000
      5          1           0        0.380029    4.164325    0.000000
      6          1           0       -0.950358    3.277011    0.000000
 ---------------------------------------------------------------------

 SCF Done:  E(RHF) =  -33.6509267566     A.U. after   11 cycles
 E2 =    -0.2284266712D+00 EUMP2 =    -0.33879353427858D+02
 CCSD(T)
 CCSD(T)= -0.33896378602D+02

 The electronic state is 1-A'.
 Alpha  occ. eigenvalues --   -1.35146  -1.35009  -0.70775  -0.70634  -0.54833
 Alpha  occ. eigenvalues --   -0.54695  -0.49704  -0.49567
 Alpha virt. eigenvalues --    0.20578   0.20717   0.30812   0.30946   0.80849
 Alpha virt. eigenvalues --    0.80985   0.83957   0.84091   0.87037   0.87196
 Alpha virt. eigenvalues --    1.17719   1.17855   1.22184   1.22321   2.57757

 Mulliken charges:
               1
     1  O   -0.738051
     2  H    0.368253
     3  H    0.369798
     4  O   -0.737880
     5  H    0.367764
     6  H    0.370116
 Sum of Mulliken charges =  -0.00000

 Dipole moment (field-independent basis, Debye):
    X=             -1.4653    Y=             -0.4487    Z=              0.0000  Tot=              1.5325
 Quadrupole moment (field-independent basis, Debye-Ang):
   XX=             -8.6907   YY=             20.0237   ZZ=            -14.9872
   XY=             -3.9503   XZ=              0.0000   YZ=              0.0000

 \MP4DQ=-33.8907278\MP4SDQ=-33.8927577\CCSD=-33.8938147\CCSD(T)=-33.896
 Normal termination of Gaussian 16 at Sun Dec 10 07:04:10 2023.
