 Gaussian 16, Revision A.03,
 Gaussian 16:  ES64L-G16RevA.03 25-Dec-2016

 ------------------
 #p CCSD(T)/CEP-31G
 ------------------

 ------------
 H2O_H2O_1115
 ------------
 Symbolic Z-matrix:
 Charge =  0 Multiplicity = 1

                         Standard orientation:
 ---------------------------------------------------------------------
 Center     Atomic      Atomic             Coordinates (Angstroms)
 Number     Number       Type             X           Y           Z
 ---------------------------------------------------------------------
      1          8           0        0.047563   -1.361197    0.000000
      2          1           0       -0.753689   -1.929969    0.000000
      3          1           0        0.845446   -1.934684    0.000000
      4          8           0        0.047563    1.411683    0.000000
      5          1           0        0.019798    2.393892    0.000000
      6          1           0       -0.872555    1.066879    0.000000
 ---------------------------------------------------------------------

 SCF Done:  E(RHF) =  -33.6446853631     A.U. after   11 cycles
 E2 =    -0.2296204178D+00 EUMP2 =    -0.33874305780965D+02
 CCSD(T)
 CCSD(T)= -0.33891592988D+02

 The electronic state is 1-A'.
 Alpha  occ. eigenvalues --   -1.34534  -1.32539  -0.70173  -0.68171  -0.54507
 Alpha  occ. eigenvalues --   -0.51347  -0.49090  -0.46997
 Alpha virt. eigenvalues --    0.20083   0.24412   0.31235   0.32950   0.78601
 Alpha virt. eigenvalues --    0.80208   0.84939   0.86864   0.92406   1.16027
 Alpha virt. eigenvalues --    1.18259   1.22302   1.22772   1.27732   2.61312

 Mulliken charges:
               1
     1  O   -0.731317
     2  H    0.353573
     3  H    0.375694
     4  O   -0.710049
     5  H    0.343507
     6  H    0.368591
 Sum of Mulliken charges =   0.00000

 Dipole moment (field-independent basis, Debye):
    X=             -2.0859    Y=             -1.2658    Z=              0.0000  Tot=              2.4399
 Quadrupole moment (field-independent basis, Debye-Ang):
   XX=             -9.5356   YY=              0.0443   ZZ=            -14.9903
   XY=             -2.4624   XZ=              0.0000   YZ=              0.0000

 \MP4DQ=-33.8857439\MP4SDQ=-33.8878707\CCSD=-33.8889288\CCSD(T)=-33.891
 Normal termination of Gaussian 16 at Sun Dec 10 06:45:36 2023.
