 Gaussian 16, Revision A.03,
 Gaussian 16:  ES64L-G16RevA.03 25-Dec-2016

 ------------------
 #p CCSD(T)/CEP-31G
 ------------------

 -----------
 H2O_H2O_240
 -----------
 Symbolic Z-matrix:
 Charge =  0 Multiplicity = 1

                         Standard orientation:
 ---------------------------------------------------------------------
 Center     Atomic      Atomic             Coordinates (Angstroms)
 Number     Number       Type             X           Y           Z
 ---------------------------------------------------------------------
      1          8           0        0.047600   -0.895914    0.000000
      2          1           0       -0.754498   -1.463492    0.000000
      3          1           0        0.844628   -1.470589    0.000000
      4          8           0        0.047600    0.946258    0.000000
      5          1           0        0.021298    1.928507    0.000000
      6          1           0       -0.873030    0.602825    0.000000
 ---------------------------------------------------------------------

 SCF Done:  E(RHF) =  -33.5658096293     A.U. after   11 cycles
 E2 =    -0.2339568601D+00 EUMP2 =    -0.33799766489341D+02
 CCSD(T)
 CCSD(T)= -0.33816849559D+02

 The electronic state is 1-A'.
 Alpha  occ. eigenvalues --   -1.36556  -1.29789  -0.72361  -0.68729  -0.56234
 Alpha  occ. eigenvalues --   -0.50968  -0.43863  -0.42277
 Alpha virt. eigenvalues --    0.20041   0.28152   0.30946   0.33657   0.80220
 Alpha virt. eigenvalues --    0.84796   0.89752   0.96106   0.98071   1.18148
 Alpha virt. eigenvalues --    1.20264   1.25769   1.27647   1.34089   2.57374

 Mulliken charges:
               1
     1  O   -0.770763
     2  H    0.347068
     3  H    0.397845
     4  O   -0.649585
     5  H    0.322658
     6  H    0.352778
 Sum of Mulliken charges =  -0.00000

 Dipole moment (field-independent basis, Debye):
    X=             -1.7944    Y=             -1.2641    Z=              0.0000  Tot=              2.1949
 Quadrupole moment (field-independent basis, Debye-Ang):
   XX=             -9.6017   YY=             -5.9111   ZZ=            -14.9779
   XY=             -1.4792   XZ=              0.0000   YZ=              0.0000

 \MP4DQ=-33.8103886\MP4SDQ=-33.8128608\CCSD=-33.8136999\CCSD(T)=-33.816
 Normal termination of Gaussian 16 at Sun Dec 10 06:29:14 2023.
