 Gaussian 16, Revision A.03,
 Gaussian 16:  ES64L-G16RevA.03 25-Dec-2016

 ------------------
 #p CCSD(T)/CEP-31G
 ------------------

 ------------
 H2O_H2O_1383
 ------------
 Symbolic Z-matrix:
 Charge =  0 Multiplicity = 1

                         Standard orientation:
 ---------------------------------------------------------------------
 Center     Atomic      Atomic             Coordinates (Angstroms)
 Number     Number       Type             X           Y           Z
 ---------------------------------------------------------------------
      1          8           0        0.028569   -1.526611    0.000000
      2          1           0       -0.771916   -2.096461    0.000000
      3          1           0        0.827224   -2.099024    0.000000
      4          8           0        0.028569    1.541823    0.000000
      5          1           0        0.436885    2.435570    0.000000
      6          1           0       -0.949293    1.638220    0.000000
 ---------------------------------------------------------------------

 SCF Done:  E(RHF) =  -33.6429868149     A.U. after   11 cycles
 E2 =    -0.2291969087D+00 EUMP2 =    -0.33872183723639D+02
 CCSD(T)
 CCSD(T)= -0.33889494842D+02

 The electronic state is 1-A'.
 Alpha  occ. eigenvalues --   -1.33697  -1.33187  -0.69315  -0.68781  -0.53842
 Alpha  occ. eigenvalues --   -0.51537  -0.48229  -0.47572
 Alpha virt. eigenvalues --    0.20902   0.23028   0.31905   0.32334   0.76993
 Alpha virt. eigenvalues --    0.79884   0.83349   0.85526   0.94115   1.10394
 Alpha virt. eigenvalues --    1.18865   1.20229   1.23578   1.23931   2.59662

 Mulliken charges:
               1
     1  O   -0.715696
     2  H    0.352499
     3  H    0.362962
     4  O   -0.710827
     5  H    0.350373
     6  H    0.360689
 Sum of Mulliken charges =   0.00000

 Dipole moment (field-independent basis, Debye):
    X=             -1.2771    Y=             -0.3794    Z=              0.0000  Tot=              1.3323
 Quadrupole moment (field-independent basis, Debye-Ang):
   XX=             -8.6611   YY=              3.1277   ZZ=            -14.9850
   XY=             -1.3658   XZ=              0.0000   YZ=              0.0000

 \MP4DQ=-33.8837028\MP4SDQ=-33.885795\CCSD=-33.8868639\CCSD(T)=-33.8894
 Normal termination of Gaussian 16 at Sun Dec 10 06:50:36 2023.
