 Gaussian 16, Revision A.03,
 Gaussian 16:  ES64L-G16RevA.03 25-Dec-2016

 ------------------
 #p CCSD(T)/CEP-31G
 ------------------

 -----------
 H2O_H2O_964
 -----------
 Symbolic Z-matrix:
 Charge =  0 Multiplicity = 1

                         Standard orientation:
 ---------------------------------------------------------------------
 Center     Atomic      Atomic             Coordinates (Angstroms)
 Number     Number       Type             X           Y           Z
 ---------------------------------------------------------------------
      1          8           0        0.045377   -1.284716    0.000000
      2          1           0       -0.755895   -1.853459    0.000000
      3          1           0        0.843240   -1.858232    0.000000
      4          8           0        0.045377    1.329135    0.000000
      5          1           0        0.081947    2.311057    0.000000
      6          1           0       -0.895332    1.045282    0.000000
 ---------------------------------------------------------------------

 SCF Done:  E(RHF) =  -33.6412448190     A.U. after   11 cycles
 E2 =    -0.2299046247D+00 EUMP2 =    -0.33871149443615D+02
 CCSD(T)
 CCSD(T)= -0.33888491321D+02

 The electronic state is 1-A'.
 Alpha  occ. eigenvalues --   -1.34235  -1.32289  -0.69868  -0.67986  -0.54584
 Alpha  occ. eigenvalues --   -0.50459  -0.48822  -0.46665
 Alpha virt. eigenvalues --    0.20250   0.24728   0.31483   0.32993   0.78522
 Alpha virt. eigenvalues --    0.82834   0.85480   0.87808   0.94358   1.16328
 Alpha virt. eigenvalues --    1.18670   1.22373   1.23106   1.28904   2.59546

 Mulliken charges:
               1
     1  O   -0.730808
     2  H    0.351179
     3  H    0.375271
     4  O   -0.701965
     5  H    0.342259
     6  H    0.364064
 Sum of Mulliken charges =   0.00000

 Dipole moment (field-independent basis, Debye):
    X=             -1.9644    Y=             -1.1082    Z=              0.0000  Tot=              2.2555
 Quadrupole moment (field-independent basis, Debye-Ang):
   XX=             -9.4260   YY=             -0.5264   ZZ=            -14.9913
   XY=             -2.1133   XZ=              0.0000   YZ=              0.0000

 MP4DQ=-33.882595\MP4SDQ=-33.8847363\CCSD=-33.8858005\CCSD(T)=-33.88849
 Normal termination of Gaussian 16 at Sun Dec 10 06:42:47 2023.
