 Gaussian 16, Revision A.03,
 Gaussian 16:  ES64L-G16RevA.03 25-Dec-2016

 ------------------
 #p CCSD(T)/CEP-31G
 ------------------

 ------------
 H2O_H2O_2624
 ------------
 Symbolic Z-matrix:
 Charge =  0 Multiplicity = 1

                         Standard orientation:
 ---------------------------------------------------------------------
 Center     Atomic      Atomic             Coordinates (Angstroms)
 Number     Number       Type             X           Y           Z
 ---------------------------------------------------------------------
      1          8           0        0.057242   -2.124478    0.000000
      2          1           0       -0.743614   -2.693807    0.000000
      3          1           0        0.855524   -2.697411    0.000000
      4          8           0        0.057242    2.238447    0.000000
      5          1           0       -0.512087    3.039303    0.000000
      6          1           0       -0.515691    1.440164    0.000000
 ---------------------------------------------------------------------

 SCF Done:  E(RHF) =  -33.6531497895     A.U. after   11 cycles
 E2 =    -0.2284285686D+00 EUMP2 =    -0.33881578358019D+02
 CCSD(T)
 CCSD(T)= -0.33898541957D+02

 The electronic state is 1-A'.
 Alpha  occ. eigenvalues --   -1.35980  -1.34098  -0.71619  -0.69683  -0.55795
 Alpha  occ. eigenvalues --   -0.53855  -0.50570  -0.48687
 Alpha virt. eigenvalues --    0.19530   0.22068   0.30070   0.32101   0.79976
 Alpha virt. eigenvalues --    0.81837   0.82153   0.85368   0.85949   0.88876
 Alpha virt. eigenvalues --    1.16975   1.19054   1.21377   1.24264   2.56810

 Mulliken charges:
               1
     1  O   -0.745551
     2  H    0.369242
     3  H    0.376718
     4  O   -0.745224
     5  H    0.362260
     6  H    0.382555
 Sum of Mulliken charges =  -0.00000

 Dipole moment (field-independent basis, Debye):
    X=             -2.6231    Y=             -2.7332    Z=              0.0000  Tot=              3.7883
 Quadrupole moment (field-independent basis, Debye-Ang):
   XX=            -10.1571   YY=              1.1493   ZZ=            -14.9920
   XY=             -6.1233   XZ=              0.0000   YZ=              0.0000

 6\MP4DQ=-33.892896\MP4SDQ=-33.89493\CCSD=-33.8959755\CCSD(T)=-33.89854
 Normal termination of Gaussian 16 at Sun Dec 10 06:27:02 2023.
