 Gaussian 16, Revision A.03,
 Gaussian 16:  ES64L-G16RevA.03 25-Dec-2016

 ------------------
 #p CCSD(T)/CEP-31G
 ------------------

 ------------
 H2O_H2O_4244
 ------------
 Symbolic Z-matrix:
 Charge =  0 Multiplicity = 1

                         Standard orientation:
 ---------------------------------------------------------------------
 Center     Atomic      Atomic             Coordinates (Angstroms)
 Number     Number       Type             X           Y           Z
 ---------------------------------------------------------------------
      1          8           0        0.054141   -3.008603    0.000000
      2          1           0       -0.746301   -3.578513    0.000000
      3          1           0        0.852839   -3.580956    0.000000
      4          8           0        0.054141    3.085947    0.000000
      5          1           0       -0.228230    4.027102    0.000000
      6          1           0       -0.744570    2.513613    0.000000
 ---------------------------------------------------------------------

 SCF Done:  E(RHF) =  -33.6516411102     A.U. after   11 cycles
 E2 =    -0.2283967136D+00 EUMP2 =    -0.33880037823823D+02
 CCSD(T)
 CCSD(T)= -0.33897042172D+02

 The electronic state is 1-A'.
 Alpha  occ. eigenvalues --   -1.35510  -1.34888  -0.71143  -0.70507  -0.55237
 Alpha  occ. eigenvalues --   -0.54608  -0.50080  -0.49458
 Alpha virt. eigenvalues --    0.20253   0.20892   0.30492   0.31120   0.80473
 Alpha virt. eigenvalues --    0.81085   0.83509   0.84137   0.86617   0.87303
 Alpha virt. eigenvalues --    1.17385   1.18003   1.21844   1.22473   2.57406

 Mulliken charges:
               1
     1  O   -0.740615
     2  H    0.368822
     3  H    0.371794
     4  O   -0.740259
     5  H    0.367093
     6  H    0.373166
 Sum of Mulliken charges =  -0.00000

 Dipole moment (field-independent basis, Debye):
    X=             -2.4978    Y=             -1.8115    Z=              0.0000  Tot=              3.0856
 Quadrupole moment (field-independent basis, Debye-Ang):
   XX=             -9.9419   YY=             10.9549   ZZ=            -14.9885
   XY=             -7.2906   XZ=              0.0000   YZ=              0.0000

 P4DQ=-33.8913969\MP4SDQ=-33.893425\CCSD=-33.8944804\CCSD(T)=-33.897042
 Normal termination of Gaussian 16 at Sun Dec 10 06:56:29 2023.
