 Gaussian 16, Revision A.03,
 Gaussian 16:  ES64L-G16RevA.03 25-Dec-2016

 ------------------
 #p CCSD(T)/CEP-31G
 ------------------

 ------------
 H2O_H2O_3034
 ------------
 Symbolic Z-matrix:
 Charge =  0 Multiplicity = 1

                         Standard orientation:
 ---------------------------------------------------------------------
 Center     Atomic      Atomic             Coordinates (Angstroms)
 Number     Number       Type             X           Y           Z
 ---------------------------------------------------------------------
      1          8           0        0.031741   -2.401988    0.000000
      2          1           0       -0.768476   -2.972214    0.000000
      3          1           0        0.830665   -2.974025    0.000000
      4          8           0        0.031741    2.421166    0.000000
      5          1           0        0.380297    3.339869    0.000000
      6          1           0       -0.950346    2.452940    0.000000
 ---------------------------------------------------------------------

 SCF Done:  E(RHF) =  -33.6496878158     A.U. after   11 cycles
 E2 =    -0.2285159109D+00 EUMP2 =    -0.33878203726644D+02
 CCSD(T)
 CCSD(T)= -0.33895264967D+02

 The electronic state is 1-A'.
 Alpha  occ. eigenvalues --   -1.34793  -1.34541  -0.70418  -0.70157  -0.54410
 Alpha  occ. eigenvalues --   -0.54151  -0.49333  -0.49083
 Alpha virt. eigenvalues --    0.20835   0.21145   0.31094   0.31335   0.81208
 Alpha virt. eigenvalues --    0.81477   0.83620   0.85379   0.87468   0.87989
 Alpha virt. eigenvalues --    1.18021   1.18269   1.22498   1.22746   2.58089

 Mulliken charges:
               1
     1  O   -0.733807
     2  H    0.365163
     3  H    0.368647
     4  O   -0.733138
     5  H    0.364128
     6  H    0.369007
 Sum of Mulliken charges =   0.00000

 Dipole moment (field-independent basis, Debye):
    X=             -1.4586    Y=             -0.4541    Z=              0.0000  Tot=              1.5277
 Quadrupole moment (field-independent basis, Debye-Ang):
   XX=             -8.7046   YY=             11.9109   ZZ=            -14.9861
   XY=             -2.7650   XZ=              0.0000   YZ=              0.0000

 \MP4DQ=-33.8896035\MP4SDQ=-33.8916375\CCSD=-33.8926956\CCSD(T)=-33.895
 Normal termination of Gaussian 16 at Sun Dec 10 06:34:33 2023.
