 Gaussian 16, Revision A.03,
 Gaussian 16:  ES64L-G16RevA.03 25-Dec-2016

 ------------------
 #p CCSD(T)/CEP-31G
 ------------------

 ------------
 H2O_H2O_1934
 ------------
 Symbolic Z-matrix:
 Charge =  0 Multiplicity = 1

                         Standard orientation:
 ---------------------------------------------------------------------
 Center     Atomic      Atomic             Coordinates (Angstroms)
 Number     Number       Type             X           Y           Z
 ---------------------------------------------------------------------
      1          8           0        0.031745   -1.816980    0.000000
      2          1           0       -0.768679   -2.386915    0.000000
      3          1           0        0.830461   -2.389307    0.000000
      4          8           0        0.031745    1.836135    0.000000
      5          1           0        0.380634    2.754712    0.000000
      6          1           0       -0.950331    1.868264    0.000000
 ---------------------------------------------------------------------

 SCF Done:  E(RHF) =  -33.6470434551     A.U. after   11 cycles
 E2 =    -0.2288064247D+00 EUMP2 =    -0.33875849879806D+02
 CCSD(T)
 CCSD(T)= -0.33893002561D+02

 The electronic state is 1-A'.
 Alpha  occ. eigenvalues --   -1.34271  -1.33822  -0.69895  -0.69419  -0.53929
 Alpha  occ. eigenvalues --   -0.53061  -0.48784  -0.48322
 Alpha virt. eigenvalues --    0.20783   0.22139   0.31484   0.31896   0.77041
 Alpha virt. eigenvalues --    0.80901   0.83084   0.85787   0.89566   0.98911
 Alpha virt. eigenvalues --    1.18435   1.18984   1.22967   1.23429   2.58093

 Mulliken charges:
               1
     1  O   -0.725125
     2  H    0.358956
     3  H    0.366316
     4  O   -0.722845
     5  H    0.356669
     6  H    0.366029
 Sum of Mulliken charges =  -0.00000

 Dipole moment (field-independent basis, Debye):
    X=             -1.4424    Y=             -0.4690    Z=              0.0000  Tot=              1.5167
 Quadrupole moment (field-independent basis, Debye-Ang):
   XX=             -8.7370   YY=              6.0432   ZZ=            -14.9848
   XY=             -1.9479   XZ=              0.0000   YZ=              0.0000

 \MP4DQ=-33.8872947\MP4SDQ=-33.8893534\CCSD=-33.8904089\CCSD(T)=-33.893
 Normal termination of Gaussian 16 at Sun Dec 10 07:01:08 2023.
