 Gaussian 16, Revision A.03,
 Gaussian 16:  ES64L-G16RevA.03 25-Dec-2016

 ------------------
 #p CCSD(T)/CEP-31G
 ------------------

 -----------
 H2O_H2O_259
 -----------
 Symbolic Z-matrix:
 Charge =  0 Multiplicity = 1

                         Standard orientation:
 ---------------------------------------------------------------------
 Center     Atomic      Atomic             Coordinates (Angstroms)
 Number     Number       Type             X           Y           Z
 ---------------------------------------------------------------------
      1          8           0        0.031758   -0.926201    0.000000
      2          1           0       -0.769476   -1.494996    0.000000
      3          1           0        0.829659   -1.499664    0.000000
      4          8           0        0.031758    0.945266    0.000000
      5          1           0        0.381955    1.863345    0.000000
      6          1           0       -0.950271    0.978793    0.000000
 ---------------------------------------------------------------------

 SCF Done:  E(RHF) =  -33.5708232856     A.U. after   11 cycles
 E2 =    -0.2337337973D+00 EUMP2 =    -0.33804557082881D+02
 CCSD(T)
 CCSD(T)= -0.33821617912D+02

 The electronic state is 1-A'.
 Alpha  occ. eigenvalues --   -1.34704  -1.29950  -0.69872  -0.67008  -0.59392
 Alpha  occ. eigenvalues --   -0.49555  -0.43658  -0.39768
 Alpha virt. eigenvalues --    0.20886   0.27194   0.32004   0.33446   0.81064
 Alpha virt. eigenvalues --    0.82652   0.89926   0.94811   1.00687   1.19603
 Alpha virt. eigenvalues --    1.20359   1.24496   1.26905   1.32088   2.50450

 Mulliken charges:
               1
     1  O   -0.729980
     2  H    0.339639
     3  H    0.376670
     4  O   -0.675209
     5  H    0.346449
     6  H    0.342432
 Sum of Mulliken charges =  -0.00000

 Dipole moment (field-independent basis, Debye):
    X=             -1.2023    Y=             -0.4678    Z=              0.0000  Tot=              1.2901
 Quadrupole moment (field-independent basis, Debye-Ang):
   XX=             -8.9415   YY=             -5.1770   ZZ=            -15.0088
   XY=             -0.7945   XZ=              0.0000   YZ=              0.0000

 MP4DQ=-33.8152209\MP4SDQ=-33.8176358\CCSD=-33.818527\CCSD(T)=-33.82161
 Normal termination of Gaussian 16 at Sun Dec 10 06:29:36 2023.
