 Gaussian 16, Revision A.03,
 Gaussian 16:  ES64L-G16RevA.03 25-Dec-2016

 ------------------
 #p CCSD(T)/CEP-31G
 ------------------

 ------------
 H2O_H2O_1168
 ------------
 Symbolic Z-matrix:
 Charge =  0 Multiplicity = 1

                         Standard orientation:
 ---------------------------------------------------------------------
 Center     Atomic      Atomic             Coordinates (Angstroms)
 Number     Number       Type             X           Y           Z
 ---------------------------------------------------------------------
      1          8           0        0.052879   -1.377096    0.000000
      2          1           0       -0.748525   -1.945653    0.000000
      3          1           0        0.850609   -1.950797    0.000000
      4          8           0        0.052879    1.447270    0.000000
      5          1           0       -0.165715    2.405249    0.000000
      6          1           0       -0.782430    0.929810    0.000000
 ---------------------------------------------------------------------

 SCF Done:  E(RHF) =  -33.6480955753     A.U. after   11 cycles
 E2 =    -0.2295391274D+00 EUMP2 =    -0.33877634702659D+02
 CCSD(T)
 CCSD(T)= -0.33894823232D+02

 The electronic state is 1-A'.
 Alpha  occ. eigenvalues --   -1.35227  -1.32459  -0.70877  -0.68136  -0.54900
 Alpha  occ. eigenvalues --   -0.51866  -0.49792  -0.46989
 Alpha virt. eigenvalues --    0.19648   0.24764   0.30676   0.33440   0.78259
 Alpha virt. eigenvalues --    0.78909   0.86463   0.86575   0.90974   1.15392
 Alpha virt. eigenvalues --    1.17843   1.21226   1.22458   1.28336   2.60441

 Mulliken charges:
               1
     1  O   -0.740689
     2  H    0.357779
     3  H    0.382121
     4  O   -0.719956
     5  H    0.342919
     6  H    0.377827
 Sum of Mulliken charges =  -0.00000

 Dipole moment (field-independent basis, Debye):
    X=             -2.3274    Y=             -1.7733    Z=              0.0000  Tot=              2.9260
 Quadrupole moment (field-independent basis, Debye-Ang):
   XX=             -9.8459   YY=             -0.6769   ZZ=            -14.9931
   XY=             -3.1059   XZ=              0.0000   YZ=              0.0000

 7\MP4DQ=-33.8889889\MP4SDQ=-33.8911151\CCSD=-33.8921579\CCSD(T)=-33.89
 Normal termination of Gaussian 16 at Sun Dec 10 06:46:35 2023.
