 Gaussian 16, Revision A.03,
 Gaussian 16:  ES64L-G16RevA.03 25-Dec-2016

 ------------------
 #p CCSD(T)/CEP-31G
 ------------------

 -----------
 H2O_H2O_202
 -----------
 Symbolic Z-matrix:
 Charge =  0 Multiplicity = 1

                         Standard orientation:
 ---------------------------------------------------------------------
 Center     Atomic      Atomic             Coordinates (Angstroms)
 Number     Number       Type             X           Y           Z
 ---------------------------------------------------------------------
      1          8           0        0.007455   -0.909441    0.000000
      2          1           0       -0.792518   -1.480009    0.000000
      3          1           0        0.806623   -1.481136    0.000000
      4          8           0        0.007455    0.910408    0.000000
      5          1           0        0.726111    1.580512    0.000000
      6          1           0       -0.859498    1.372900    0.000000
 ---------------------------------------------------------------------

 SCF Done:  E(RHF) =  -33.5491494538     A.U. after   11 cycles
 E2 =    -0.2349316457D+00 EUMP2 =    -0.33784081099485D+02
 CCSD(T)
 CCSD(T)= -0.33800891021D+02

 The electronic state is 1-A'.
 Alpha  occ. eigenvalues --   -1.34480  -1.29557  -0.69023  -0.65806  -0.62256
 Alpha  occ. eigenvalues --   -0.49437  -0.43050  -0.36499
 Alpha virt. eigenvalues --    0.21426   0.27259   0.32404   0.33645   0.79010
 Alpha virt. eigenvalues --    0.81801   0.89908   0.90556   1.06722   1.20328
 Alpha virt. eigenvalues --    1.21227   1.24065   1.28120   1.31739   2.48604

 Mulliken charges:
               1
     1  O   -0.698015
     2  H    0.343200
     3  H    0.354112
     4  O   -0.694987
     5  H    0.349614
     6  H    0.346077
 Sum of Mulliken charges =  -0.00000

 Dipole moment (field-independent basis, Debye):
    X=             -0.2768    Y=             -0.0248    Z=              0.0000  Tot=              0.2779
 Quadrupole moment (field-independent basis, Debye-Ang):
   XX=             -8.4500   YY=             -5.6993   ZZ=            -15.0370
   XY=             -0.1554   XZ=              0.0000   YZ=              0.0000

 4DQ=-33.7943703\MP4SDQ=-33.7968603\CCSD=-33.7976841\CCSD(T)=-33.800891
 Normal termination of Gaussian 16 at Sun Dec 10 06:28:31 2023.
