 Gaussian 16, Revision A.03,
 Gaussian 16:  ES64L-G16RevA.03 25-Dec-2016

 ------------------
 #p CCSD(T)/CEP-31G
 ------------------

 ----------
 H2O_H2O_95
 ----------
 Symbolic Z-matrix:
 Charge =  0 Multiplicity = 1

                         Standard orientation:
 ---------------------------------------------------------------------
 Center     Atomic      Atomic             Coordinates (Angstroms)
 Number     Number       Type             X           Y           Z
 ---------------------------------------------------------------------
      1          8           0        0.055406   -0.797837    0.000000
      2          1           0       -0.747382   -1.364439    0.000000
      3          1           0        0.851734   -1.373481    0.000000
      4          8           0        0.055406    0.881875    0.000000
      5          1           0       -0.284113    1.803956    0.000000
      6          1           0       -0.706729    0.261667    0.000000
 ---------------------------------------------------------------------

 SCF Done:  E(RHF) =  -33.4730843759     A.U. after   12 cycles
 E2 =    -0.2362983891D+00 EUMP2 =    -0.33709382765016D+02
 CCSD(T)
 CCSD(T)= -0.33725595302D+02

 The electronic state is 1-A'.
 Alpha  occ. eigenvalues --   -1.42651  -1.28245  -0.78804  -0.72412  -0.54968
 Alpha  occ. eigenvalues --   -0.51485  -0.42747  -0.40842
 Alpha virt. eigenvalues --    0.19087   0.28384   0.30600   0.35238   0.79298
 Alpha virt. eigenvalues --    0.82944   0.89625   0.94535   0.97158   1.17748
 Alpha virt. eigenvalues --    1.19090   1.26773   1.31133   1.39277   2.75532

 Mulliken charges:
               1
     1  O   -0.783816
     2  H    0.351463
     3  H    0.435031
     4  O   -0.644146
     5  H    0.277497
     6  H    0.363971
 Sum of Mulliken charges =  -0.00000

 Dipole moment (field-independent basis, Debye):
    X=             -1.9603    Y=             -2.3525    Z=              0.0000  Tot=              3.0622
 Quadrupole moment (field-independent basis, Debye-Ang):
   XX=            -10.0166   YY=             -8.3514   ZZ=            -14.9007
   XY=             -1.8629   XZ=              0.0000   YZ=              0.0000

 MP4DQ=-33.7186712\MP4SDQ=-33.7214391\CCSD=-33.7219859\CCSD(T)=-33.7255
 Normal termination of Gaussian 16 at Sun Dec 10 06:26:31 2023.
