 Gaussian 16, Revision A.03,
 Gaussian 16:  ES64L-G16RevA.03 25-Dec-2016

 ------------------
 #p CCSD(T)/CEP-31G
 ------------------

 ------------
 H2O_H2O_2961
 ------------
 Symbolic Z-matrix:
 Charge =  0 Multiplicity = 1

                         Standard orientation:
 ---------------------------------------------------------------------
 Center     Atomic      Atomic             Coordinates (Angstroms)
 Number     Number       Type             X           Y           Z
 ---------------------------------------------------------------------
      1          8           0        0.037677   -2.357177    0.000000
      2          1           0       -0.762674   -2.927215    0.000000
      3          1           0        0.836466   -2.929401    0.000000
      4          8           0        0.037677    2.385420    0.000000
      5          1           0        0.263560    3.341706    0.000000
      6          1           0       -0.940180    2.288963    0.000000
 ---------------------------------------------------------------------

 SCF Done:  E(RHF) =  -33.6498804337     A.U. after   11 cycles
 E2 =    -0.2285145819D+00 EUMP2 =    -0.33878395015533D+02
 CCSD(T)
 CCSD(T)= -0.33895450874D+02

 The electronic state is 1-A'.
 Alpha  occ. eigenvalues --   -1.34877  -1.34493  -0.70504  -0.70104  -0.54505
 Alpha  occ. eigenvalues --   -0.54115  -0.49420  -0.49038
 Alpha virt. eigenvalues --    0.20751   0.21214   0.31021   0.31391   0.81120
 Alpha virt. eigenvalues --    0.81519   0.83387   0.85386   0.87376   0.88201
 Alpha virt. eigenvalues --    1.17944   1.18324   1.22418   1.22802   2.58009

 Mulliken charges:
               1
     1  O   -0.734503
     2  H    0.365097
     3  H    0.369413
     4  O   -0.733541
     5  H    0.363609
     6  H    0.369925
 Sum of Mulliken charges =   0.00000

 Dipole moment (field-independent basis, Debye):
    X=             -1.7305    Y=             -0.6695    Z=              0.0000  Tot=              1.8555
 Quadrupole moment (field-independent basis, Debye-Ang):
   XX=             -8.9686   YY=             10.7445   ZZ=            -14.9864
   XY=             -3.3224   XZ=              0.0000   YZ=              0.0000

 4DQ=-33.8897907\MP4SDQ=-33.8918244\CCSD=-33.8928817\CCSD(T)=-33.895450
 Normal termination of Gaussian 16 at Sun Dec 10 06:33:16 2023.
