 Gaussian 16, Revision A.03,
 Gaussian 16:  ES64L-G16RevA.03 25-Dec-2016

 ------------------
 #p CCSD(T)/CEP-31G
 ------------------

 ------------
 H2O_H2O_4809
 ------------
 Symbolic Z-matrix:
 Charge =  0 Multiplicity = 1

                         Standard orientation:
 ---------------------------------------------------------------------
 Center     Atomic      Atomic             Coordinates (Angstroms)
 Number     Number       Type             X           Y           Z
 ---------------------------------------------------------------------
      1          8           0        0.031738   -3.345987    0.000000
      2          1           0       -0.768297   -3.916468    0.000000
      3          1           0        0.830844   -3.917769    0.000000
      4          8           0        0.031738    3.365186    0.000000
      5          1           0        0.380001    4.283999    0.000000
      6          1           0       -0.950359    3.396646    0.000000
 ---------------------------------------------------------------------

 SCF Done:  E(RHF) =  -33.6510195368     A.U. after   11 cycles
 E2 =    -0.2284205337D+00 EUMP2 =    -0.33879440070521D+02
 CCSD(T)
 CCSD(T)= -0.33896462604D+02

 The electronic state is 1-A'.
 Alpha  occ. eigenvalues --   -1.35178  -1.35051  -0.70808  -0.70677  -0.54871
 Alpha  occ. eigenvalues --   -0.54743  -0.49738  -0.49611
 Alpha virt. eigenvalues --    0.20550   0.20680   0.30785   0.30910   0.80815
 Alpha virt. eigenvalues --    0.80941   0.83914   0.84039   0.86998   0.87144
 Alpha virt. eigenvalues --    1.17690   1.17817   1.22154   1.22282   2.57726

 Mulliken charges:
               1
     1  O   -0.738376
     2  H    0.368490
     3  H    0.369886
     4  O   -0.738231
     5  H    0.368044
     6  H    0.370186
 Sum of Mulliken charges =  -0.00000

 Dipole moment (field-independent basis, Debye):
    X=             -1.4658    Y=             -0.4483    Z=              0.0000  Tot=              1.5328
 Quadrupole moment (field-independent basis, Debye-Ang):
   XX=             -8.6897   YY=             21.1943   ZZ=            -14.9873
   XY=             -4.1238   XZ=              0.0000   YZ=              0.0000

 \MP4DQ=-33.8908125\MP4SDQ=-33.8928422\CCSD=-33.8938991\CCSD(T)=-33.896
 Normal termination of Gaussian 16 at Sun Dec 10 07:08:17 2023.
