 Gaussian 16, Revision A.03,
 Gaussian 16:  ES64L-G16RevA.03 25-Dec-2016

 ------------------
 #p CCSD(T)/CEP-31G
 ------------------

 ------------
 H2O_H2O_4890
 ------------
 Symbolic Z-matrix:
 Charge =  0 Multiplicity = 1

                         Standard orientation:
 ---------------------------------------------------------------------
 Center     Atomic      Atomic             Coordinates (Angstroms)
 Number     Number       Type             X           Y           Z
 ---------------------------------------------------------------------
      1          8           0        0.047518   -3.368793    0.000000
      2          1           0       -0.752740   -3.938962    0.000000
      3          1           0        0.846401   -3.940888    0.000000
      4          8           0        0.047518    3.419445    0.000000
      5          1           0        0.018040    4.401604    0.000000
      6          1           0       -0.871996    3.073036    0.000000
 ---------------------------------------------------------------------

 SCF Done:  E(RHF) =  -33.6513930982     A.U. after   11 cycles
 E2 =    -0.2284029794D+00 EUMP2 =    -0.33879796077586D+02
 CCSD(T)
 CCSD(T)= -0.33896807792D+02

 The electronic state is 1-A'.
 Alpha  occ. eigenvalues --   -1.35374  -1.35047  -0.71005  -0.70672  -0.55087
 Alpha  occ. eigenvalues --   -0.54758  -0.49940  -0.49613
 Alpha virt. eigenvalues --    0.20375   0.20709   0.30612   0.30939   0.80613
 Alpha virt. eigenvalues --    0.80936   0.83676   0.84001   0.86773   0.87135
 Alpha virt. eigenvalues --    1.17511   1.17836   1.21972   1.22300   2.57537

 Mulliken charges:
               1
     1  O   -0.739714
     2  H    0.368867
     3  H    0.370847
     4  O   -0.739478
     5  H    0.367975
     6  H    0.371504
 Sum of Mulliken charges =   0.00000

 Dipole moment (field-independent basis, Debye):
    X=             -2.1946    Y=             -1.1825    Z=              0.0000  Tot=              2.4929
 Quadrupole moment (field-independent basis, Debye-Ang):
   XX=             -9.5038   YY=             17.2942   ZZ=            -14.9879
   XY=             -6.7426   XZ=              0.0000   YZ=              0.0000

 MP4DQ=-33.8911606\MP4SDQ=-33.8931893\CCSD=-33.8942455\CCSD(T)=-33.8968
 Normal termination of Gaussian 16 at Sun Dec 10 07:09:48 2023.
