 Gaussian 16, Revision A.03,
 Gaussian 16:  ES64L-G16RevA.03 25-Dec-2016

 ------------------
 #p CCSD(T)/CEP-31G
 ------------------

 ------------
 H2O_H2O_3373
 ------------
 Symbolic Z-matrix:
 Charge =  0 Multiplicity = 1

                         Standard orientation:
 ---------------------------------------------------------------------
 Center     Atomic      Atomic             Coordinates (Angstroms)
 Number     Number       Type             X           Y           Z
 ---------------------------------------------------------------------
      1          8           0        0.057092   -2.527391    0.000000
      2          1           0       -0.743563   -3.097002    0.000000
      3          1           0        0.855576   -3.100042    0.000000
      4          8           0        0.057092    2.633930    0.000000
      5          1           0       -0.458934    3.470126    0.000000
      6          1           0       -0.566556    1.874608    0.000000
 ---------------------------------------------------------------------

 SCF Done:  E(RHF) =  -33.6523137240     A.U. after   11 cycles
 E2 =    -0.2283816283D+00 EUMP2 =    -0.33880695352306D+02
 CCSD(T)
 CCSD(T)= -0.33897680060D+02

 The electronic state is 1-A'.
 Alpha  occ. eigenvalues --   -1.35769  -1.34557  -0.71404  -0.70164  -0.55536
 Alpha  occ. eigenvalues --   -0.54297  -0.50348  -0.49136
 Alpha virt. eigenvalues --    0.19995   0.21314   0.30270   0.31526   0.80207
 Alpha virt. eigenvalues --    0.81391   0.83100   0.84481   0.86306   0.87649
 Alpha virt. eigenvalues --    1.17155   1.18369   1.21603   1.22890   2.57146

 Mulliken charges:
               1
     1  O   -0.742996
     2  H    0.369129
     3  H    0.373889
     4  O   -0.742591
     5  H    0.365321
     6  H    0.377248
 Sum of Mulliken charges =  -0.00000

 Dipole moment (field-independent basis, Debye):
    X=             -2.6272    Y=             -2.5155    Z=              0.0000  Tot=              3.6373
 Quadrupole moment (field-independent basis, Debye-Ang):
   XX=            -10.1526   YY=              4.2296   ZZ=            -14.9901
   XY=             -7.0079   XZ=              0.0000   YZ=              0.0000

 9\MP4DQ=-33.892039\MP4SDQ=-33.8940661\CCSD=-33.895119\CCSD(T)=-33.8976
 Normal termination of Gaussian 16 at Sun Dec 10 06:40:34 2023.
