 Gaussian 16, Revision A.03,
 Gaussian 16:  ES64L-G16RevA.03 25-Dec-2016

 ------------------
 #p CCSD(T)/CEP-31G
 ------------------

 ------------
 H2O_H2O_2202
 ------------
 Symbolic Z-matrix:
 Charge =  0 Multiplicity = 1

                         Standard orientation:
 ---------------------------------------------------------------------
 Center     Atomic      Atomic             Coordinates (Angstroms)
 Number     Number       Type             X           Y           Z
 ---------------------------------------------------------------------
      1          8           0        0.007455   -1.973111    0.000000
      2          1           0       -0.792302   -2.543983    0.000000
      3          1           0        0.806840   -2.544503    0.000000
      4          8           0        0.007455    1.974083    0.000000
      5          1           0        0.725856    2.644461    0.000000
      6          1           0       -0.859674    2.436246    0.000000
 ---------------------------------------------------------------------

 SCF Done:  E(RHF) =  -33.6469956318     A.U. after   11 cycles
 E2 =    -0.2287040610D+00 EUMP2 =    -0.33875699692771D+02
 CCSD(T)
 CCSD(T)= -0.33892841925D+02

 The electronic state is 1-A'.
 Alpha  occ. eigenvalues --   -1.34122  -1.34098  -0.69743  -0.69716  -0.53805
 Alpha  occ. eigenvalues --   -0.53302  -0.48648  -0.48576
 Alpha virt. eigenvalues --    0.21072   0.21729   0.31541   0.31723   0.79578
 Alpha virt. eigenvalues --    0.81363   0.82502   0.86948   0.89561   0.92579
 Alpha virt. eigenvalues --    1.18585   1.18607   1.22973   1.23245   2.58278

 Mulliken charges:
               1
     1  O   -0.724659
     2  H    0.361625
     3  H    0.363039
     4  O   -0.724563
     5  H    0.361432
     6  H    0.363126
 Sum of Mulliken charges =   0.00000

 Dipole moment (field-independent basis, Debye):
    X=             -0.3405    Y=             -0.0236    Z=              0.0000  Tot=              0.3413
 Quadrupole moment (field-independent basis, Debye-Ang):
   XX=             -8.1310   YY=              8.6613   ZZ=            -14.9840
   XY=             -0.4635   XZ=              0.0000   YZ=              0.0000

 P4DQ=-33.8871488\MP4SDQ=-33.889197\CCSD=-33.8902567\CCSD(T)=-33.892841
 Normal termination of Gaussian 16 at Sun Dec 10 07:07:02 2023.
