 Gaussian 16, Revision A.03,
 Gaussian 16:  ES64L-G16RevA.03 25-Dec-2016

 ------------------
 #p CCSD(T)/CEP-31G
 ------------------

 ----------
 H2O_H2O_41
 ----------
 Symbolic Z-matrix:
 Charge =  0 Multiplicity = 1

                         Standard orientation:
 ---------------------------------------------------------------------
 Center     Atomic      Atomic             Coordinates (Angstroms)
 Number     Number       Type             X           Y           Z
 ---------------------------------------------------------------------
      1          8           0        0.049610   -0.786150    0.000000
      2          1           0       -0.752936   -1.353094    0.000000
      3          1           0        0.846184   -1.361454    0.000000
      4          8           0        0.049610    0.842745    0.000000
      5          1           0       -0.040104    1.821243    0.000000
      6          1           0       -0.846905    0.440544    0.000000
 ---------------------------------------------------------------------

 SCF Done:  E(RHF) =  -33.4690541463     A.U. after   12 cycles
 E2 =    -0.2377358363D+00 EUMP2 =    -0.33706789982626D+02
 CCSD(T)
 CCSD(T)= -0.33723488879D+02

 The electronic state is 1-A'.
 Alpha  occ. eigenvalues --   -1.41032  -1.28558  -0.76425  -0.71233  -0.55881
 Alpha  occ. eigenvalues --   -0.54153  -0.42902  -0.36878
 Alpha virt. eigenvalues --    0.19617   0.29349   0.30506   0.33629   0.80603
 Alpha virt. eigenvalues --    0.83173   0.88887   0.95280   0.96406   1.19188
 Alpha virt. eigenvalues --    1.22077   1.26145   1.27312   1.40460   2.65470

 Mulliken charges:
               1
     1  O   -0.763894
     2  H    0.337727
     3  H    0.407271
     4  O   -0.624960
     5  H    0.289839
     6  H    0.354016
 Sum of Mulliken charges =  -0.00000

 Dipole moment (field-independent basis, Debye):
    X=             -1.7347    Y=             -1.5133    Z=              0.0000  Tot=              2.3020
 Quadrupole moment (field-independent basis, Debye-Ang):
   XX=             -9.7355   YY=             -8.3720   ZZ=            -14.9076
   XY=             -1.3662   XZ=              0.0000   YZ=              0.0000

 DQ=-33.7165156\MP4SDQ=-33.7193511\CCSD=-33.7198673\CCSD(T)=-33.7234889
 Normal termination of Gaussian 16 at Sun Dec 10 06:25:29 2023.
