 Gaussian 16, Revision A.03,
 Gaussian 16:  ES64L-G16RevA.03 25-Dec-2016

 ------------------
 #p CCSD(T)/CEP-31G
 ------------------

 ------------
 H2O_H2O_4611
 ------------
 Symbolic Z-matrix:
 Charge =  0 Multiplicity = 1

                         Standard orientation:
 ---------------------------------------------------------------------
 Center     Atomic      Atomic             Coordinates (Angstroms)
 Number     Number       Type             X           Y           Z
 ---------------------------------------------------------------------
      1          8           0        0.037672   -3.234692    0.000000
      2          1           0       -0.762469   -3.805026    0.000000
      3          1           0        0.836672   -3.806621    0.000000
      4          8           0        0.037672    3.262963    0.000000
      5          1           0        0.263202    4.219333    0.000000
      6          1           0       -0.940150    3.166145    0.000000
 ---------------------------------------------------------------------

 SCF Done:  E(RHF) =  -33.6510519334     A.U. after   11 cycles
 E2 =    -0.2284212028D+00 EUMP2 =    -0.33879473136183D+02
 CCSD(T)
 CCSD(T)= -0.33896494701D+02

 The electronic state is 1-A'.
 Alpha  occ. eigenvalues --   -1.35209  -1.35008  -0.70838  -0.70633  -0.54902
 Alpha  occ. eigenvalues --   -0.54701  -0.49769  -0.49569
 Alpha virt. eigenvalues --    0.20522   0.20726   0.30757   0.30954   0.80784
 Alpha virt. eigenvalues --    0.80982   0.83880   0.84077   0.86965   0.87194
 Alpha virt. eigenvalues --    1.17662   1.17861   1.22126   1.22326   2.57697

 Mulliken charges:
               1
     1  O   -0.738499
     2  H    0.368347
     3  H    0.370152
     4  O   -0.738277
     5  H    0.367706
     6  H    0.370572
 Sum of Mulliken charges =   0.00000

 Dipole moment (field-independent basis, Debye):
    X=             -1.7392    Y=             -0.6607    Z=              0.0000  Tot=              1.8605
 Quadrupole moment (field-independent basis, Debye-Ang):
   XX=             -8.9581   YY=             19.0105   ZZ=            -14.9874
   XY=             -4.8216   XZ=              0.0000   YZ=              0.0000

 \MP4DQ=-33.8908448\MP4SDQ=-33.8928745\CCSD=-33.8939312\CCSD(T)=-33.896
 Normal termination of Gaussian 16 at Sun Dec 10 07:04:39 2023.
