 Gaussian 16, Revision A.03,
 Gaussian 16:  ES64L-G16RevA.03 25-Dec-2016

 ------------------
 #p CCSD(T)/CEP-31G
 ------------------

 ------------
 H2O_H2O_1370
 ------------
 Symbolic Z-matrix:
 Charge =  0 Multiplicity = 1

                         Standard orientation:
 ---------------------------------------------------------------------
 Center     Atomic      Atomic             Coordinates (Angstroms)
 Number     Number       Type             X           Y           Z
 ---------------------------------------------------------------------
      1          8           0        0.055299   -1.475783    0.000000
      2          1           0       -0.746055   -2.044411    0.000000
      3          1           0        0.853080   -2.049414    0.000000
      4          8           0        0.055299    1.560100    0.000000
      5          1           0       -0.286547    2.481320    0.000000
      6          1           0       -0.705266    0.937969    0.000000
 ---------------------------------------------------------------------

 SCF Done:  E(RHF) =  -33.6512930843     A.U. after   11 cycles
 E2 =    -0.2292107198D+00 EUMP2 =    -0.33880503804072D+02
 CCSD(T)
 CCSD(T)= -0.33897596528D+02

 The electronic state is 1-A'.
 Alpha  occ. eigenvalues --   -1.35684  -1.32704  -0.71333  -0.68323  -0.55388
 Alpha  occ. eigenvalues --   -0.52374  -0.50261  -0.47280
 Alpha virt. eigenvalues --    0.19364   0.24481   0.30287   0.33657   0.76681
 Alpha virt. eigenvalues --    0.78491   0.85251   0.86597   0.89413   1.11120
 Alpha virt. eigenvalues --    1.17110   1.20699   1.22095   1.28192   2.55915

 Mulliken charges:
               1
     1  O   -0.744518
     2  H    0.361920
     3  H    0.383518
     4  O   -0.732471
     5  H    0.346656
     6  H    0.384895
 Sum of Mulliken charges =   0.00000

 Dipole moment (field-independent basis, Debye):
    X=             -2.4651    Y=             -2.1259    Z=              0.0000  Tot=              3.2552
 Quadrupole moment (field-independent basis, Debye-Ang):
   XX=            -10.0008   YY=             -0.6215   ZZ=            -14.9942
   XY=             -3.7481   XZ=              0.0000   YZ=              0.0000

 MP4DQ=-33.8918159\MP4SDQ=-33.8939202\CCSD=-33.8949555\CCSD(T)=-33.8975
 Normal termination of Gaussian 16 at Sun Dec 10 06:50:21 2023.
