 Gaussian 16, Revision A.03,
 Gaussian 16:  ES64L-G16RevA.03 25-Dec-2016

 ------------------
 #p CCSD(T)/CEP-31G
 ------------------

 ------------
 H2O_H2O_1201
 ------------
 Symbolic Z-matrix:
 Charge =  0 Multiplicity = 1

                         Standard orientation:
 ---------------------------------------------------------------------
 Center     Atomic      Atomic             Coordinates (Angstroms)
 Number     Number       Type             X           Y           Z
 ---------------------------------------------------------------------
      1          8           0        0.003735   -1.441671    0.000000
      2          1           0       -0.795963   -2.012624    0.000000
      3          1           0        0.803179   -2.012981    0.000000
      4          8           0        0.003735    1.441913    0.000000
      5          1           0        0.764380    2.063948    0.000000
      6          1           0       -0.831362    1.959715    0.000000
 ---------------------------------------------------------------------

 SCF Done:  E(RHF) =  -33.6387867596     A.U. after   11 cycles
 E2 =    -0.2293547257D+00 EUMP2 =    -0.33868141485224D+02
 CCSD(T)
 CCSD(T)= -0.33885536404D+02

 The electronic state is 1-A'.
 Alpha  occ. eigenvalues --   -1.33130  -1.32875  -0.68719  -0.68509  -0.53822
 Alpha  occ. eigenvalues --   -0.50279  -0.47736  -0.47081
 Alpha virt. eigenvalues --    0.21356   0.23212   0.32222   0.32602   0.79781
 Alpha virt. eigenvalues --    0.80204   0.81509   0.86711   0.99811   1.08301
 Alpha virt. eigenvalues --    1.19340   1.20008   1.24091   1.24354   2.59154

 Mulliken charges:
               1
     1  O   -0.705566
     2  H    0.351951
     3  H    0.353599
     4  O   -0.705437
     5  H    0.352183
     6  H    0.353270
 Sum of Mulliken charges =   0.00000

 Dipole moment (field-independent basis, Debye):
    X=             -0.1656    Y=             -0.0060    Z=              0.0000  Tot=              0.1657
 Quadrupole moment (field-independent basis, Debye-Ang):
   XX=             -8.2048   YY=              2.5966   ZZ=            -14.9859
   XY=             -0.1480   XZ=              0.0000   YZ=              0.0000

 \MP4DQ=-33.8797071\MP4SDQ=-33.8817977\CCSD=-33.8828836\CCSD(T)=-33.885
 Normal termination of Gaussian 16 at Sun Dec 10 06:47:12 2023.
