 Gaussian 16, Revision A.03,
 Gaussian 16:  ES64L-G16RevA.03 25-Dec-2016

 ------------------
 #p CCSD(T)/CEP-31G
 ------------------

 ----------
 H2O_H2O_80
 ----------
 Symbolic Z-matrix:
 Charge =  0 Multiplicity = 1

                         Standard orientation:
 ---------------------------------------------------------------------
 Center     Atomic      Atomic             Coordinates (Angstroms)
 Number     Number       Type             X           Y           Z
 ---------------------------------------------------------------------
      1          8           0        0.018364   -0.840230    0.000000
      2          1           0       -0.782276   -1.409863    0.000000
      3          1           0        0.816863   -1.412860    0.000000
      4          8           0        0.018364    0.846224    0.000000
      5          1           0        0.593412    1.642983    0.000000
      6          1           0       -0.921824    1.131795    0.000000
 ---------------------------------------------------------------------

 SCF Done:  E(RHF) =  -33.5012860507     A.U. after   11 cycles
 E2 =    -0.2377791650D+00 EUMP2 =    -0.33739065215716D+02
 CCSD(T)
 CCSD(T)= -0.33755538872D+02

 The electronic state is 1-A'.
 Alpha  occ. eigenvalues --   -1.36595  -1.29021  -0.70682  -0.67096  -0.63503
 Alpha  occ. eigenvalues --   -0.51298  -0.42580  -0.32942
 Alpha virt. eigenvalues --    0.21031   0.28323   0.31738   0.33666   0.81094
 Alpha virt. eigenvalues --    0.82104   0.89195   0.89284   1.03046   1.19675
 Alpha virt. eigenvalues --    1.21744   1.24011   1.27617   1.37762   2.51630

 Mulliken charges:
               1
     1  O   -0.701086
     2  H    0.333380
     3  H    0.364542
     4  O   -0.683255
     5  H    0.343685
     6  H    0.342734
 Sum of Mulliken charges =   0.00000

 Dipole moment (field-independent basis, Debye):
    X=             -0.6683    Y=             -0.1696    Z=              0.0000  Tot=              0.6894
 Quadrupole moment (field-independent basis, Debye-Ang):
   XX=             -8.6834   YY=             -7.3031   ZZ=            -15.0187
   XY=             -0.4313   XZ=              0.0000   YZ=              0.0000

 4DQ=-33.7487033\MP4SDQ=-33.7514476\CCSD=-33.7520571\CCSD(T)=-33.755538
 Normal termination of Gaussian 16 at Sun Dec 10 06:26:14 2023.
