 Gaussian 16, Revision A.03,
 Gaussian 16:  ES64L-G16RevA.03 25-Dec-2016

 ------------------
 #p CCSD(T)/CEP-31G
 ------------------

 ------------
 H2O_H2O_1149
 ------------
 Symbolic Z-matrix:
 Charge =  0 Multiplicity = 1

                         Standard orientation:
 ---------------------------------------------------------------------
 Center     Atomic      Atomic             Coordinates (Angstroms)
 Number     Number       Type             X           Y           Z
 ---------------------------------------------------------------------
      1          8           0        0.057314   -1.340095    0.000000
      2          1           0       -0.744262   -1.908410    0.000000
      3          1           0        0.854870   -1.914038    0.000000
      4          8           0        0.057314    1.453919    0.000000
      5          1           0       -0.511001    2.255495    0.000000
      6          1           0       -0.516629    0.656362    0.000000
 ---------------------------------------------------------------------

 SCF Done:  E(RHF) =  -33.6545016334     A.U. after   11 cycles
 E2 =    -0.2294456983D+00 EUMP2 =    -0.33883947331741D+02
 CCSD(T)
 CCSD(T)= -0.33900830846D+02

 The electronic state is 1-A'.
 Alpha  occ. eigenvalues --   -1.36878  -1.31839  -0.72527  -0.68014  -0.56484
 Alpha  occ. eigenvalues --   -0.51687  -0.51505  -0.46444
 Alpha virt. eigenvalues --    0.18776   0.25939   0.29406   0.36607   0.77033
 Alpha virt. eigenvalues --    0.77747   0.86586   0.87171   0.94581   1.10396
 Alpha virt. eigenvalues --    1.17005   1.19938   1.22480   1.31049   2.55771

 Mulliken charges:
               1
     1  O   -0.768436
     2  H    0.369793
     3  H    0.401224
     4  O   -0.745765
     5  H    0.341264
     6  H    0.401920
 Sum of Mulliken charges =  -0.00000

 Dipole moment (field-independent basis, Debye):
    X=             -2.5201    Y=             -2.9586    Z=              0.0000  Tot=              3.8864
 Quadrupole moment (field-independent basis, Debye-Ang):
   XX=            -10.1242   YY=             -3.4417   ZZ=            -15.0051
   XY=             -4.0904   XZ=              0.0000   YZ=              0.0000

 \MP4DQ=-33.894983\MP4SDQ=-33.8971145\CCSD=-33.8981132\CCSD(T)=-33.9008
 Normal termination of Gaussian 16 at Sun Dec 10 06:46:14 2023.
