 Gaussian 16, Revision A.03,
 Gaussian 16:  ES64L-G16RevA.03 25-Dec-2016

 ------------------
 #p CCSD(T)/CEP-31G
 ------------------

 ------------
 H2O_H2O_4988
 ------------
 Symbolic Z-matrix:
 Charge =  0 Multiplicity = 1

                         Standard orientation:
 ---------------------------------------------------------------------
 Center     Atomic      Atomic             Coordinates (Angstroms)
 Number     Number       Type             X           Y           Z
 ---------------------------------------------------------------------
      1          8           0        0.042961   -3.428402    0.000000
      2          1           0       -0.757222   -3.998677    0.000000
      3          1           0        0.841919   -4.000391    0.000000
      4          8           0        0.042961    3.467222    0.000000
      5          1           0        0.141803    4.444839    0.000000
      6          1           0       -0.913873    3.243672    0.000000
 ---------------------------------------------------------------------

 SCF Done:  E(RHF) =  -33.6512888586     A.U. after   11 cycles
 E2 =    -0.2284072258D+00 EUMP2 =    -0.33879696084318D+02
 CCSD(T)
 CCSD(T)= -0.33896710853D+02

 The electronic state is 1-A'.
 Alpha  occ. eigenvalues --   -1.35314  -1.35071  -0.70945  -0.70697  -0.55021
 Alpha  occ. eigenvalues --   -0.54777  -0.49878  -0.49635
 Alpha virt. eigenvalues --    0.20430   0.20677   0.30666   0.30907   0.80675
 Alpha virt. eigenvalues --    0.80915   0.83747   0.83988   0.86841   0.87113
 Alpha virt. eigenvalues --    1.17566   1.17808   1.22028   1.22271   2.57595

 Mulliken charges:
               1
     1  O   -0.739338
     2  H    0.368805
     3  H    0.370533
     4  O   -0.739137
     5  H    0.368110
     6  H    0.371027
 Sum of Mulliken charges =   0.00000

 Dipole moment (field-independent basis, Debye):
    X=             -1.9844    Y=             -0.9059    Z=              0.0000  Tot=              2.1814
 Quadrupole moment (field-independent basis, Debye-Ang):
   XX=             -9.2349   YY=             19.4167   ZZ=            -14.9877
   XY=             -6.0366   XZ=              0.0000   YZ=              0.0000

 MP4DQ=-33.8910628\MP4SDQ=-33.8930918\CCSD=-33.8941482\CCSD(T)=-33.8967
 Normal termination of Gaussian 16 at Sun Dec 10 07:11:38 2023.
