 Gaussian 16, Revision A.03,
 Gaussian 16:  ES64L-G16RevA.03 25-Dec-2016

 ------------------
 #p CCSD(T)/CEP-31G
 ------------------

 -----------
 H2O_H2O_701
 -----------
 Symbolic Z-matrix:
 Charge =  0 Multiplicity = 1

                         Standard orientation:
 ---------------------------------------------------------------------
 Center     Atomic      Atomic             Coordinates (Angstroms)
 Number     Number       Type             X           Y           Z
 ---------------------------------------------------------------------
      1          8           0        0.003735   -1.175753    0.000000
      2          1           0       -0.795992   -1.746666    0.000000
      3          1           0        0.803150   -1.747103    0.000000
      4          8           0        0.003735    1.175995    0.000000
      5          1           0        0.764411    1.797990    0.000000
      6          1           0       -0.831336    1.693838    0.000000
 ---------------------------------------------------------------------

 SCF Done:  E(RHF) =  -33.6237467494     A.U. after   11 cycles
 E2 =    -0.2304749355D+00 EUMP2 =    -0.33854221684889D+02
 CCSD(T)
 CCSD(T)= -0.33871612351D+02

 The electronic state is 1-A'.
 Alpha  occ. eigenvalues --   -1.32686  -1.31609  -0.68135  -0.67340  -0.55584
 Alpha  occ. eigenvalues --   -0.47469  -0.46114  -0.45488
 Alpha virt. eigenvalues --    0.21572   0.24632   0.32820   0.33105   0.78510
 Alpha virt. eigenvalues --    0.79709   0.89529   0.94076   1.03208   1.12098
 Alpha virt. eigenvalues --    1.19861   1.21942   1.23991   1.26009   2.53278

 Mulliken charges:
               1
     1  O   -0.698250
     2  H    0.347642
     3  H    0.350511
     4  O   -0.697864
     5  H    0.349145
     6  H    0.348815
 Sum of Mulliken charges =   0.00000

 Dipole moment (field-independent basis, Debye):
    X=             -0.1555    Y=             -0.0057    Z=              0.0000  Tot=              0.1556
 Quadrupole moment (field-independent basis, Debye-Ang):
   XX=             -8.2786   YY=             -0.9840   ZZ=            -15.0036
   XY=             -0.1047   XZ=              0.0000   YZ=              0.0000

 MP4DQ=-33.8656319\MP4SDQ=-33.8677582\CCSD=-33.8688415\CCSD(T)=-33.8716
 Normal termination of Gaussian 16 at Sun Dec 10 06:37:50 2023.
