 Gaussian 16, Revision A.03,
 Gaussian 16:  ES64L-G16RevA.03 25-Dec-2016

 ------------------
 #p CCSD(T)/CEP-31G
 ------------------

 ------------
 H2O_H2O_2562
 ------------
 Symbolic Z-matrix:
 Charge =  0 Multiplicity = 1

                         Standard orientation:
 ---------------------------------------------------------------------
 Center     Atomic      Atomic             Coordinates (Angstroms)
 Number     Number       Type             X           Y           Z
 ---------------------------------------------------------------------
      1          8           0        0.040412   -2.141682    0.000000
      2          1           0       -0.760078   -2.711525    0.000000
      3          1           0        0.839062   -2.714101    0.000000
      4          8           0        0.040412    2.175008    0.000000
      5          1           0        0.203504    3.143979    0.000000
      6          1           0       -0.929081    2.015038    0.000000
 ---------------------------------------------------------------------

 SCF Done:  E(RHF) =  -33.6495132811     A.U. after   11 cycles
 E2 =    -0.2285703734D+00 EUMP2 =    -0.33878083654484D+02
 CCSD(T)
 CCSD(T)= -0.33895151111D+02

 The electronic state is 1-A'.
 Alpha  occ. eigenvalues --   -1.34818  -1.34265  -0.70445  -0.69867  -0.54431
 Alpha  occ. eigenvalues --   -0.53853  -0.49356  -0.48806
 Alpha virt. eigenvalues --    0.20682   0.21520   0.31055   0.31595   0.81110
 Alpha virt. eigenvalues --    0.81658   0.81819   0.85957   0.87510   0.90252
 Alpha virt. eigenvalues --    1.17989   1.18551   1.22454   1.23034   2.58044

 Mulliken charges:
               1
     1  O   -0.733289
     2  H    0.363683
     3  H    0.369652
     4  O   -0.731651
     5  H    0.361433
     6  H    0.370173
 Sum of Mulliken charges =  -0.00000

 Dipole moment (field-independent basis, Debye):
    X=             -1.8507    Y=             -0.7965    Z=              0.0000  Tot=              2.0148
 Quadrupole moment (field-independent basis, Debye-Ang):
   XX=             -9.1096   YY=              8.3244   ZZ=            -14.9864
   XY=             -3.2442   XZ=              0.0000   YZ=              0.0000

 MP4DQ=-33.8894851\MP4SDQ=-33.891522\CCSD=-33.8925781\CCSD(T)=-33.89515
 Normal termination of Gaussian 16 at Sun Dec 10 06:25:53 2023.
