 Gaussian 16, Revision A.03,
 Gaussian 16:  ES64L-G16RevA.03 25-Dec-2016

 ------------------
 #p CCSD(T)/CEP-31G
 ------------------

 ------------
 H2O_H2O_4141
 ------------
 Symbolic Z-matrix:
 Charge =  0 Multiplicity = 1

                         Standard orientation:
 ---------------------------------------------------------------------
 Center     Atomic      Atomic             Coordinates (Angstroms)
 Number     Number       Type             X           Y           Z
 ---------------------------------------------------------------------
      1          8           0        0.049502   -2.966482    0.000000
      2          1           0       -0.750880   -3.536477    0.000000
      3          1           0        0.848260   -3.538751    0.000000
      4          8           0        0.049502    3.023455    0.000000
      5          1           0       -0.043936    4.001605    0.000000
      6          1           0       -0.845476    2.617844    0.000000
 ---------------------------------------------------------------------

 SCF Done:  E(RHF) =  -33.6513057434     A.U. after   11 cycles
 E2 =    -0.2284153480D+00 EUMP2 =    -0.33879721091389D+02
 CCSD(T)
 CCSD(T)= -0.33896735215D+02

 The electronic state is 1-A'.
 Alpha  occ. eigenvalues --   -1.35356  -1.34879  -0.70987  -0.70498  -0.55064
 Alpha  occ. eigenvalues --   -0.54583  -0.49920  -0.49444
 Alpha virt. eigenvalues --    0.20388   0.20877   0.30626   0.31101   0.80633
 Alpha virt. eigenvalues --    0.81102   0.83701   0.84179   0.86797   0.87337
 Alpha virt. eigenvalues --    1.17525   1.17998   1.21987   1.22466   2.57554

 Mulliken charges:
               1
     1  O   -0.739425
     2  H    0.368254
     3  H    0.371171
     4  O   -0.738994
     5  H    0.366852
     6  H    0.372142
 Sum of Mulliken charges =   0.00000

 Dipole moment (field-independent basis, Debye):
    X=             -2.2834    Y=             -1.3350    Z=              0.0000  Tot=              2.6451
 Quadrupole moment (field-independent basis, Debye-Ang):
   XX=             -9.6287   YY=             13.1890   ZZ=            -14.9880
   XY=             -6.2213   XZ=              0.0000   YZ=              0.0000

 2\MP4DQ=-33.8910873\MP4SDQ=-33.8931163\CCSD=-33.8941723\CCSD(T)=-33.89
 Normal termination of Gaussian 16 at Sun Dec 10 06:54:41 2023.
