 Gaussian 16, Revision A.03,
 Gaussian 16:  ES64L-G16RevA.03 25-Dec-2016

 ------------------
 #p CCSD(T)/CEP-31G
 ------------------

 ------------
 H2O_H2O_1070
 ------------
 Symbolic Z-matrix:
 Charge =  0 Multiplicity = 1

                         Standard orientation:
 ---------------------------------------------------------------------
 Center     Atomic      Atomic             Coordinates (Angstroms)
 Number     Number       Type             X           Y           Z
 ---------------------------------------------------------------------
      1          8           0        0.055315   -1.316253    0.000000
      2          1           0       -0.746248   -1.884586    0.000000
      3          1           0        0.852884   -1.890177    0.000000
      4          8           0        0.055315    1.400529    0.000000
      5          1           0       -0.286193    2.321876    0.000000
      6          1           0       -0.705479    0.778678    0.000000
 ---------------------------------------------------------------------

 SCF Done:  E(RHF) =  -33.6490601605     A.U. after   11 cycles
 E2 =    -0.2297108988D+00 EUMP2 =    -0.33878771059281D+02
 CCSD(T)
 CCSD(T)= -0.33895881591D+02

 The electronic state is 1-A'.
 Alpha  occ. eigenvalues --   -1.35763  -1.32083  -0.71424  -0.67986  -0.55239
 Alpha  occ. eigenvalues --   -0.51712  -0.50348  -0.46635
 Alpha virt. eigenvalues --    0.19358   0.25478   0.30265   0.34317   0.77666
 Alpha virt. eigenvalues --    0.79868   0.87039   0.87625   0.92698   1.14886
 Alpha virt. eigenvalues --    1.18659   1.20216   1.22489   1.29480   2.61172

 Mulliken charges:
               1
     1  O   -0.751489
     2  H    0.360692
     3  H    0.390121
     4  O   -0.723846
     5  H    0.339848
     6  H    0.384674
 Sum of Mulliken charges =  -0.00000

 Dipole moment (field-independent basis, Debye):
    X=             -2.4157    Y=             -2.1552    Z=              0.0000  Tot=              3.2373
 Quadrupole moment (field-independent basis, Debye-Ang):
   XX=             -9.9985   YY=             -1.9064   ZZ=            -14.9976
   XY=             -3.3492   XZ=              0.0000   YZ=              0.0000

 \MP4DQ=-33.8900125\MP4SDQ=-33.8921553\CCSD=-33.8931822\CCSD(T)=-33.895
 Normal termination of Gaussian 16 at Sun Dec 10 06:44:46 2023.
