 Gaussian 16, Revision A.03,
 Gaussian 16:  ES64L-G16RevA.03 25-Dec-2016

 ------------------
 #p CCSD(T)/CEP-31G
 ------------------

 ------------
 H2O_H2O_3583
 ------------
 Symbolic Z-matrix:
 Charge =  0 Multiplicity = 1

                         Standard orientation:
 ---------------------------------------------------------------------
 Center     Atomic      Atomic             Coordinates (Angstroms)
 Number     Number       Type             X           Y           Z
 ---------------------------------------------------------------------
      1          8           0        0.028563   -2.696630    0.000000
      2          1           0       -0.771526   -3.267035    0.000000
      3          1           0        0.827615   -3.268489    0.000000
      4          8           0        0.028563    2.711882    0.000000
      5          1           0        0.436260    3.605913    0.000000
      6          1           0       -0.949365    2.807601    0.000000
 ---------------------------------------------------------------------

 SCF Done:  E(RHF) =  -33.6502074241     A.U. after   11 cycles
 E2 =    -0.2284733035D+00 EUMP2 =    -0.33878680727601D+02
 CCSD(T)
 CCSD(T)= -0.33895726640D+02

 The electronic state is 1-A'.
 Alpha  occ. eigenvalues --   -1.34914  -1.34756  -0.70541  -0.70378  -0.54560
 Alpha  occ. eigenvalues --   -0.54401  -0.49462  -0.49305
 Alpha virt. eigenvalues --    0.20768   0.20932   0.31001   0.31154   0.81091
 Alpha virt. eigenvalues --    0.81247   0.84153   0.84544   0.87317   0.87520
 Alpha virt. eigenvalues --    1.17921   1.18076   1.22392   1.22548   2.57975

 Mulliken charges:
               1
     1  O   -0.735559
     2  H    0.366633
     3  H    0.368927
     4  O   -0.735232
     5  H    0.365984
     6  H    0.369247
 Sum of Mulliken charges =  -0.00000

 Dipole moment (field-independent basis, Debye):
    X=             -1.3157    Y=             -0.3588    Z=              0.0000  Tot=              1.3638
 Quadrupole moment (field-independent basis, Debye-Ang):
   XX=             -8.5743   YY=             15.1899   ZZ=            -14.9865
   XY=             -2.8287   XZ=              0.0000   YZ=              0.0000

 \MP4DQ=-33.89007\MP4SDQ=-33.892102\CCSD=-33.8931599\CCSD(T)=-33.895726
 Normal termination of Gaussian 16 at Sun Dec 10 06:44:24 2023.
