 Gaussian 16, Revision A.03,
 Gaussian 16:  ES64L-G16RevA.03 25-Dec-2016

 ------------------
 #p CCSD(T)/CEP-31G
 ------------------

 ------------
 H2O_H2O_2093
 ------------
 Symbolic Z-matrix:
 Charge =  0 Multiplicity = 1

                         Standard orientation:
 ---------------------------------------------------------------------
 Center     Atomic      Atomic             Coordinates (Angstroms)
 Number     Number       Type             X           Y           Z
 ---------------------------------------------------------------------
      1          8           0        0.052850   -1.868999    0.000000
      2          1           0       -0.748082   -2.438222    0.000000
      3          1           0        0.851056   -2.442037    0.000000
      4          8           0        0.052850    1.939261    0.000000
      5          1           0       -0.166540    2.897057    0.000000
      6          1           0       -0.782029    1.421106    0.000000
 ---------------------------------------------------------------------

 SCF Done:  E(RHF) =  -33.6509609165     A.U. after   11 cycles
 E2 =    -0.2286517225D+00 EUMP2 =    -0.33879612638954D+02
 CCSD(T)
 CCSD(T)= -0.33896649542D+02

 The electronic state is 1-A'.
 Alpha  occ. eigenvalues --   -1.35331  -1.33783  -0.70967  -0.69349  -0.55021
 Alpha  occ. eigenvalues --   -0.53438  -0.49891  -0.48348
 Alpha virt. eigenvalues --    0.19864   0.22457   0.30550   0.32235   0.78142
 Alpha virt. eigenvalues --    0.80339   0.82506   0.85882   0.86918   0.96049
 Alpha virt. eigenvalues --    1.17516   1.19517   1.21897   1.24281   2.56877

 Mulliken charges:
               1
     1  O   -0.738143
     2  H    0.363950
     3  H    0.374704
     4  O   -0.734936
     5  H    0.357349
     6  H    0.377076
 Sum of Mulliken charges =   0.00000

 Dipole moment (field-independent basis, Debye):
    X=             -2.4067    Y=             -1.7089    Z=              0.0000  Tot=              2.9517
 Quadrupole moment (field-independent basis, Debye-Ang):
   XX=             -9.8434   YY=              3.3092   ZZ=            -14.9893
   XY=             -4.2602   XZ=              0.0000   YZ=              0.0000

 2\MP4DQ=-33.8909746\MP4SDQ=-33.8930227\CCSD=-33.8940683\CCSD(T)=-33.89
 Normal termination of Gaussian 16 at Sun Dec 10 07:05:04 2023.
