 Gaussian 16, Revision A.03,
 Gaussian 16:  ES64L-G16RevA.03 25-Dec-2016

 ------------------
 #p CCSD(T)/CEP-31G
 ------------------

 -----------
 H2O_H2O_381
 -----------
 Symbolic Z-matrix:
 Charge =  0 Multiplicity = 1

                         Standard orientation:
 ---------------------------------------------------------------------
 Center     Atomic      Atomic             Coordinates (Angstroms)
 Number     Number       Type             X           Y           Z
 ---------------------------------------------------------------------
      1          8           0        0.021864   -0.998359    0.000000
      2          1           0       -0.778777   -1.567989    0.000000
      3          1           0        0.820362   -1.570990    0.000000
      4          8           0        0.021864    1.006972    0.000000
      5          1           0        0.543573    1.839633    0.000000
      6          1           0       -0.934988    1.230442    0.000000
 ---------------------------------------------------------------------

 SCF Done:  E(RHF) =  -33.5937075329     A.U. after   11 cycles
 E2 =    -0.2324013227D+00 EUMP2 =    -0.33826108855630D+02
 CCSD(T)
 CCSD(T)= -0.33843282432D+02

 The electronic state is 1-A'.
 Alpha  occ. eigenvalues --   -1.33477  -1.30465  -0.68668  -0.66599  -0.58598
 Alpha  occ. eigenvalues --   -0.48412  -0.44135  -0.41587
 Alpha virt. eigenvalues --    0.21285   0.26245   0.32557   0.33378   0.79972
 Alpha virt. eigenvalues --    0.80707   0.90172   0.96072   1.02317   1.19141
 Alpha virt. eigenvalues --    1.20060   1.23342   1.26330   1.28657   2.49104

 Mulliken charges:
               1
     1  O   -0.711880
     2  H    0.341128
     3  H    0.364720
     4  O   -0.689098
     5  H    0.351196
     6  H    0.343935
 Sum of Mulliken charges =  -0.00000

 Dipole moment (field-independent basis, Debye):
    X=             -0.8505    Y=             -0.2044    Z=              0.0000  Tot=              0.8747
 Quadrupole moment (field-independent basis, Debye-Ang):
   XX=             -8.6164   YY=             -3.8542   ZZ=            -15.0192
   XY=             -0.5263   XZ=              0.0000   YZ=              0.0000

 MP4DQ=-33.8370566\MP4SDQ=-33.8393367\CCSD=-33.840322\CCSD(T)=-33.84328
 Normal termination of Gaussian 16 at Sun Dec 10 06:31:54 2023.
