 Gaussian 16, Revision A.03,
 Gaussian 16:  ES64L-G16RevA.03 25-Dec-2016

 ------------------
 #p CCSD(T)/CEP-31G
 ------------------

 ------------
 H2O_H2O_4320
 ------------
 Symbolic Z-matrix:
 Charge =  0 Multiplicity = 1

                         Standard orientation:
 ---------------------------------------------------------------------
 Center     Atomic      Atomic             Coordinates (Angstroms)
 Number     Number       Type             X           Y           Z
 ---------------------------------------------------------------------
      1          8           0        0.055232   -3.044609    0.000000
      2          1           0       -0.745217   -3.614510    0.000000
      3          1           0        0.853924   -3.616970    0.000000
      4          8           0        0.055232    3.129101    0.000000
      5          1           0       -0.288079    4.049777    0.000000
      6          1           0       -0.704343    2.505762    0.000000
 ---------------------------------------------------------------------

 SCF Done:  E(RHF) =  -33.6517499196     A.U. after   11 cycles
 E2 =    -0.2283897916D+00 EUMP2 =    -0.33880139711193D+02
 CCSD(T)
 CCSD(T)= -0.33897140891D+02

 The electronic state is 1-A'.
 Alpha  occ. eigenvalues --   -1.35562  -1.34902  -0.71194  -0.70521  -0.55295
 Alpha  occ. eigenvalues --   -0.54626  -0.50133  -0.49473
 Alpha virt. eigenvalues --    0.20207   0.20886   0.30447   0.31116   0.80419
 Alpha virt. eigenvalues --    0.81069   0.83445   0.84113   0.86558   0.87279
 Alpha virt. eigenvalues --    1.17339   1.17995   1.21797   1.22465   2.57356

 Mulliken charges:
               1
     1  O   -0.741000
     2  H    0.369052
     3  H    0.371948
     4  O   -0.740696
     5  H    0.367259
     6  H    0.373437
 Sum of Mulliken charges =  -0.00000

 Dipole moment (field-independent basis, Debye):
    X=             -2.5484    Y=             -1.9782    Z=              0.0000  Tot=              3.2261
 Quadrupole moment (field-independent basis, Debye-Ang):
   XX=            -10.0200   YY=             10.2585   ZZ=            -14.9887
   XY=             -7.6653   XZ=              0.0000   YZ=              0.0000

 MP4DQ=-33.8914965\MP4SDQ=-33.8935243\CCSD=-33.8945795\CCSD(T)=-33.8971
 Normal termination of Gaussian 16 at Sun Dec 10 06:57:49 2023.
