 Gaussian 16, Revision A.03,
 Gaussian 16:  ES64L-G16RevA.03 25-Dec-2016

 ------------------
 #p CCSD(T)/CEP-31G
 ------------------

 ------------
 H2O_H2O_2808
 ------------
 Symbolic Z-matrix:
 Charge =  0 Multiplicity = 1

                         Standard orientation:
 ---------------------------------------------------------------------
 Center     Atomic      Atomic             Coordinates (Angstroms)
 Number     Number       Type             X           Y           Z
 ---------------------------------------------------------------------
      1          8           0        0.028565   -2.284462    0.000000
      2          1           0       -0.771618   -2.854736    0.000000
      3          1           0        0.827523   -2.856452    0.000000
      4          8           0        0.028565    2.299704    0.000000
      5          1           0        0.436408    3.193668    0.000000
      6          1           0       -0.949348    2.395582    0.000000
 ---------------------------------------------------------------------

 SCF Done:  E(RHF) =  -33.6492094950     A.U. after   11 cycles
 E2 =    -0.2285489934D+00 EUMP2 =    -0.33877758488439D+02
 CCSD(T)
 CCSD(T)= -0.33894833715D+02

 The electronic state is 1-A'.
 Alpha  occ. eigenvalues --   -1.34661  -1.34439  -0.70286  -0.70054  -0.54260
 Alpha  occ. eigenvalues --   -0.54010  -0.49195  -0.48974
 Alpha virt. eigenvalues --    0.20901   0.21258   0.31199   0.31409   0.81309
 Alpha virt. eigenvalues --    0.81620   0.83000   0.86033   0.87635   0.88490
 Alpha virt. eigenvalues --    1.18133   1.18351   1.22614   1.22835   2.58210

 Mulliken charges:
               1
     1  O   -0.732168
     2  H    0.364285
     3  H    0.367890
     4  O   -0.731471
     5  H    0.363300
     6  H    0.368162
 Sum of Mulliken charges =   0.00000

 Dipole moment (field-independent basis, Debye):
    X=             -1.3109    Y=             -0.3624    Z=              0.0000  Tot=              1.3601
 Quadrupole moment (field-independent basis, Debye-Ang):
   XX=             -8.5868   YY=             11.0342   ZZ=            -14.9857
   XY=             -2.3003   XZ=              0.0000   YZ=              0.0000

 MP4DQ=-33.8891677\MP4SDQ=-33.8912035\CCSD=-33.8922619\CCSD(T)=-33.8948
 Normal termination of Gaussian 16 at Sun Dec 10 06:30:27 2023.
