 Gaussian 16, Revision A.03,
 Gaussian 16:  ES64L-G16RevA.03 25-Dec-2016

 ------------------
 #p CCSD(T)/CEP-31G
 ------------------

 ------------
 H2O_H2O_4713
 ------------
 Symbolic Z-matrix:
 Charge =  0 Multiplicity = 1

                         Standard orientation:
 ---------------------------------------------------------------------
 Center     Atomic      Atomic             Coordinates (Angstroms)
 Number     Number       Type             X           Y           Z
 ---------------------------------------------------------------------
      1          8           0        0.042962   -3.282149    0.000000
      2          1           0       -0.757248   -3.852386    0.000000
      3          1           0        0.841893   -3.854176    0.000000
      4          8           0        0.042962    3.320965    0.000000
      5          1           0        0.141850    4.298578    0.000000
      6          1           0       -0.913883    3.097460    0.000000
 ---------------------------------------------------------------------

 SCF Done:  E(RHF) =  -33.6512148844     A.U. after   11 cycles
 E2 =    -0.2284129015D+00 EUMP2 =    -0.33879627785820D+02
 CCSD(T)
 CCSD(T)= -0.33896644645D+02

 The electronic state is 1-A'.
 Alpha  occ. eigenvalues --   -1.35287  -1.35021  -0.70917  -0.70646  -0.54990
 Alpha  occ. eigenvalues --   -0.54723  -0.49850  -0.49584
 Alpha virt. eigenvalues --    0.20452   0.20723   0.30688   0.30952   0.80703
 Alpha virt. eigenvalues --    0.80965   0.83783   0.84046   0.86874   0.87174
 Alpha virt. eigenvalues --    1.17590   1.17854   1.22053   1.22319   2.57621

 Mulliken charges:
               1
     1  O   -0.739080
     2  H    0.368563
     3  H    0.370516
     4  O   -0.738834
     5  H    0.367781
     6  H    0.371053
 Sum of Mulliken charges =   0.00000

 Dipole moment (field-independent basis, Debye):
    X=             -1.9838    Y=             -0.9068    Z=              0.0000  Tot=              2.1812
 Quadrupole moment (field-independent basis, Debye-Ang):
   XX=             -9.2353   YY=             18.1207   ZZ=            -14.9877
   XY=             -5.7490   XZ=              0.0000   YZ=              0.0000

 4DQ=-33.8909961\MP4SDQ=-33.8930253\CCSD=-33.8940817\CCSD(T)=-33.896644
 Normal termination of Gaussian 16 at Sun Dec 10 07:06:31 2023.
