 Gaussian 16, Revision A.03,
 Gaussian 16:  ES64L-G16RevA.03 25-Dec-2016

 ------------------
 #p CCSD(T)/CEP-31G
 ------------------

 ------------
 H2O_H2O_1084
 ------------
 Symbolic Z-matrix:
 Charge =  0 Multiplicity = 1

                         Standard orientation:
 ---------------------------------------------------------------------
 Center     Atomic      Atomic             Coordinates (Angstroms)
 Number     Number       Type             X           Y           Z
 ---------------------------------------------------------------------
      1          8           0        0.031749   -1.364935    0.000000
      2          1           0       -0.768955   -1.934477    0.000000
      3          1           0        0.830184   -1.937655    0.000000
      4          8           0        0.031749    1.384059    0.000000
      5          1           0        0.381090    2.302464    0.000000
      6          1           0       -0.950311    1.416671    0.000000
 ---------------------------------------------------------------------

 SCF Done:  E(RHF) =  -33.6395831846     A.U. after   11 cycles
 E2 =    -0.2295880400D+00 EUMP2 =    -0.33869171224660D+02
 CCSD(T)
 CCSD(T)= -0.33886561716D+02

 The electronic state is 1-A'.
 Alpha  occ. eigenvalues --   -1.33482  -1.32669  -0.69090  -0.68280  -0.54198
 Alpha  occ. eigenvalues --   -0.50234  -0.48071  -0.46949
 Alpha virt. eigenvalues --    0.20887   0.23794   0.32070   0.32626   0.79225
 Alpha virt. eigenvalues --    0.81349   0.82214   0.87269   0.96860   1.14293
 Alpha virt. eigenvalues --    1.19034   1.22214   1.23814   1.25099   2.58234

 Mulliken charges:
               1
     1  O   -0.714730
     2  H    0.348853
     3  H    0.364154
     4  O   -0.703025
     5  H    0.347075
     6  H    0.357672
 Sum of Mulliken charges =   0.00000

 Dipole moment (field-independent basis, Debye):
    X=             -1.3912    Y=             -0.4739    Z=              0.0000  Tot=              1.4697
 Quadrupole moment (field-independent basis, Debye-Ang):
   XX=             -8.8055   YY=              1.1587   ZZ=            -14.9881
   XY=             -1.3392   XZ=              0.0000   YZ=              0.0000

 MP4DQ=-33.8807036\MP4SDQ=-33.8828158\CCSD=-33.8838965\CCSD(T)=-33.8865
 Normal termination of Gaussian 16 at Sun Dec 10 06:45:01 2023.
