 Gaussian 16, Revision A.03,
 Gaussian 16:  ES64L-G16RevA.03 25-Dec-2016

 ------------------
 #p CCSD(T)/CEP-31G
 ------------------

 ------------
 H2O_H2O_4287
 ------------
 Symbolic Z-matrix:
 Charge =  0 Multiplicity = 1

                         Standard orientation:
 ---------------------------------------------------------------------
 Center     Atomic      Atomic             Coordinates (Angstroms)
 Number     Number       Type             X           Y           Z
 ---------------------------------------------------------------------
      1          8           0        0.040404   -3.059079    0.000000
      2          1           0       -0.759812   -3.629307    0.000000
      3          1           0        0.839329   -3.631114    0.000000
      4          8           0        0.040404    3.092444    0.000000
      5          1           0        0.203030    4.061495    0.000000
      6          1           0       -0.929012    2.932008    0.000000
 ---------------------------------------------------------------------

 SCF Done:  E(RHF) =  -33.6509912525     A.U. after   11 cycles
 E2 =    -0.2284277531D+00 EUMP2 =    -0.33879419005623D+02
 CCSD(T)
 CCSD(T)= -0.33896442279D+02

 The electronic state is 1-A'.
 Alpha  occ. eigenvalues --   -1.35199  -1.34934  -0.70829  -0.70557  -0.54890
 Alpha  occ. eigenvalues --   -0.54624  -0.49759  -0.49494
 Alpha virt. eigenvalues --    0.20528   0.20797   0.30762   0.31024   0.80794
 Alpha virt. eigenvalues --    0.81055   0.83896   0.84157   0.86978   0.87284
 Alpha virt. eigenvalues --    1.17668   1.17931   1.22133   1.22397   2.57705

 Mulliken charges:
               1
     1  O   -0.738296
     2  H    0.368024
     3  H    0.370273
     4  O   -0.737979
     5  H    0.367180
     6  H    0.370799
 Sum of Mulliken charges =  -0.00000

 Dipole moment (field-independent basis, Debye):
    X=             -1.8644    Y=             -0.7810    Z=              0.0000  Tot=              2.0214
 Quadrupole moment (field-independent basis, Debye-Ang):
   XX=             -9.0975   YY=             16.7779   ZZ=            -14.9874
   XY=             -4.9186   XZ=              0.0000   YZ=              0.0000

 P4DQ=-33.8907919\MP4SDQ=-33.8928218\CCSD=-33.8938785\CCSD(T)=-33.89644
 Normal termination of Gaussian 16 at Sun Dec 10 06:57:14 2023.
