 Gaussian 16, Revision A.03,
 Gaussian 16:  ES64L-G16RevA.03 25-Dec-2016

 ------------------
 #p CCSD(T)/CEP-31G
 ------------------

 ------------
 H2O_H2O_4880
 ------------
 Symbolic Z-matrix:
 Charge =  0 Multiplicity = 1

                         Standard orientation:
 ---------------------------------------------------------------------
 Center     Atomic      Atomic             Coordinates (Angstroms)
 Number     Number       Type             X           Y           Z
 ---------------------------------------------------------------------
      1          8           0        0.018360   -3.393018    0.000000
      2          1           0       -0.781477   -3.963778    0.000000
      3          1           0        0.817665   -3.964522    0.000000
      4          8           0        0.018360    3.399063    0.000000
      5          1           0        0.592285    4.196632    0.000000
      6          1           0       -0.922230    3.683309    0.000000
 ---------------------------------------------------------------------

 SCF Done:  E(RHF) =  -33.6509029855     A.U. after   11 cycles
 E2 =    -0.2284245206D+00 EUMP2 =    -0.33879327506133D+02
 CCSD(T)
 CCSD(T)= -0.33896353410D+02

 The electronic state is 1-A'.
 Alpha  occ. eigenvalues --   -1.35110  -1.35071  -0.70739  -0.70698  -0.54796
 Alpha  occ. eigenvalues --   -0.54757  -0.49668  -0.49629
 Alpha virt. eigenvalues --    0.20612   0.20652   0.30845   0.30884   0.80886
 Alpha virt. eigenvalues --    0.80924   0.83995   0.84033   0.87076   0.87121
 Alpha virt. eigenvalues --    1.17754   1.17793   1.22219   1.22258   2.57792

 Mulliken charges:
               1
     1  O   -0.737954
     2  H    0.368584
     3  H    0.369370
     4  O   -0.737904
     5  H    0.368381
     6  H    0.369524
 Sum of Mulliken charges =  -0.00000

 Dipole moment (field-independent basis, Debye):
    X=             -0.8480    Y=             -0.1411    Z=              0.0000  Tot=              0.8597
 Quadrupole moment (field-independent basis, Debye-Ang):
   XX=             -8.2537   YY=             23.2844   ZZ=            -14.9871
   XY=             -2.3412   XZ=              0.0000   YZ=              0.0000

 P4DQ=-33.8907024\MP4SDQ=-33.8927324\CCSD=-33.8937896\CCSD(T)=-33.89635
 Normal termination of Gaussian 16 at Sun Dec 10 07:09:37 2023.
