 Gaussian 16, Revision A.03,
 Gaussian 16:  ES64L-G16RevA.03 25-Dec-2016

 ------------------
 #p CCSD(T)/CEP-31G
 ------------------

 ------------
 H2O_H2O_3924
 ------------
 Symbolic Z-matrix:
 Charge =  0 Multiplicity = 1

                         Standard orientation:
 ---------------------------------------------------------------------
 Center     Atomic      Atomic             Coordinates (Angstroms)
 Number     Number       Type             X           Y           Z
 ---------------------------------------------------------------------
      1          8           0        0.057211   -2.815833    0.000000
      2          1           0       -0.743336   -3.385596    0.000000
      3          1           0        0.855803   -3.388333    0.000000
      4          8           0        0.057211    2.929864    0.000000
      5          1           0       -0.512552    3.730411    0.000000
      6          1           0       -0.515289    2.131271    0.000000
 ---------------------------------------------------------------------

 SCF Done:  E(RHF) =  -33.6522700458     A.U. after   11 cycles
 E2 =    -0.2283660946D+00 EUMP2 =    -0.33880636140412D+02
 CCSD(T)
 CCSD(T)= -0.33897622119D+02

 The electronic state is 1-A'.
 Alpha  occ. eigenvalues --   -1.35786  -1.34760  -0.71421  -0.70376  -0.55549
 Alpha  occ. eigenvalues --   -0.54503  -0.50365  -0.49338
 Alpha virt. eigenvalues --    0.20008   0.21075   0.30254   0.31315   0.80188
 Alpha virt. eigenvalues --    0.81195   0.83153   0.84218   0.86295   0.87395
 Alpha virt. eigenvalues --    1.17137   1.18158   1.21590   1.22643   2.57137

 Mulliken charges:
               1
     1  O   -0.742848
     2  H    0.369688
     3  H    0.373162
     4  O   -0.742695
     5  H    0.366805
     6  H    0.375887
 Sum of Mulliken charges =   0.00000

 Dipole moment (field-independent basis, Debye):
    X=             -2.6367    Y=             -2.6773    Z=              0.0000  Tot=              3.7577
 Quadrupole moment (field-independent basis, Debye-Ang):
   XX=            -10.1649   YY=              4.8907   ZZ=            -14.9898
   XY=             -7.9248   XZ=              0.0000   YZ=              0.0000

 MP4DQ=-33.8919816\MP4SDQ=-33.894008\CCSD=-33.895062\CCSD(T)=-33.897622
 Normal termination of Gaussian 16 at Sun Dec 10 06:50:42 2023.
