 Gaussian 16, Revision A.03,
 Gaussian 16:  ES64L-G16RevA.03 25-Dec-2016

 ------------------
 #p CCSD(T)/CEP-31G
 ------------------

 ------------
 H2O_H2O_3798
 ------------
 Symbolic Z-matrix:
 Charge =  0 Multiplicity = 1

                         Standard orientation:
 ---------------------------------------------------------------------
 Center     Atomic      Atomic             Coordinates (Angstroms)
 Number     Number       Type             X           Y           Z
 ---------------------------------------------------------------------
      1          8           0        0.057084   -2.753412    0.000000
      2          1           0       -0.743484   -3.323146    0.000000
      3          1           0        0.855656   -3.325941    0.000000
      4          8           0        0.057084    2.859968    0.000000
      5          1           0       -0.459070    3.696085    0.000000
      6          1           0       -0.566448    2.100552    0.000000
 ---------------------------------------------------------------------

 SCF Done:  E(RHF) =  -33.6521712311     A.U. after   11 cycles
 E2 =    -0.2283748262D+00 EUMP2 =    -0.33880546057238D+02
 CCSD(T)
 CCSD(T)= -0.33897534903D+02

 The electronic state is 1-A'.
 Alpha  occ. eigenvalues --   -1.35737  -1.34725  -0.71371  -0.70340  -0.55494
 Alpha  occ. eigenvalues --   -0.54464  -0.50314  -0.49302
 Alpha virt. eigenvalues --    0.20049   0.21106   0.30297   0.31339   0.80239
 Alpha virt. eigenvalues --    0.81231   0.83209   0.84264   0.86352   0.87448
 Alpha virt. eigenvalues --    1.17182   1.18188   1.21635   1.22673   2.57183

 Mulliken charges:
               1
     1  O   -0.742501
     2  H    0.369371
     3  H    0.373133
     4  O   -0.742235
     5  H    0.366443
     6  H    0.375789
 Sum of Mulliken charges =   0.00000

 Dipole moment (field-independent basis, Debye):
    X=             -2.6303    Y=             -2.5044    Z=              0.0000  Tot=              3.6319
 Quadrupole moment (field-independent basis, Debye-Ang):
   XX=            -10.1544   YY=              5.5293   ZZ=            -14.9896
   XY=             -7.5968   XZ=              0.0000   YZ=              0.0000

 6\MP4DQ=-33.8918935\MP4SDQ=-33.8939203\CCSD=-33.8949743\CCSD(T)=-33.89
 Normal termination of Gaussian 16 at Sun Dec 10 06:48:21 2023.
