 Gaussian 16, Revision A.03,
 Gaussian 16:  ES64L-G16RevA.03 25-Dec-2016

 ------------------
 #p CCSD(T)/CEP-31G
 ------------------

 ------------
 H2O_H2O_1212
 ------------
 Symbolic Z-matrix:
 Charge =  0 Multiplicity = 1

                         Standard orientation:
 ---------------------------------------------------------------------
 Center     Atomic      Atomic             Coordinates (Angstroms)
 Number     Number       Type             X           Y           Z
 ---------------------------------------------------------------------
      1          8           0        0.040425   -1.423736    0.000000
      2          1           0       -0.760522   -1.992937    0.000000
      3          1           0        0.838616   -1.996796    0.000000
      4          8           0        0.040425    1.456997    0.000000
      5          1           0        0.204295    2.425839    0.000000
      6          1           0       -0.929196    1.297806    0.000000
 ---------------------------------------------------------------------

 SCF Done:  E(RHF) =  -33.6434471008     A.U. after   11 cycles
 E2 =    -0.2294335010D+00 EUMP2 =    -0.33872880601738D+02
 CCSD(T)
 CCSD(T)= -0.33890199521D+02

 The electronic state is 1-A'.
 Alpha  occ. eigenvalues --   -1.34048  -1.32831  -0.69675  -0.68418  -0.54195
 Alpha  occ. eigenvalues --   -0.51303  -0.48588  -0.47247
 Alpha virt. eigenvalues --    0.20483   0.23739   0.31619   0.32610   0.78723
 Alpha virt. eigenvalues --    0.79168   0.83481   0.86383   0.93425   1.14588
 Alpha virt. eigenvalues --    1.18540   1.22253   1.23236   1.25368   2.59658

 Mulliken charges:
               1
     1  O   -0.722178
     2  H    0.351952
     3  H    0.369053
     4  O   -0.708952
     5  H    0.346474
     6  H    0.363651
 Sum of Mulliken charges =   0.00000

 Dipole moment (field-independent basis, Debye):
    X=             -1.7865    Y=             -0.8301    Z=              0.0000  Tot=              1.9700
 Quadrupole moment (field-independent basis, Debye-Ang):
   XX=             -9.1617   YY=              1.3501   ZZ=            -14.9875
   XY=             -1.9833   XZ=              0.0000   YZ=              0.0000

 MP4DQ=-33.8843747\MP4SDQ=-33.8864857\CCSD=-33.8875524\CCSD(T)=-33.8901
 Normal termination of Gaussian 16 at Sun Dec 10 06:47:24 2023.
