 Gaussian 16, Revision A.03,
 Gaussian 16:  ES64L-G16RevA.03 25-Dec-2016

 ------------------
 #p CCSD(T)/CEP-31G
 ------------------

 ------------
 H2O_H2O_2193
 ------------
 Symbolic Z-matrix:
 Charge =  0 Multiplicity = 1

                         Standard orientation:
 ---------------------------------------------------------------------
 Center     Atomic      Atomic             Coordinates (Angstroms)
 Number     Number       Type             X           Y           Z
 ---------------------------------------------------------------------
      1          8           0        0.052847   -1.922179    0.000000
      2          1           0       -0.748047   -2.491454    0.000000
      3          1           0        0.851091   -2.495165    0.000000
      4          8           0        0.052847    1.992448    0.000000
      5          1           0       -0.166604    2.950230    0.000000
      6          1           0       -0.781998    1.474239    0.000000
 ---------------------------------------------------------------------

 SCF Done:  E(RHF) =  -33.6510233328     A.U. after   11 cycles
 E2 =    -0.2286113318D+00 EUMP2 =    -0.33879634664651D+02
 CCSD(T)
 CCSD(T)= -0.33896665632D+02

 The electronic state is 1-A'.
 Alpha  occ. eigenvalues --   -1.35337  -1.33878  -0.70972  -0.69449  -0.55029
 Alpha  occ. eigenvalues --   -0.53541  -0.49897  -0.48444
 Alpha virt. eigenvalues --    0.19927   0.22289   0.30556   0.32134   0.78943
 Alpha virt. eigenvalues --    0.80432   0.82309   0.85829   0.86848   0.94406
 Alpha virt. eigenvalues --    1.17519   1.19321   1.21895   1.24035   2.57087

 Mulliken charges:
               1
     1  O   -0.738380
     2  H    0.364406
     3  H    0.374382
     4  O   -0.735519
     5  H    0.358343
     6  H    0.376768
 Sum of Mulliken charges =  -0.00000

 Dipole moment (field-independent basis, Debye):
    X=             -2.4103    Y=             -1.7023    Z=              0.0000  Tot=              2.9508
 Quadrupole moment (field-independent basis, Debye-Ang):
   XX=             -9.8437   YY=              3.7162   ZZ=            -14.9892
   XY=             -4.3856   XZ=              0.0000   YZ=              0.0000

 3\MP4DQ=-33.8909971\MP4SDQ=-33.893041\CCSD=-33.894088\CCSD(T)=-33.8966
 Normal termination of Gaussian 16 at Sun Dec 10 07:06:52 2023.
