 Gaussian 16, Revision A.03,
 Gaussian 16:  ES64L-G16RevA.03 25-Dec-2016

 ------------------
 #p CCSD(T)/CEP-31G
 ------------------

 ------------
 H2O_H2O_3086
 ------------
 Symbolic Z-matrix:
 Charge =  0 Multiplicity = 1

                         Standard orientation:
 ---------------------------------------------------------------------
 Center     Atomic      Atomic             Coordinates (Angstroms)
 Number     Number       Type             X           Y           Z
 ---------------------------------------------------------------------
      1          8           0        0.037676   -2.423655    0.000000
      2          1           0       -0.762654   -2.993723    0.000000
      3          1           0        0.836487   -2.995849    0.000000
      4          8           0        0.037676    2.451901    0.000000
      5          1           0        0.263524    3.408195    0.000000
      6          1           0       -0.940177    2.355407    0.000000
 ---------------------------------------------------------------------

 SCF Done:  E(RHF) =  -33.6500282464     A.U. after   11 cycles
 E2 =    -0.2285010984D+00 EUMP2 =    -0.33878529344788D+02
 CCSD(T)
 CCSD(T)= -0.33895580803D+02

 The electronic state is 1-A'.
 Alpha  occ. eigenvalues --   -1.34913  -1.34551  -0.70540  -0.70164  -0.54549
 Alpha  occ. eigenvalues --   -0.54183  -0.49459  -0.49098
 Alpha virt. eigenvalues --    0.20738   0.21151   0.30993   0.31343   0.81088
 Alpha virt. eigenvalues --    0.81454   0.83655   0.85136   0.87328   0.87958
 Alpha virt. eigenvalues --    1.17914   1.18273   1.22387   1.22748   2.57973

 Mulliken charges:
               1
     1  O   -0.735002
     2  H    0.365502
     3  H    0.369504
     4  O   -0.734154
     5  H    0.364122
     6  H    0.370028
 Sum of Mulliken charges =   0.00000

 Dipole moment (field-independent basis, Debye):
    X=             -1.7317    Y=             -0.6683    Z=              0.0000  Tot=              1.8562
 Quadrupole moment (field-independent basis, Debye-Ang):
   XX=             -8.9672   YY=             11.3754   ZZ=            -14.9865
   XY=             -3.4349   XZ=              0.0000   YZ=              0.0000

 \MP4DQ=-33.8899221\MP4SDQ=-33.8919551\CCSD=-33.8930126\CCSD(T)=-33.895
 Normal termination of Gaussian 16 at Sun Dec 10 06:35:28 2023.
