 Gaussian 16, Revision A.03,
 Gaussian 16:  ES64L-G16RevA.03 25-Dec-2016

 ------------------
 #p CCSD(T)/CEP-31G
 ------------------

 ------------
 H2O_H2O_4767
 ------------
 Symbolic Z-matrix:
 Charge =  0 Multiplicity = 1

                         Standard orientation:
 ---------------------------------------------------------------------
 Center     Atomic      Atomic             Coordinates (Angstroms)
 Number     Number       Type             X           Y           Z
 ---------------------------------------------------------------------
      1          8           0        0.051265   -3.295298    0.000000
      2          1           0       -0.749062   -3.865370    0.000000
      3          1           0        0.850079   -3.867489    0.000000
      4          8           0        0.051265    3.358868    0.000000
      5          1           0       -0.106040    4.328796    0.000000
      6          1           0       -0.815223    2.895507    0.000000
 ---------------------------------------------------------------------

 SCF Done:  E(RHF) =  -33.6515172016     A.U. after   11 cycles
 E2 =    -0.2283977293D+00 EUMP2 =    -0.33879914930924D+02
 CCSD(T)
 CCSD(T)= -0.33896922999D+02

 The electronic state is 1-A'.
 Alpha  occ. eigenvalues --   -1.35443  -1.35016  -0.71074  -0.70639  -0.55162
 Alpha  occ. eigenvalues --   -0.54732  -0.50010  -0.49584
 Alpha virt. eigenvalues --    0.20314   0.20750   0.30552   0.30980   0.80542
 Alpha virt. eigenvalues --    0.80963   0.83593   0.84019   0.86695   0.87164
 Alpha virt. eigenvalues --    1.17448   1.17871   1.21908   1.22337   2.57471

 Mulliken charges:
               1
     1  O   -0.740161
     2  H    0.368965
     3  H    0.371196
     4  O   -0.739902
     5  H    0.367830
     6  H    0.372072
 Sum of Mulliken charges =  -0.00000

 Dipole moment (field-independent basis, Debye):
    X=             -2.3672    Y=             -1.4849    Z=              0.0000  Tot=              2.7944
 Quadrupole moment (field-independent basis, Debye-Ang):
   XX=             -9.7451   YY=             14.9269   ZZ=            -14.9882
   XY=             -7.3316   XZ=              0.0000   YZ=              0.0000

 \MP4DQ=-33.8912768\MP4SDQ=-33.8933052\CCSD=-33.894361\CCSD(T)=-33.8969
 Normal termination of Gaussian 16 at Sun Dec 10 07:07:30 2023.
