 Gaussian 16, Revision A.03,
 Gaussian 16:  ES64L-G16RevA.03 25-Dec-2016

 ------------------
 #p CCSD(T)/CEP-31G
 ------------------

 -----------
 H2O_H2O_746
 -----------
 Symbolic Z-matrix:
 Charge =  0 Multiplicity = 1

                         Standard orientation:
 ---------------------------------------------------------------------
 Center     Atomic      Atomic             Coordinates (Angstroms)
 Number     Number       Type             X           Y           Z
 ---------------------------------------------------------------------
      1          8           0        0.056202   -1.139490    0.000000
      2          1           0       -0.745686   -1.707364    0.000000
      3          1           0        0.853443   -1.713870    0.000000
      4          8           0        0.056202    1.230976    0.000000
      5          1           0       -0.344320    2.128242    0.000000
      6          1           0       -0.662676    0.561109    0.000000
 ---------------------------------------------------------------------

 SCF Done:  E(RHF) =  -33.6402614308     A.U. after   11 cycles
 E2 =    -0.2305613902D+00 EUMP2 =    -0.33870822821027D+02
 CCSD(T)
 CCSD(T)= -0.33887738730D+02

 The electronic state is 1-A'.
 Alpha  occ. eigenvalues --   -1.36474  -1.31065  -0.72192  -0.68347  -0.54498
 Alpha  occ. eigenvalues --   -0.51037  -0.50805  -0.45565
 Alpha virt. eigenvalues --    0.19158   0.26919   0.29798   0.35655   0.77096
 Alpha virt. eigenvalues --    0.83648   0.88934   0.91050   0.97420   1.13444
 Alpha virt. eigenvalues --    1.19401   1.19985   1.25175   1.30932   2.73321

 Mulliken charges:
               1
     1  O   -0.772275
     2  H    0.363301
     3  H    0.406245
     4  O   -0.710182
     5  H    0.328742
     6  H    0.384170
 Sum of Mulliken charges =  -0.00000

 Dipole moment (field-independent basis, Debye):
    X=             -2.3609    Y=             -2.4011    Z=              0.0000  Tot=              3.3674
 Quadrupole moment (field-independent basis, Debye-Ang):
   XX=            -10.0512   YY=             -3.8454   ZZ=            -15.0031
   XY=             -3.0642   XZ=              0.0000   YZ=              0.0000

 P4DQ=-33.8817185\MP4SDQ=-33.883933\CCSD=-33.8849051\CCSD(T)=-33.887738
 Normal termination of Gaussian 16 at Sun Dec 10 06:38:41 2023.
