 Gaussian 16, Revision A.03,
 Gaussian 16:  ES64L-G16RevA.03 25-Dec-2016

 ------------------
 #p CCSD(T)/CEP-31G
 ------------------

 ------------
 H2O_H2O_1429
 ------------
 Symbolic Z-matrix:
 Charge =  0 Multiplicity = 1

                         Standard orientation:
 ---------------------------------------------------------------------
 Center     Atomic      Atomic             Coordinates (Angstroms)
 Number     Number       Type             X           Y           Z
 ---------------------------------------------------------------------
      1          8           0        0.014784   -1.559365    0.000000
      2          1           0       -0.785253   -2.129845    0.000000
      3          1           0        0.813889   -2.131148    0.000000
      4          8           0        0.014784    1.563233    0.000000
      5          1           0        0.639909    2.321339    0.000000
      6          1           0       -0.905082    1.908709    0.000000
 ---------------------------------------------------------------------

 SCF Done:  E(RHF) =  -33.6421656822     A.U. after   11 cycles
 E2 =    -0.2291305119D+00 EUMP2 =    -0.33871296194136D+02
 CCSD(T)
 CCSD(T)= -0.33888616464D+02

 The electronic state is 1-A'.
 Alpha  occ. eigenvalues --   -1.33462  -1.33282  -0.69072  -0.68896  -0.53681
 Alpha  occ. eigenvalues --   -0.51439  -0.48025  -0.47605
 Alpha virt. eigenvalues --    0.21161   0.22800   0.31997   0.32328   0.77203
 Alpha virt. eigenvalues --    0.80173   0.83296   0.85366   0.95397   1.07042
 Alpha virt. eigenvalues --    1.19079   1.19512   1.23624   1.24038   2.59889

 Mulliken charges:
               1
     1  O   -0.711973
     2  H    0.353348
     3  H    0.358575
     4  O   -0.710743
     5  H    0.352932
     6  H    0.357862
 Sum of Mulliken charges =   0.00000

 Dipole moment (field-independent basis, Debye):
    X=             -0.6635    Y=             -0.0966    Z=              0.0000  Tot=              0.6705
 Quadrupole moment (field-independent basis, Debye-Ang):
   XX=             -8.2983   YY=              3.9015   ZZ=            -14.9840
   XY=             -0.6756   XZ=              0.0000   YZ=              0.0000

 MP4DQ=-33.8828306\MP4SDQ=-33.8849157\CCSD=-33.8859879\CCSD(T)=-33.8886
 Normal termination of Gaussian 16 at Sun Dec 10 06:51:28 2023.
