 Gaussian 16, Revision A.03,
 Gaussian 16:  ES64L-G16RevA.03 25-Dec-2016

 ------------------
 #p CCSD(T)/CEP-31G
 ------------------

 ------------
 H2O_H2O_3870
 ------------
 Symbolic Z-matrix:
 Charge =  0 Multiplicity = 1

                         Standard orientation:
 ---------------------------------------------------------------------
 Center     Atomic      Atomic             Coordinates (Angstroms)
 Number     Number       Type             X           Y           Z
 ---------------------------------------------------------------------
      1          8           0        0.055238   -2.805290    0.000000
      2          1           0       -0.745285   -3.375087    0.000000
      3          1           0        0.853855   -3.377754    0.000000
      4          8           0        0.055238    2.889768    0.000000
      5          1           0       -0.287954    3.810488    0.000000
      6          1           0       -0.704418    2.266527    0.000000
 ---------------------------------------------------------------------

 SCF Done:  E(RHF) =  -33.6517452197     A.U. after   11 cycles
 E2 =    -0.2283972617D+00 EUMP2 =    -0.33880142481414D+02
 CCSD(T)
 CCSD(T)= -0.33897143769D+02

 The electronic state is 1-A'.
 Alpha  occ. eigenvalues --   -1.35557  -1.34774  -0.71189  -0.70389  -0.55290
 Alpha  occ. eigenvalues --   -0.54496  -0.50127  -0.49345
 Alpha virt. eigenvalues --    0.20210   0.21020   0.30452   0.31246   0.80426
 Alpha virt. eigenvalues --    0.81194   0.83443   0.84247   0.86563   0.87431
 Alpha virt. eigenvalues --    1.17343   1.18121   1.21801   1.22596   2.57359

 Mulliken charges:
               1
     1  O   -0.740996
     2  H    0.368682
     3  H    0.372315
     4  O   -0.740546
     5  H    0.366397
     6  H    0.374148
 Sum of Mulliken charges =   0.00000

 Dipole moment (field-independent basis, Debye):
    X=             -2.5462    Y=             -1.9839    Z=              0.0000  Tot=              3.2279
 Quadrupole moment (field-independent basis, Debye-Ang):
   XX=            -10.0189   YY=              8.6406   ZZ=            -14.9888
   XY=             -7.0609   XZ=              0.0000   YZ=              0.0000

 \MP4DQ=-33.8914992\MP4SDQ=-33.8935271\CCSD=-33.894582\CCSD(T)=-33.8971
 Normal termination of Gaussian 16 at Sun Dec 10 06:49:42 2023.
