 Gaussian 16, Revision A.03,
 Gaussian 16:  ES64L-G16RevA.03 25-Dec-2016

 ------------------
 #p CCSD(T)/CEP-31G
 ------------------

 -----------
 H2O_H2O_232
 -----------
 Symbolic Z-matrix:
 Charge =  0 Multiplicity = 1

                         Standard orientation:
 ---------------------------------------------------------------------
 Center     Atomic      Atomic             Coordinates (Angstroms)
 Number     Number       Type             X           Y           Z
 ---------------------------------------------------------------------
      1          8           0        0.025274   -0.916927    0.000000
      2          1           0       -0.775640   -1.486173    0.000000
      3          1           0        0.823497   -1.489942    0.000000
      4          8           0        0.025274    0.928588    0.000000
      5          1           0        0.491822    1.793365    0.000000
      6          1           0       -0.944068    1.089464    0.000000
 ---------------------------------------------------------------------

 SCF Done:  E(RHF) =  -33.5616154053     A.U. after   11 cycles
 E2 =    -0.2342099556D+00 EUMP2 =    -0.33795825360915D+02
 CCSD(T)
 CCSD(T)= -0.33812787122D+02

 The electronic state is 1-A'.
 Alpha  occ. eigenvalues --   -1.34638  -1.29775  -0.69577  -0.66626  -0.60481
 Alpha  occ. eigenvalues --   -0.49531  -0.43394  -0.38359
 Alpha virt. eigenvalues --    0.21090   0.27221   0.32163   0.33517   0.81389
 Alpha virt. eigenvalues --    0.81396   0.89909   0.93161   1.02596   1.19820
 Alpha virt. eigenvalues --    1.21651   1.23686   1.27341   1.32102   2.49603

 Mulliken charges:
               1
     1  O   -0.717815
     2  H    0.338452
     3  H    0.370750
     4  O   -0.682685
     5  H    0.349195
     6  H    0.342103
 Sum of Mulliken charges =  -0.00000

 Dipole moment (field-independent basis, Debye):
    X=             -0.9480    Y=             -0.2899    Z=              0.0000  Tot=              0.9913
 Quadrupole moment (field-independent basis, Debye-Ang):
   XX=             -8.7518   YY=             -5.4060   ZZ=            -15.0182
   XY=             -0.5849   XZ=              0.0000   YZ=              0.0000

 P4DQ=-33.8063411\MP4SDQ=-33.8087862\CCSD=-33.8096505\CCSD(T)=-33.81278
 Normal termination of Gaussian 16 at Sun Dec 10 06:29:05 2023.
