 Gaussian 16, Revision A.03,
 Gaussian 16:  ES64L-G16RevA.03 25-Dec-2016

 ------------------
 #p CCSD(T)/CEP-31G
 ------------------

 -----------
 H2O_H2O_271
 -----------
 Symbolic Z-matrix:
 Charge =  0 Multiplicity = 1

                         Standard orientation:
 ---------------------------------------------------------------------
 Center     Atomic      Atomic             Coordinates (Angstroms)
 Number     Number       Type             X           Y           Z
 ---------------------------------------------------------------------
      1          8           0        0.056253   -0.886932    0.000000
      2          1           0       -0.746261   -1.453923    0.000000
      3          1           0        0.852860   -1.462191    0.000000
      4          8           0        0.056253    0.978294    0.000000
      5          1           0       -0.343280    1.876001    0.000000
      6          1           0       -0.663363    0.309220    0.000000
 ---------------------------------------------------------------------

 SCF Done:  E(RHF) =  -33.5575177355     A.U. after   11 cycles
 E2 =    -0.2334962802D+00 EUMP2 =    -0.33791014015716D+02
 CCSD(T)
 CCSD(T)= -0.33807300765D+02

 The electronic state is 1-A'.
 Alpha  occ. eigenvalues --   -1.39732  -1.29011  -0.76254  -0.71077  -0.53276
 Alpha  occ. eigenvalues --   -0.50933  -0.46421  -0.43409
 Alpha virt. eigenvalues --    0.19020   0.28694   0.29467   0.36275   0.78412
 Alpha virt. eigenvalues --    0.84140   0.90168   0.94552   0.98913   1.16547
 Alpha virt. eigenvalues --    1.19564   1.23498   1.31830   1.33807   2.74200

 Mulliken charges:
               1
     1  O   -0.798193
     2  H    0.362969
     3  H    0.434279
     4  O   -0.668952
     5  H    0.298146
     6  H    0.371750
 Sum of Mulliken charges =   0.00000

 Dipole moment (field-independent basis, Debye):
    X=             -2.1218    Y=             -2.5327    Z=              0.0000  Tot=              3.3040
 Quadrupole moment (field-independent basis, Debye-Ang):
   XX=            -10.0471   YY=             -6.8816   ZZ=            -14.9596
   XY=             -2.3110   XZ=              0.0000   YZ=              0.0000

 MP4DQ=-33.800791\MP4SDQ=-33.8032876\CCSD=-33.8040286\CCSD(T)=-33.80730
 Normal termination of Gaussian 16 at Sun Dec 10 06:29:49 2023.
