 Gaussian 16, Revision A.03,
 Gaussian 16:  ES64L-G16RevA.03 25-Dec-2016

 ------------------
 #p CCSD(T)/CEP-31G
 ------------------

 ------------
 H2O_H2O_4727
 ------------
 Symbolic Z-matrix:
 Charge =  0 Multiplicity = 1

                         Standard orientation:
 ---------------------------------------------------------------------
 Center     Atomic      Atomic             Coordinates (Angstroms)
 Number     Number       Type             X           Y           Z
 ---------------------------------------------------------------------
      1          8           0        0.007455   -3.315996    0.000000
      2          1           0       -0.792227   -3.886974    0.000000
      3          1           0        0.806915   -3.887283    0.000000
      4          8           0        0.007455    3.316971    0.000000
      5          1           0        0.725768    3.987443    0.000000
      6          1           0       -0.859735    3.779019    0.000000
 ---------------------------------------------------------------------

 SCF Done:  E(RHF) =  -33.6507744720     A.U. after   10 cycles
 E2 =    -0.2284309752D+00 EUMP2 =    -0.33879205447161D+02
 CCSD(T)
 CCSD(T)= -0.33896235022D+02

 The electronic state is 1-A'.
 Alpha  occ. eigenvalues --   -1.35054  -1.35047  -0.70682  -0.70675  -0.54732
 Alpha  occ. eigenvalues --   -0.54726  -0.49610  -0.49603
 Alpha virt. eigenvalues --    0.20662   0.20668   0.30894   0.30900   0.80944
 Alpha virt. eigenvalues --    0.80951   0.84066   0.84074   0.87142   0.87149
 Alpha virt. eigenvalues --    1.17805   1.17811   1.22271   1.22277   2.57846

 Mulliken charges:
               1
     1  O   -0.737498
     2  H    0.368578
     3  H    0.368920
     4  O   -0.737489
     5  H    0.368503
     6  H    0.368986
 Sum of Mulliken charges =   0.00000

 Dipole moment (field-independent basis, Debye):
    X=             -0.3443    Y=             -0.0228    Z=              0.0000  Tot=              0.3450
 Quadrupole moment (field-independent basis, Debye-Ang):
   XX=             -8.0719   YY=             23.0773   ZZ=            -14.9869
   XY=             -0.9113   XZ=              0.0000   YZ=              0.0000

 P4DQ=-33.890583\MP4SDQ=-33.8926133\CCSD=-33.8936707\CCSD(T)=-33.896235
 Normal termination of Gaussian 16 at Sun Dec 10 07:06:46 2023.
