 Gaussian 16, Revision A.03,
 Gaussian 16:  ES64L-G16RevA.03 25-Dec-2016

 ------------------
 #p CCSD(T)/CEP-31G
 ------------------

 ------------
 H2O_H2O_2268
 ------------
 Symbolic Z-matrix:
 Charge =  0 Multiplicity = 1

                         Standard orientation:
 ---------------------------------------------------------------------
 Center     Atomic      Atomic             Coordinates (Angstroms)
 Number     Number       Type             X           Y           Z
 ---------------------------------------------------------------------
      1          8           0        0.052846   -1.962064    0.000000
      2          1           0       -0.748022   -2.531376    0.000000
      3          1           0        0.851116   -2.535013    0.000000
      4          8           0        0.052846    2.032337    0.000000
      5          1           0       -0.166650    2.990110    0.000000
      6          1           0       -0.781975    1.514091    0.000000
 ---------------------------------------------------------------------

 SCF Done:  E(RHF) =  -33.6510622216     A.U. after   11 cycles
 E2 =    -0.2285852676D+00 EUMP2 =    -0.33879647489215D+02
 CCSD(T)
 CCSD(T)= -0.33896675062D+02

 The electronic state is 1-A'.
 Alpha  occ. eigenvalues --   -1.35342  -1.33945  -0.70976  -0.69520  -0.55036
 Alpha  occ. eigenvalues --   -0.53612  -0.49902  -0.48511
 Alpha virt. eigenvalues --    0.19975   0.22173   0.30562   0.32063   0.79537
 Alpha virt. eigenvalues --    0.80485   0.82183   0.85781   0.86816   0.93311
 Alpha virt. eigenvalues --    1.17520   1.19190   1.21898   1.23872   2.57221

 Mulliken charges:
               1
     1  O   -0.738539
     2  H    0.364717
     3  H    0.374160
     4  O   -0.735902
     5  H    0.359024
     6  H    0.376540
 Sum of Mulliken charges =   0.00000

 Dipole moment (field-independent basis, Debye):
    X=             -2.4127    Y=             -1.6976    Z=              0.0000  Tot=              2.9501
 Quadrupole moment (field-independent basis, Debye-Ang):
   XX=             -9.8440   YY=              4.0201   ZZ=            -14.9891
   XY=             -4.4798   XZ=              0.0000   YZ=              0.0000

 8\MP4DQ=-33.8910104\MP4SDQ=-33.8930516\CCSD=-33.8940996\CCSD(T)=-33.89
 Normal termination of Gaussian 16 at Sun Dec 10 07:08:13 2023.
