 Gaussian 16, Revision A.03,
 Gaussian 16:  ES64L-G16RevA.03 25-Dec-2016

 ------------------
 #p CCSD(T)/CEP-31G
 ------------------

 ------------
 H2O_H2O_4807
 ------------
 Symbolic Z-matrix:
 Charge =  0 Multiplicity = 1

                         Standard orientation:
 ---------------------------------------------------------------------
 Center     Atomic      Atomic             Coordinates (Angstroms)
 Number     Number       Type             X           Y           Z
 ---------------------------------------------------------------------
      1          8           0        0.025264   -3.350034    0.000000
      2          1           0       -0.774677   -3.920647    0.000000
      3          1           0        0.824465   -3.921684    0.000000
      4          8           0        0.025264    3.361781    0.000000
      5          1           0        0.490333    4.227354    0.000000
      6          1           0       -0.944352    3.521000    0.000000
 ---------------------------------------------------------------------

 SCF Done:  E(RHF) =  -33.6509345384     A.U. after   11 cycles
 E2 =    -0.2284239998D+00 EUMP2 =    -0.33879358538163D+02
 CCSD(T)
 CCSD(T)= -0.33896383523D+02

 The electronic state is 1-A'.
 Alpha  occ. eigenvalues --   -1.35133  -1.35055  -0.70762  -0.70682  -0.54820
 Alpha  occ. eigenvalues --   -0.54742  -0.49691  -0.49614
 Alpha virt. eigenvalues --    0.20591   0.20670   0.30825   0.30901   0.80862
 Alpha virt. eigenvalues --    0.80939   0.83969   0.84045   0.87050   0.87140
 Alpha virt. eigenvalues --    1.17732   1.17810   1.22197   1.22275   2.57770

 Mulliken charges:
               1
     1  O   -0.738070
     2  H    0.368478
     3  H    0.369593
     4  O   -0.737974
     5  H    0.368159
     6  H    0.369815
 Sum of Mulliken charges =   0.00000

 Dipole moment (field-independent basis, Debye):
    X=             -1.1668    Y=             -0.2743    Z=              0.0000  Tot=              1.1986
 Quadrupole moment (field-independent basis, Debye-Ang):
   XX=             -8.4498   YY=             22.1504   ZZ=            -14.9872
   XY=             -3.2220   XZ=              0.0000   YZ=              0.0000

 MP4DQ=-33.8907327\MP4SDQ=-33.8927627\CCSD=-33.8938197\CCSD(T)=-33.8963
 Normal termination of Gaussian 16 at Sun Dec 10 07:08:15 2023.
