 Gaussian 16, Revision A.03,
 Gaussian 16:  ES64L-G16RevA.03 25-Dec-2016

 ------------------
 #p CCSD(T)/CEP-31G
 ------------------

 ------------
 H2O_H2O_4260
 ------------
 Symbolic Z-matrix:
 Charge =  0 Multiplicity = 1

                         Standard orientation:
 ---------------------------------------------------------------------
 Center     Atomic      Atomic             Coordinates (Angstroms)
 Number     Number       Type             X           Y           Z
 ---------------------------------------------------------------------
      1          8           0        0.034780   -3.051121    0.000000
      2          1           0       -0.765349   -3.621471    0.000000
      3          1           0        0.833792   -3.623034    0.000000
      4          8           0        0.034780    3.074657    0.000000
      5          1           0        0.322358    4.014235    0.000000
      6          1           0       -0.947279    3.041978    0.000000
 ---------------------------------------------------------------------

 SCF Done:  E(RHF) =  -33.6508320958     A.U. after   11 cycles
 E2 =    -0.2284348195D+00 EUMP2 =    -0.33879266915309D+02
 CCSD(T)
 CCSD(T)= -0.33896294784D+02

 The electronic state is 1-A'.
 Alpha  occ. eigenvalues --   -1.35124  -1.34936  -0.70753  -0.70559  -0.54806
 Alpha  occ. eigenvalues --   -0.54617  -0.49681  -0.49493
 Alpha virt. eigenvalues --    0.20594   0.20786   0.30828   0.31013   0.80872
 Alpha virt. eigenvalues --    0.81058   0.83989   0.84175   0.87065   0.87286
 Alpha virt. eigenvalues --    1.17737   1.17923   1.22202   1.22390   2.57777

 Mulliken charges:
               1
     1  O   -0.737729
     2  H    0.367879
     3  H    0.369849
     4  O   -0.737471
     5  H    0.367226
     6  H    0.370244
 Sum of Mulliken charges =   0.00000

 Dipole moment (field-independent basis, Debye):
    X=             -1.6048    Y=             -0.5510    Z=              0.0000  Tot=              1.6968
 Quadrupole moment (field-independent basis, Debye-Ang):
   XX=             -8.8235   YY=             17.8243   ZZ=            -14.9872
   XY=             -4.1031   XZ=              0.0000   YZ=              0.0000

 P4DQ=-33.8906432\MP4SDQ=-33.8926735\CCSD=-33.8937305\CCSD(T)=-33.89629
 Normal termination of Gaussian 16 at Sun Dec 10 06:56:46 2023.
