 Gaussian 16, Revision A.03,
 Gaussian 16:  ES64L-G16RevA.03 25-Dec-2016

 ------------------
 #p CCSD(T)/CEP-31G
 ------------------

 ------------
 H2O_H2O_1028
 ------------
 Symbolic Z-matrix:
 Charge =  0 Multiplicity = 1

                         Standard orientation:
 ---------------------------------------------------------------------
 Center     Atomic      Atomic             Coordinates (Angstroms)
 Number     Number       Type             X           Y           Z
 ---------------------------------------------------------------------
      1          8           0        0.011143   -1.347547    0.000000
      2          1           0       -0.788834   -1.918111    0.000000
      3          1           0        0.810308   -1.919248    0.000000
      4          8           0        0.011143    1.349726    0.000000
      5          1           0        0.684437    2.065395    0.000000
      6          1           0       -0.884199    1.754533    0.000000
 ---------------------------------------------------------------------

 SCF Done:  E(RHF) =  -33.6358060297     A.U. after   11 cycles
 E2 =    -0.2296236605D+00 EUMP2 =    -0.33865429690233D+02
 CCSD(T)
 CCSD(T)= -0.33882855866D+02

 The electronic state is 1-A'.
 Alpha  occ. eigenvalues --   -1.32962  -1.32529  -0.68528  -0.68178  -0.54168
 Alpha  occ. eigenvalues --   -0.49253  -0.47614  -0.46647
 Alpha virt. eigenvalues --    0.21390   0.23654   0.32426   0.32740   0.79507
 Alpha virt. eigenvalues --    0.80335   0.83810   0.87757   1.02109   1.09786
 Alpha virt. eigenvalues --    1.19484   1.20827   1.24333   1.24610   2.57739

 Mulliken charges:
               1
     1  O   -0.703543
     2  H    0.348682
     3  H    0.354556
     4  O   -0.701833
     5  H    0.349835
     6  H    0.352304
 Sum of Mulliken charges =   0.00000

 Dipole moment (field-independent basis, Debye):
    X=             -0.4862    Y=             -0.0535    Z=              0.0000  Tot=              0.4891
 Quadrupole moment (field-independent basis, Debye-Ang):
   XX=             -8.2937   YY=              1.3600   ZZ=            -14.9894
   XY=             -0.4029   XZ=              0.0000   YZ=              0.0000

 4DQ=-33.8769864\MP4SDQ=-33.8790846\CCSD=-33.8801771\CCSD(T)=-33.882855
 Normal termination of Gaussian 16 at Sun Dec 10 06:43:59 2023.
