 Gaussian 16, Revision A.03,
 Gaussian 16:  ES64L-G16RevA.03 25-Dec-2016

 ------------------
 #p CCSD(T)/CEP-31G
 ------------------

 ------------
 H2O_H2O_1423
 ------------
 Symbolic Z-matrix:
 Charge =  0 Multiplicity = 1

                         Standard orientation:
 ---------------------------------------------------------------------
 Center     Atomic      Atomic             Coordinates (Angstroms)
 Number     Number       Type             X           Y           Z
 ---------------------------------------------------------------------
      1          8           0        0.057160   -1.490386    0.000000
      2          1           0       -0.744222   -2.058974    0.000000
      3          1           0        0.854912   -2.064057    0.000000
      4          8           0        0.057160    1.596779    0.000000
      5          1           0       -0.457797    2.433633    0.000000
      6          1           0       -0.567458    0.838255    0.000000
 ---------------------------------------------------------------------

 SCF Done:  E(RHF) =  -33.6542945720     A.U. after   11 cycles
 E2 =    -0.2290957329D+00 EUMP2 =    -0.33883390304828D+02
 CCSD(T)
 CCSD(T)= -0.33900381332D+02

 The electronic state is 1-A'.
 Alpha  occ. eigenvalues --   -1.36340  -1.32587  -0.71989  -0.68263  -0.56184
 Alpha  occ. eigenvalues --   -0.52380  -0.50949  -0.47193
 Alpha virt. eigenvalues --    0.18971   0.24811   0.29775   0.34780   0.76713
 Alpha virt. eigenvalues --    0.78141   0.84956   0.86575   0.90134   1.07809
 Alpha virt. eigenvalues --    1.16551   1.20235   1.21759   1.29569   2.53555

 Mulliken charges:
               1
     1  O   -0.754690
     2  H    0.367148
     3  H    0.389268
     4  O   -0.745448
     5  H    0.347946
     6  H    0.395775
 Sum of Mulliken charges =  -0.00000

 Dipole moment (field-independent basis, Debye):
    X=             -2.5575    Y=             -2.6967    Z=              0.0000  Tot=              3.7166
 Quadrupole moment (field-independent basis, Debye-Ang):
   XX=            -10.1251   YY=             -1.9361   ZZ=            -14.9985
   XY=             -4.3329   XZ=              0.0000   YZ=              0.0000

 \MP4DQ=-33.8946103\MP4SDQ=-33.8967087\CCSD=-33.8977334\CCSD(T)=-33.900
 Normal termination of Gaussian 16 at Sun Dec 10 06:51:21 2023.
