 Gaussian 16, Revision A.03,
 Gaussian 16:  ES64L-G16RevA.03 25-Dec-2016

 ------------------
 #p CCSD(T)/CEP-31G
 ------------------

 ------------
 H2O_H2O_1831
 ------------
 Symbolic Z-matrix:
 Charge =  0 Multiplicity = 1

                         Standard orientation:
 ---------------------------------------------------------------------
 Center     Atomic      Atomic             Coordinates (Angstroms)
 Number     Number       Type             X           Y           Z
 ---------------------------------------------------------------------
      1          8           0        0.021861   -1.769503    0.000000
      2          1           0       -0.778316   -2.339786    0.000000
      3          1           0        0.820826   -2.341482    0.000000
      4          8           0        0.021861    1.778151    0.000000
      5          1           0        0.542890    2.611239    0.000000
      6          1           0       -0.935173    2.000841    0.000000
 ---------------------------------------------------------------------

 SCF Done:  E(RHF) =  -33.6457561492     A.U. after   11 cycles
 E2 =    -0.2288643690D+00 EUMP2 =    -0.33874620518203D+02
 CCSD(T)
 CCSD(T)= -0.33891814505D+02

 The electronic state is 1-A'.
 Alpha  occ. eigenvalues --   -1.33975  -1.33757  -0.69596  -0.69364  -0.53746
 Alpha  occ. eigenvalues --   -0.52727  -0.48488  -0.48220
 Alpha virt. eigenvalues --    0.20973   0.22201   0.31692   0.31940   0.76781
 Alpha virt. eigenvalues --    0.80884   0.83501   0.85548   0.90942   0.99982
 Alpha virt. eigenvalues --    1.18685   1.18959   1.23194   1.23520   2.58260

 Mulliken charges:
               1
     1  O   -0.721010
     2  H    0.357794
     3  H    0.363287
     4  O   -0.719707
     5  H    0.356568
     6  H    0.363068
 Sum of Mulliken charges =  -0.00000

 Dipole moment (field-independent basis, Debye):
    X=             -0.9923    Y=             -0.2131    Z=              0.0000  Tot=              1.0149
 Quadrupole moment (field-independent basis, Debye-Ang):
   XX=             -8.4174   YY=              6.0625   ZZ=            -14.9839
   XY=             -1.2237   XZ=              0.0000   YZ=              0.0000

 MP4DQ=-33.8860906\MP4SDQ=-33.8881552\CCSD=-33.8892141\CCSD(T)=-33.8918
 Normal termination of Gaussian 16 at Sun Dec 10 06:58:54 2023.
