 Gaussian 16, Revision A.03,
 Gaussian 16:  ES64L-G16RevA.03 25-Dec-2016

 ------------------
 #p CCSD(T)/CEP-31G
 ------------------

 ------------
 H2O_H2O_2706
 ------------
 Symbolic Z-matrix:
 Charge =  0 Multiplicity = 1

                         Standard orientation:
 ---------------------------------------------------------------------
 Center     Atomic      Atomic             Coordinates (Angstroms)
 Number     Number       Type             X           Y           Z
 ---------------------------------------------------------------------
      1          8           0        0.021860   -2.234855    0.000000
      2          1           0       -0.778191   -2.805315    0.000000
      3          1           0        0.820951   -2.806658    0.000000
      4          8           0        0.021860    2.243513    0.000000
      5          1           0        0.542705    3.076716    0.000000
      6          1           0       -0.935224    2.465991    0.000000
 ---------------------------------------------------------------------

 SCF Done:  E(RHF) =  -33.6487729579     A.U. after   11 cycles
 E2 =    -0.2285718401D+00 EUMP2 =    -0.33877344798017D+02
 CCSD(T)
 CCSD(T)= -0.33894432619D+02

 The electronic state is 1-A'.
 Alpha  occ. eigenvalues --   -1.34530  -1.34398  -0.70154  -0.70015  -0.54125
 Alpha  occ. eigenvalues --   -0.53919  -0.49058  -0.48925
 Alpha virt. eigenvalues --    0.20974   0.21309   0.31304   0.31432   0.81394
 Alpha virt. eigenvalues --    0.81720   0.82631   0.86565   0.87802   0.88698
 Alpha virt. eigenvalues --    1.18246   1.18376   1.22729   1.22868   2.58307

 Mulliken charges:
               1
     1  O   -0.730654
     2  H    0.363858
     3  H    0.366803
     4  O   -0.730185
     5  H    0.363184
     6  H    0.366994
 Sum of Mulliken charges =  -0.00000

 Dipole moment (field-independent basis, Debye):
    X=             -1.0026    Y=             -0.2063    Z=              0.0000  Tot=              1.0236
 Quadrupole moment (field-independent basis, Debye-Ang):
   XX=             -8.3750   YY=             10.9897   ZZ=            -14.9852
   XY=             -1.6639   XZ=              0.0000   YZ=              0.0000

 MP4DQ=-33.8887626\MP4SDQ=-33.8907999\CCSD=-33.891859\CCSD(T)=-33.89443
 Normal termination of Gaussian 16 at Sun Dec 10 06:28:35 2023.
