 Gaussian 16, Revision A.03,
 Gaussian 16:  ES64L-G16RevA.03 25-Dec-2016

 ------------------
 #p CCSD(T)/CEP-31G
 ------------------

 ----------
 H2O_H2O_62
 ----------
 Symbolic Z-matrix:
 Charge =  0 Multiplicity = 1

                         Standard orientation:
 ---------------------------------------------------------------------
 Center     Atomic      Atomic             Coordinates (Angstroms)
 Number     Number       Type             X           Y           Z
 ---------------------------------------------------------------------
      1          8           0        0.040455   -0.812199    0.000000
      2          1           0       -0.761505   -1.379972    0.000000
      3          1           0        0.837623   -1.386680    0.000000
      4          8           0        0.040455    0.845316    0.000000
      5          1           0        0.206050    1.813864    0.000000
      6          1           0       -0.929448    0.687852    0.000000
 ---------------------------------------------------------------------

 SCF Done:  E(RHF) =  -33.4947961260     A.U. after   12 cycles
 E2 =    -0.2374583856D+00 EUMP2 =    -0.33732254511587D+02
 CCSD(T)
 CCSD(T)= -0.33748977317D+02

 The electronic state is 1-A'.
 Alpha  occ. eigenvalues --   -1.38577  -1.28879  -0.73580  -0.69393  -0.59374
 Alpha  occ. eigenvalues --   -0.52652  -0.42845  -0.35299
 Alpha virt. eigenvalues --    0.20198   0.28778   0.31139   0.33484   0.81399
 Alpha virt. eigenvalues --    0.84589   0.88972   0.93085   0.97701   1.20085
 Alpha virt. eigenvalues --    1.21222   1.25591   1.26269   1.39217   2.57383

 Mulliken charges:
               1
     1  O   -0.741154
     2  H    0.333748
     3  H    0.390613
     4  O   -0.647774
     5  H    0.318757
     6  H    0.345809
 Sum of Mulliken charges =   0.00000

 Dipole moment (field-independent basis, Debye):
    X=             -1.4473    Y=             -0.8903    Z=              0.0000  Tot=              1.6992
 Quadrupole moment (field-independent basis, Debye-Ang):
   XX=             -9.3177   YY=             -7.7211   ZZ=            -14.9531
   XY=             -1.0359   XZ=              0.0000   YZ=              0.0000

 4DQ=-33.7421241\MP4SDQ=-33.7448916\CCSD=-33.7454756\CCSD(T)=-33.748977
 Normal termination of Gaussian 16 at Sun Dec 10 06:25:53 2023.
