 Gaussian 16, Revision A.03,
 Gaussian 16:  ES64L-G16RevA.03 25-Dec-2016

 ------------------
 #p CCSD(T)/CEP-31G
 ------------------

 ------------
 H2O_H2O_3229
 ------------
 Symbolic Z-matrix:
 Charge =  0 Multiplicity = 1

                         Standard orientation:
 ---------------------------------------------------------------------
 Center     Atomic      Atomic             Coordinates (Angstroms)
 Number     Number       Type             X           Y           Z
 ---------------------------------------------------------------------
      1          8           0        0.014783   -2.516666    0.000000
      2          1           0       -0.785076   -3.087394    0.000000
      3          1           0        0.814065   -3.088202    0.000000
      4          8           0        0.014783    2.520543    0.000000
      5          1           0        0.639673    3.278842    0.000000
      6          1           0       -0.905190    2.865734    0.000000
 ---------------------------------------------------------------------

 SCF Done:  E(RHF) =  -33.6495220428     A.U. after   11 cycles
 E2 =    -0.2285094678D+00 EUMP2 =    -0.33878031510618D+02
 CCSD(T)
 CCSD(T)= -0.33895097201D+02

 The electronic state is 1-A'.
 Alpha  occ. eigenvalues --   -1.34690  -1.34644  -0.70315  -0.70267  -0.54304
 Alpha  occ. eigenvalues --   -0.54240  -0.49228  -0.49182
 Alpha virt. eigenvalues --    0.20932   0.21028   0.31184   0.31230   0.81311
 Alpha virt. eigenvalues --    0.81383   0.84022   0.85183   0.87556   0.87695
 Alpha virt. eigenvalues --    1.18116   1.18162   1.22593   1.22641   2.58186

 Mulliken charges:
               1
     1  O   -0.733177
     2  H    0.365864
     3  H    0.367313
     4  O   -0.733049
     5  H    0.365571
     6  H    0.367478
 Sum of Mulliken charges =  -0.00000

 Dipole moment (field-independent basis, Debye):
    X=             -0.6801    Y=             -0.0916    Z=              0.0000  Tot=              0.6862
 Quadrupole moment (field-independent basis, Debye-Ang):
   XX=             -8.1967   YY=             14.3122   ZZ=            -14.9857
   XY=             -1.2869   XZ=              0.0000   YZ=              0.0000

 P4DQ=-33.8894349\MP4SDQ=-33.8914689\CCSD=-33.8925279\CCSD(T)=-33.89509
 Normal termination of Gaussian 16 at Sun Dec 10 06:37:59 2023.
