 Gaussian 16, Revision A.03,
 Gaussian 16:  ES64L-G16RevA.03 25-Dec-2016

 ------------------
 #p CCSD(T)/CEP-31G
 ------------------

 ------------
 H2O_H2O_4795
 ------------
 Symbolic Z-matrix:
 Charge =  0 Multiplicity = 1

                         Standard orientation:
 ---------------------------------------------------------------------
 Center     Atomic      Atomic             Coordinates (Angstroms)
 Number     Number       Type             X           Y           Z
 ---------------------------------------------------------------------
      1          8           0        0.055227   -3.297224    0.000000
      2          1           0       -0.745155   -3.867219    0.000000
      3          1           0        0.853985   -3.869493    0.000000
      4          8           0        0.055227    3.381730    0.000000
      5          1           0       -0.288191    4.302366    0.000000
      6          1           0       -0.704275    2.758302    0.000000
 ---------------------------------------------------------------------

 SCF Done:  E(RHF) =  -33.6517576970     A.U. after   11 cycles
 E2 =    -0.2283846477D+00 EUMP2 =    -0.33880142344671D+02
 CCSD(T)
 CCSD(T)= -0.33897143400D+02

 The electronic state is 1-A'.
 Alpha  occ. eigenvalues --   -1.35568  -1.35008  -0.71200  -0.70631  -0.55300
 Alpha  occ. eigenvalues --   -0.54735  -0.50139  -0.49579
 Alpha virt. eigenvalues --    0.20202   0.20775   0.30442   0.31008   0.80413
 Alpha virt. eigenvalues --    0.80965   0.83441   0.84005   0.86551   0.87155
 Alpha virt. eigenvalues --    1.17333   1.17889   1.21791   1.22356   2.57350

 Mulliken charges:
               1
     1  O   -0.741021
     2  H    0.369351
     3  H    0.371670
     4  O   -0.740812
     5  H    0.367935
     6  H    0.372878
 Sum of Mulliken charges =   0.00000

 Dipole moment (field-independent basis, Debye):
    X=             -2.5500    Y=             -1.9738    Z=              0.0000  Tot=              3.2246
 Quadrupole moment (field-independent basis, Debye-Ang):
   XX=            -10.0209   YY=             11.9613   ZZ=            -14.9886
   XY=             -8.3047   XZ=              0.0000   YZ=              0.0000

 7\MP4DQ=-33.8914991\MP4SDQ=-33.8935268\CCSD=-33.8945822\CCSD(T)=-33.89
 Normal termination of Gaussian 16 at Sun Dec 10 07:08:01 2023.
