 Gaussian 16, Revision A.03,
 Gaussian 16:  ES64L-G16RevA.03 25-Dec-2016

 ------------------
 #p CCSD(T)/CEP-31G
 ------------------

 ------------
 H2O_H2O_2303
 ------------
 Symbolic Z-matrix:
 Charge =  0 Multiplicity = 1

                         Standard orientation:
 ---------------------------------------------------------------------
 Center     Atomic      Atomic             Coordinates (Angstroms)
 Number     Number       Type             X           Y           Z
 ---------------------------------------------------------------------
      1          8           0        0.011143   -2.025636    0.000000
      2          1           0       -0.788698   -2.596390    0.000000
      3          1           0        0.810443   -2.597146    0.000000
      4          8           0        0.011143    2.027820    0.000000
      5          1           0        0.684267    2.743649    0.000000
      6          1           0       -0.884296    2.432413    0.000000
 ---------------------------------------------------------------------

 SCF Done:  E(RHF) =  -33.6474213602     A.U. after   11 cycles
 E2 =    -0.2286710033D+00 EUMP2 =    -0.33876092363498D+02
 CCSD(T)
 CCSD(T)= -0.33893220960D+02

 The electronic state is 1-A'.
 Alpha  occ. eigenvalues --   -1.34210  -1.34168  -0.69831  -0.69786  -0.53863
 Alpha  occ. eigenvalues --   -0.53456  -0.48731  -0.48663
 Alpha virt. eigenvalues --    0.21054   0.21632   0.31501   0.31647   0.80291
 Alpha virt. eigenvalues --    0.81403   0.82294   0.87078   0.89060   0.91439
 Alpha virt. eigenvalues --    1.18512   1.18554   1.22934   1.23145   2.58310

 Mulliken charges:
               1
     1  O   -0.726070
     2  H    0.362056
     3  H    0.364023
     4  O   -0.725878
     5  H    0.361740
     6  H    0.364130
 Sum of Mulliken charges =   0.00000

 Dipole moment (field-independent basis, Debye):
    X=             -0.5095    Y=             -0.0527    Z=              0.0000  Tot=              0.5122
 Quadrupole moment (field-independent basis, Debye-Ang):
   XX=             -8.1682   YY=              9.1667   ZZ=            -14.9842
   XY=             -0.7223   XZ=              0.0000   YZ=              0.0000

 P4DQ=-33.8875342\MP4SDQ=-33.8895793\CCSD=-33.8906389\CCSD(T)=-33.89322
 Normal termination of Gaussian 16 at Sun Dec 10 07:08:51 2023.
