 Gaussian 16, Revision A.03,
 Gaussian 16:  ES64L-G16RevA.03 25-Dec-2016

 ------------------
 #p CCSD(T)/CEP-31G
 ------------------

 ------------
 H2O_H2O_2615
 ------------
 Symbolic Z-matrix:
 Charge =  0 Multiplicity = 1

                         Standard orientation:
 ---------------------------------------------------------------------
 Center     Atomic      Atomic             Coordinates (Angstroms)
 Number     Number       Type             X           Y           Z
 ---------------------------------------------------------------------
      1          8           0        0.047535   -2.158898    0.000000
      2          1           0       -0.753103   -2.728533    0.000000
      3          1           0        0.846036   -2.731526    0.000000
      4          8           0        0.047535    2.209486    0.000000
      5          1           0        0.018713    3.191665    0.000000
      6          1           0       -0.872210    1.863692    0.000000
 ---------------------------------------------------------------------

 SCF Done:  E(RHF) =  -33.6503301913     A.U. after   11 cycles
 E2 =    -0.2285340584D+00 EUMP2 =    -0.33878864249673D+02
 CCSD(T)
 CCSD(T)= -0.33895908055D+02

 The electronic state is 1-A'.
 Alpha  occ. eigenvalues --   -1.35081  -1.34259  -0.70711  -0.69854  -0.54735
 Alpha  occ. eigenvalues --   -0.53899  -0.49631  -0.48813
 Alpha virt. eigenvalues --    0.20454   0.21582   0.30827   0.31658   0.80876
 Alpha virt. eigenvalues --    0.81770   0.81863   0.85628   0.87143   0.89904
 Alpha virt. eigenvalues --    1.17759   1.18610   1.22199   1.23105   2.57807

 Mulliken charges:
               1
     1  O   -0.736126
     2  H    0.364722
     3  H    0.371467
     4  O   -0.734255
     5  H    0.361564
     6  H    0.372628
 Sum of Mulliken charges =  -0.00000

 Dipole moment (field-independent basis, Debye):
    X=             -2.1779    Y=             -1.2079    Z=              0.0000  Tot=              2.4904
 Quadrupole moment (field-independent basis, Debye-Ang):
   XX=             -9.5064   YY=              7.1584   ZZ=            -14.9875
   XY=             -4.1304   XZ=              0.0000   YZ=              0.0000

 6\MP4DQ=-33.8902486\MP4SDQ=-33.8922834\CCSD=-33.8933377\CCSD(T)=-33.89
 Normal termination of Gaussian 16 at Sun Dec 10 06:26:52 2023.
