 Gaussian 16, Revision A.03,
 Gaussian 16:  ES64L-G16RevA.03 25-Dec-2016

 ------------------
 #p CCSD(T)/CEP-31G
 ------------------

 -----------
 H2O_H2O_843
 -----------
 Symbolic Z-matrix:
 Charge =  0 Multiplicity = 1

                         Standard orientation:
 ---------------------------------------------------------------------
 Center     Atomic      Atomic             Coordinates (Angstroms)
 Number     Number       Type             X           Y           Z
 ---------------------------------------------------------------------
      1          8           0        0.052895   -1.204274    0.000000
      2          1           0       -0.748764   -1.772472    0.000000
      3          1           0        0.850367   -1.778333    0.000000
      4          8           0        0.052895    1.274401    0.000000
      5          1           0       -0.165269    2.232477    0.000000
      6          1           0       -0.782646    0.757315    0.000000
 ---------------------------------------------------------------------

 SCF Done:  E(RHF) =  -33.6419120527     A.U. after   11 cycles
 E2 =    -0.2302822675D+00 EUMP2 =    -0.33872194320116D+02
 CCSD(T)
 CCSD(T)= -0.33889398049D+02

 The electronic state is 1-A'.
 Alpha  occ. eigenvalues --   -1.35261  -1.31735  -0.70933  -0.67905  -0.54719
 Alpha  occ. eigenvalues --   -0.50734  -0.49855  -0.46188
 Alpha virt. eigenvalues --    0.19659   0.25885   0.30688   0.33985   0.77774
 Alpha virt. eigenvalues --    0.83328   0.88399   0.90510   0.94238   1.15358
 Alpha virt. eigenvalues --    1.19406   1.21173   1.23224   1.30263   2.65406

 Mulliken charges:
               1
     1  O   -0.751624
     2  H    0.356325
     3  H    0.389515
     4  O   -0.704442
     5  H    0.335676
     6  H    0.374550
 Sum of Mulliken charges =   0.00000

 Dipole moment (field-independent basis, Debye):
    X=             -2.2567    Y=             -1.7835    Z=              0.0000  Tot=              2.8764
 Quadrupole moment (field-independent basis, Debye-Ang):
   XX=             -9.8510   YY=             -2.3047   ZZ=            -14.9968
   XY=             -2.6937   XZ=              0.0000   YZ=              0.0000

 MP4DQ=-33.8834427\MP4SDQ=-33.8856197\CCSD=-33.8866483\CCSD(T)=-33.8893
 Normal termination of Gaussian 16 at Sun Dec 10 06:40:31 2023.
