 Gaussian 16, Revision A.03,
 Gaussian 16:  ES64L-G16RevA.03 25-Dec-2016

 ------------------
 #p CCSD(T)/CEP-31G
 ------------------

 ------------
 H2O_H2O_1973
 ------------
 Symbolic Z-matrix:
 Charge =  0 Multiplicity = 1

                         Standard orientation:
 ---------------------------------------------------------------------
 Center     Atomic      Atomic             Coordinates (Angstroms)
 Number     Number       Type             X           Y           Z
 ---------------------------------------------------------------------
      1          8           0        0.057133   -1.782866    0.000000
      2          1           0       -0.743961   -2.351860    0.000000
      3          1           0        0.855175   -2.356133    0.000000
      4          8           0        0.057133    1.889317    0.000000
      5          1           0       -0.458248    2.725910    0.000000
      6          1           0       -0.567100    1.130476    0.000000
 ---------------------------------------------------------------------

 SCF Done:  E(RHF) =  -33.6536585116     A.U. after   11 cycles
 E2 =    -0.2286466318D+00 EUMP2 =    -0.33882305143408D+02
 CCSD(T)
 CCSD(T)= -0.33899282542D+02

 The electronic state is 1-A'.
 Alpha  occ. eigenvalues --   -1.36064  -1.33476  -0.71707  -0.69036  -0.55912
 Alpha  occ. eigenvalues --   -0.53236  -0.50660  -0.48073
 Alpha virt. eigenvalues --    0.19141   0.23206   0.29956   0.33073   0.78891
 Alpha virt. eigenvalues --    0.79542   0.82800   0.85736   0.86633   0.96150
 Alpha virt. eigenvalues --    1.16861   1.20004   1.21345   1.27075   2.54840

 Mulliken charges:
               1
     1  O   -0.747018
     2  H    0.367929
     3  H    0.380362
     4  O   -0.745834
     5  H    0.356632
     6  H    0.387930
 Sum of Mulliken charges =   0.00000

 Dipole moment (field-independent basis, Debye):
    X=             -2.5989    Y=             -2.6164    Z=              0.0000  Tot=              3.6878
 Quadrupole moment (field-independent basis, Debye-Ang):
   XX=            -10.1379   YY=             -0.1088   ZZ=            -14.9938
   XY=             -5.0856   XZ=              0.0000   YZ=              0.0000

 \MP4DQ=-33.8935987\MP4SDQ=-33.8956564\CCSD=-33.8966928\CCSD(T)=-33.899
 Normal termination of Gaussian 16 at Sun Dec 10 07:02:36 2023.
