 Gaussian 16, Revision A.03,
 Gaussian 16:  ES64L-G16RevA.03 25-Dec-2016

 ------------------
 #p CCSD(T)/CEP-31G
 ------------------

 ------------
 H2O_H2O_3622
 ------------
 Symbolic Z-matrix:
 Charge =  0 Multiplicity = 1

                         Standard orientation:
 ---------------------------------------------------------------------
 Center     Atomic      Atomic             Coordinates (Angstroms)
 Number     Number       Type             X           Y           Z
 ---------------------------------------------------------------------
      1          8           0        0.056714   -2.664383    0.000000
      2          1           0       -0.743882   -3.234078    0.000000
      3          1           0        0.855258   -3.236950    0.000000
      4          8           0        0.056714    2.763496    0.000000
      5          1           0       -0.403609    3.631603    0.000000
      6          1           0       -0.615186    2.046519    0.000000
 ---------------------------------------------------------------------

 SCF Done:  E(RHF) =  -33.6520630644     A.U. after   11 cycles
 E2 =    -0.2283858663D+00 EUMP2 =    -0.33880448930727D+02
 CCSD(T)
 CCSD(T)= -0.33897440947D+02

 The electronic state is 1-A'.
 Alpha  occ. eigenvalues --   -1.35684  -1.34670  -0.71318  -0.70282  -0.55436
 Alpha  occ. eigenvalues --   -0.54403  -0.50259  -0.49246
 Alpha virt. eigenvalues --    0.20091   0.21159   0.30343   0.31384   0.80295
 Alpha virt. eigenvalues --    0.81287   0.83261   0.84340   0.86412   0.87528
 Alpha virt. eigenvalues --    1.17230   1.18239   1.21684   1.22727   2.57232

 Mulliken charges:
               1
     1  O   -0.742123
     2  H    0.368980
     3  H    0.373148
     4  O   -0.741710
     5  H    0.365932
     6  H    0.375773
 Sum of Mulliken charges =   0.00000

 Dipole moment (field-independent basis, Debye):
    X=             -2.6122    Y=             -2.3332    Z=              0.0000  Tot=              3.5025
 Quadrupole moment (field-independent basis, Debye-Ang):
   XX=            -10.1257   YY=              5.9367   ZZ=            -14.9895
   XY=             -7.1711   XZ=              0.0000   YZ=              0.0000

 MP4DQ=-33.8917986\MP4SDQ=-33.8938258\CCSD=-33.8948798\CCSD(T)=-33.8974
 Normal termination of Gaussian 16 at Sun Dec 10 06:45:07 2023.
