 Gaussian 16, Revision A.03,
 Gaussian 16:  ES64L-G16RevA.03 25-Dec-2016

 ------------------
 #p CCSD(T)/CEP-31G
 ------------------

 ------------
 H2O_H2O_1763
 ------------
 Symbolic Z-matrix:
 Charge =  0 Multiplicity = 1

                         Standard orientation:
 ---------------------------------------------------------------------
 Center     Atomic      Atomic             Coordinates (Angstroms)
 Number     Number       Type             X           Y           Z
 ---------------------------------------------------------------------
      1          8           0        0.042981   -1.713278    0.000000
      2          1           0       -0.757806   -2.282703    0.000000
      3          1           0        0.841332   -2.286114    0.000000
      4          8           0        0.042981    1.752006    0.000000
      5          1           0        0.142861    2.729518    0.000000
      6          1           0       -0.914090    1.529471    0.000000
 ---------------------------------------------------------------------

 SCF Done:  E(RHF) =  -33.6478580208     A.U. after   11 cycles
 E2 =    -0.2288893369D+00 EUMP2 =    -0.33876747357681D+02
 CCSD(T)
 CCSD(T)= -0.33893892962D+02

 The electronic state is 1-A'.
 Alpha  occ. eigenvalues --   -1.34586  -1.33569  -0.70216  -0.69142  -0.54235
 Alpha  occ. eigenvalues --   -0.52921  -0.49111  -0.48088
 Alpha virt. eigenvalues --    0.20350   0.22629   0.31181   0.32188   0.75692
 Alpha virt. eigenvalues --    0.80344   0.83567   0.85383   0.89167   1.03544
 Alpha virt. eigenvalues --    1.18135   1.19748   1.22619   1.23895   2.57685

 Mulliken charges:
               1
     1  O   -0.728247
     2  H    0.358610
     3  H    0.369996
     4  O   -0.723490
     5  H    0.353662
     6  H    0.369470
 Sum of Mulliken charges =  -0.00000

 Dipole moment (field-independent basis, Debye):
    X=             -1.9435    Y=             -0.9542    Z=              0.0000  Tot=              2.1651
 Quadrupole moment (field-independent basis, Debye-Ang):
   XX=             -9.2614   YY=              3.9822   ZZ=            -14.9864
   XY=             -2.7181   XZ=              0.0000   YZ=              0.0000

 MP4DQ=-33.8881738\MP4SDQ=-33.8902424\CCSD=-33.8912929\CCSD(T)=-33.8938
 Normal termination of Gaussian 16 at Sun Dec 10 06:57:39 2023.
