 Gaussian 16, Revision A.03,
 Gaussian 16:  ES64L-G16RevA.03 25-Dec-2016

 ------------------
 #p CCSD(T)/CEP-31G
 ------------------

 ------------
 H2O_H2O_2865
 ------------
 Symbolic Z-matrix:
 Charge =  0 Multiplicity = 1

                         Standard orientation:
 ---------------------------------------------------------------------
 Center     Atomic      Atomic             Coordinates (Angstroms)
 Number     Number       Type             X           Y           Z
 ---------------------------------------------------------------------
      1          8           0        0.047533   -2.291852    0.000000
      2          1           0       -0.753045   -2.861573    0.000000
      3          1           0        0.846095   -2.864394    0.000000
      4          8           0        0.047533    2.342450    0.000000
      5          1           0        0.018604    3.324626    0.000000
      6          1           0       -0.872176    1.996557    0.000000
 ---------------------------------------------------------------------

 SCF Done:  E(RHF) =  -33.6505479888     A.U. after   11 cycles
 E2 =    -0.2284969448D+00 EUMP2 =    -0.33879044933592D+02
 CCSD(T)
 CCSD(T)= -0.33896081749D+02

 The electronic state is 1-A'.
 Alpha  occ. eigenvalues --   -1.35130  -1.34405  -0.70760  -0.70007  -0.54795
 Alpha  occ. eigenvalues --   -0.54062  -0.49683  -0.48961
 Alpha virt. eigenvalues --    0.20500   0.21377   0.30800   0.31523   0.80859
 Alpha virt. eigenvalues --    0.81590   0.82944   0.85274   0.87071   0.88564
 Alpha virt. eigenvalues --    1.17719   1.18448   1.22176   1.22933   2.57769

 Mulliken charges:
               1
     1  O   -0.736865
     2  H    0.365575
     3  H    0.371313
     4  O   -0.735435
     5  H    0.362930
     6  H    0.372482
 Sum of Mulliken charges =  -0.00000

 Dipole moment (field-independent basis, Debye):
    X=             -2.1819    Y=             -1.2018    Z=              0.0000  Tot=              2.4910
 Quadrupole moment (field-independent basis, Debye-Ang):
   XX=             -9.5055   YY=              8.2843   ZZ=            -14.9875
   XY=             -4.4141   XZ=              0.0000   YZ=              0.0000

 \MP4DQ=-33.8904262\MP4SDQ=-33.8924586\CCSD=-33.893514\CCSD(T)=-33.8960
 Normal termination of Gaussian 16 at Sun Dec 10 06:31:34 2023.
