 Gaussian 16, Revision A.03,
 Gaussian 16:  ES64L-G16RevA.03 25-Dec-2016

 ------------------
 #p CCSD(T)/CEP-31G
 ------------------

 ------------
 H2O_H2O_1034
 ------------
 Symbolic Z-matrix:
 Charge =  0 Multiplicity = 1

                         Standard orientation:
 ---------------------------------------------------------------------
 Center     Atomic      Atomic             Coordinates (Angstroms)
 Number     Number       Type             X           Y           Z
 ---------------------------------------------------------------------
      1          8           0        0.031750   -1.338344    0.000000
      2          1           0       -0.768977   -1.907855    0.000000
      3          1           0        0.830162   -1.911095    0.000000
      4          8           0        0.031750    1.357466    0.000000
      5          1           0        0.381127    2.275857    0.000000
      6          1           0       -0.950309    1.390117    0.000000
 ---------------------------------------------------------------------

 SCF Done:  E(RHF) =  -33.6386566355     A.U. after   11 cycles
 E2 =    -0.2296731748D+00 EUMP2 =    -0.33868329810285D+02
 CCSD(T)
 CCSD(T)= -0.33885730838D+02

 The electronic state is 1-A'.
 Alpha  occ. eigenvalues --   -1.33430  -1.32570  -0.69033  -0.68190  -0.54294
 Alpha  occ. eigenvalues --   -0.49932  -0.48035  -0.46821
 Alpha virt. eigenvalues --    0.20902   0.23931   0.32113   0.32671   0.79162
 Alpha virt. eigenvalues --    0.81661   0.82872   0.87573   0.97449   1.14407
 Alpha virt. eigenvalues --    1.19085   1.22364   1.23863   1.25521   2.57821

 Mulliken charges:
               1
     1  O   -0.714674
     2  H    0.348239
     3  H    0.364299
     4  O   -0.701512
     5  H    0.346798
     6  H    0.356851
 Sum of Mulliken charges =   0.00000

 Dipole moment (field-independent basis, Debye):
    X=             -1.3850    Y=             -0.4726    Z=              0.0000  Tot=              1.4635
 Quadrupole moment (field-independent basis, Debye-Ang):
   XX=             -8.8111   YY=              0.8454   ZZ=            -14.9890
   XY=             -1.3034   XZ=              0.0000   YZ=              0.0000

 \MP4DQ=-33.8798593\MP4SDQ=-33.8819751\CCSD=-33.8830575\CCSD(T)=-33.885
 Normal termination of Gaussian 16 at Sun Dec 10 06:44:05 2023.
