 Gaussian 16, Revision A.03,
 Gaussian 16:  ES64L-G16RevA.03 25-Dec-2016

 ------------------
 #p CCSD(T)/CEP-31G
 ------------------

 ------------
 H2O_H2O_2182
 ------------
 Symbolic Z-matrix:
 Charge =  0 Multiplicity = 1

                         Standard orientation:
 ---------------------------------------------------------------------
 Center     Atomic      Atomic             Coordinates (Angstroms)
 Number     Number       Type             X           Y           Z
 ---------------------------------------------------------------------
      1          8           0        0.025267   -1.953975    0.000000
      2          1           0       -0.774937   -2.524220    0.000000
      3          1           0        0.824204   -2.525994    0.000000
      4          8           0        0.025267    1.965699    0.000000
      5          1           0        0.490735    2.831057    0.000000
      6          1           0       -0.944275    2.125366    0.000000
 ---------------------------------------------------------------------

 SCF Done:  E(RHF) =  -33.6475209090     A.U. after   11 cycles
 E2 =    -0.2287044977D+00 EUMP2 =    -0.33876225406620D+02
 CCSD(T)
 CCSD(T)= -0.33893353912D+02

 The electronic state is 1-A'.
 Alpha  occ. eigenvalues --   -1.34293  -1.34055  -0.69915  -0.69664  -0.53919
 Alpha  occ. eigenvalues --   -0.53382  -0.48808  -0.48562
 Alpha virt. eigenvalues --    0.20934   0.21782   0.31478   0.31702   0.79146
 Alpha virt. eigenvalues --    0.81241   0.82478   0.86490   0.88929   0.93971
 Alpha virt. eigenvalues --    1.18434   1.18681   1.22937   1.23198   2.58217

 Mulliken charges:
               1
     1  O   -0.726490
     2  H    0.360840
     3  H    0.365707
     4  O   -0.725394
     5  H    0.359605
     6  H    0.365732
 Sum of Mulliken charges =   0.00000

 Dipole moment (field-independent basis, Debye):
    X=             -1.1530    Y=             -0.2841    Z=              0.0000  Tot=              1.1875
 Quadrupole moment (field-independent basis, Debye-Ang):
   XX=             -8.4955   YY=              7.8647   ZZ=            -14.9846
   XY=             -1.6384   XZ=              0.0000   YZ=              0.0000

 MP4DQ=-33.8876635\MP4SDQ=-33.8897117\CCSD=-33.8907692\CCSD(T)=-33.8933
 Normal termination of Gaussian 16 at Sun Dec 10 07:06:40 2023.
