 Gaussian 16, Revision A.03,
 Gaussian 16:  ES64L-G16RevA.03 25-Dec-2016

 ------------------
 #p CCSD(T)/CEP-31G
 ------------------

 ------------
 H2O_H2O_4725
 ------------
 Symbolic Z-matrix:
 Charge =  0 Multiplicity = 1

                         Standard orientation:
 ---------------------------------------------------------------------
 Center     Atomic      Atomic             Coordinates (Angstroms)
 Number     Number       Type             X           Y           Z
 ---------------------------------------------------------------------
      1          8           0        0.000000   -0.000000    3.316526
      2          1           0        0.000000    0.799571    3.887658
      3          1           0       -0.000000   -0.799571    3.887658
      4          8           0        0.000000   -0.000000   -3.316526
      5          1           0       -0.000000   -0.799571   -3.887658
      6          1           0        0.000000    0.799571   -3.887658
 ---------------------------------------------------------------------

 SCF Done:  E(RHF) =  -33.6507630004     A.U. after   10 cycles
 E2 =    -0.2284313545D+00 EUMP2 =    -0.33879194354983D+02
 CCSD(T)
 CCSD(T)= -0.33896224258D+02

 The electronic state is 1-AG.
 Alpha  occ. eigenvalues --   -1.35048  -1.35048  -0.70676  -0.70676  -0.54726
 Alpha  occ. eigenvalues --   -0.54725  -0.49603  -0.49603
 Alpha virt. eigenvalues --    0.20667   0.20667   0.30899   0.30899   0.80950
 Alpha virt. eigenvalues --    0.80950   0.84071   0.84076   0.87148   0.87149
 Alpha virt. eigenvalues --    1.17810   1.17810   1.22276   1.22276   2.57852

 Mulliken charges:
               1
     1  O   -0.737457
     2  H    0.368728
     3  H    0.368728
     4  O   -0.737457
     5  H    0.368728
     6  H    0.368728
 Sum of Mulliken charges =   0.00000

 Dipole moment (field-independent basis, Debye):
    X=             -0.0000    Y=              0.0000    Z=             -0.0000  Tot=              0.0000
 Quadrupole moment (field-independent basis, Debye-Ang):
   XX=            -14.9869   YY=             -8.0358   ZZ=             23.1958
   XY=              0.0000   XZ=              0.0000   YZ=             -0.0000

 3.8905721\MP4SDQ=-33.8926025\CCSD=-33.8936599\CCSD(T)=-33.8962243\RMSD
 Normal termination of Gaussian 16 at Sun Dec 10 07:06:44 2023.
