 Gaussian 16, Revision A.03,
 Gaussian 16:  ES64L-G16RevA.03 25-Dec-2016

 ------------------
 #p CCSD(T)/CEP-31G
 ------------------

 ------------
 H2O_H2O_4077
 ------------
 Symbolic Z-matrix:
 Charge =  0 Multiplicity = 1

                         Standard orientation:
 ---------------------------------------------------------------------
 Center     Atomic      Atomic             Coordinates (Angstroms)
 Number     Number       Type             X           Y           Z
 ---------------------------------------------------------------------
      1          8           0        0.007455   -2.970303    0.000000
      2          1           0       -0.792239   -3.541262    0.000000
      3          1           0        0.806903   -3.541608    0.000000
      4          8           0        0.007455    2.971277    0.000000
      5          1           0        0.725783    3.641733    0.000000
      6          1           0       -0.859724    3.433345    0.000000
 ---------------------------------------------------------------------

 SCF Done:  E(RHF) =  -33.6503635955     A.U. after   11 cycles
 E2 =    -0.2284553336D+00 EUMP2 =    -0.33878818929130D+02
 CCSD(T)
 CCSD(T)= -0.33895860241D+02

 The electronic state is 1-A'.
 Alpha  occ. eigenvalues --   -1.34918  -1.34910  -0.70545  -0.70536  -0.54573
 Alpha  occ. eigenvalues --   -0.54565  -0.49468  -0.49460
 Alpha virt. eigenvalues --    0.20774   0.20784   0.31005   0.31013   0.81086
 Alpha virt. eigenvalues --    0.81094   0.84221   0.84291   0.87305   0.87316
 Alpha virt. eigenvalues --    1.17923   1.17931   1.22393   1.22401   2.57974

 Mulliken charges:
               1
     1  O   -0.736064
     2  H    0.367800
     3  H    0.368264
     4  O   -0.736049
     5  H    0.367706
     6  H    0.368343
 Sum of Mulliken charges =  -0.00000

 Dipole moment (field-independent basis, Debye):
    X=             -0.3439    Y=             -0.0228    Z=              0.0000  Tot=              0.3446
 Quadrupole moment (field-independent basis, Debye-Ang):
   XX=             -8.0782   YY=             19.3970   ZZ=            -14.9865
   XY=             -0.7941   XZ=              0.0000   YZ=              0.0000

 P4DQ=-33.8902049\MP4SDQ=-33.8922364\CCSD=-33.8932944\CCSD(T)=-33.89586
 Normal termination of Gaussian 16 at Sun Dec 10 06:53:31 2023.
