 Gaussian 16, Revision A.03,
 Gaussian 16:  ES64L-G16RevA.03 25-Dec-2016

 ------------------
 #p CCSD(T)/CEP-31G
 ------------------

 ------------
 H2O_H2O_2388
 ------------
 Symbolic Z-matrix:
 Charge =  0 Multiplicity = 1

                         Standard orientation:
 ---------------------------------------------------------------------
 Center     Atomic      Atomic             Coordinates (Angstroms)
 Number     Number       Type             X           Y           Z
 ---------------------------------------------------------------------
      1          8           0        0.042975   -2.045660    0.000000
      2          1           0       -0.757617   -2.615360    0.000000
      3          1           0        0.841522   -2.618222    0.000000
      4          8           0        0.042975    2.084418    0.000000
      5          1           0        0.142519    3.061964    0.000000
      6          1           0       -0.914020    1.861554    0.000000
 ---------------------------------------------------------------------

 SCF Done:  E(RHF) =  -33.6494844461     A.U. after   11 cycles
 E2 =    -0.2286040222D+00 EUMP2 =    -0.33878088468254D+02
 CCSD(T)
 CCSD(T)= -0.33895158169D+02

 The electronic state is 1-A'.
 Alpha  occ. eigenvalues --   -1.34843  -1.34135  -0.70471  -0.69730  -0.54458
 Alpha  occ. eigenvalues --   -0.53714  -0.49381  -0.48677
 Alpha virt. eigenvalues --    0.20564   0.21729   0.31019   0.31726   0.80412
 Alpha virt. eigenvalues --    0.81009   0.82021   0.85981   0.87545   0.92069
 Alpha virt. eigenvalues --    1.17962   1.18716   1.22409   1.23196   2.57955

 Mulliken charges:
               1
     1  O   -0.733211
     2  H    0.363086
     3  H    0.370225
     4  O   -0.731050
     5  H    0.360140
     6  H    0.370810
 Sum of Mulliken charges =   0.00000

 Dipole moment (field-independent basis, Debye):
    X=             -1.9645    Y=             -0.9310    Z=              0.0000  Tot=              2.1739
 Quadrupole moment (field-independent basis, Debye-Ang):
   XX=             -9.2470   YY=              7.0509   ZZ=            -14.9867
   XY=             -3.3453   XZ=              0.0000   YZ=              0.0000

 \MP4DQ=-33.8894885\MP4SDQ=-33.8915282\CCSD=-33.8925826\CCSD(T)=-33.895
 Normal termination of Gaussian 16 at Sun Dec 10 07:10:22 2023.
