 Gaussian 16, Revision A.03,
 Gaussian 16:  ES64L-G16RevA.03 25-Dec-2016

 ------------------
 #p CCSD(T)/CEP-31G
 ------------------

 ------------
 H2O_H2O_4709
 ------------
 Symbolic Z-matrix:
 Charge =  0 Multiplicity = 1

                         Standard orientation:
 ---------------------------------------------------------------------
 Center     Atomic      Atomic             Coordinates (Angstroms)
 Number     Number       Type             X           Y           Z
 ---------------------------------------------------------------------
      1          8           0        0.031738   -3.292804    0.000000
      2          1           0       -0.768305   -3.863274    0.000000
      3          1           0        0.830837   -3.864597    0.000000
      4          8           0        0.031738    3.312002    0.000000
      5          1           0        0.380013    4.230811    0.000000
      6          1           0       -0.950359    3.343474    0.000000
 ---------------------------------------------------------------------

 SCF Done:  E(RHF) =  -33.6509799190     A.U. after   11 cycles
 E2 =    -0.2284231453D+00 EUMP2 =    -0.33879403064283D+02
 CCSD(T)
 CCSD(T)= -0.33896426724D+02

 The electronic state is 1-A'.
 Alpha  occ. eigenvalues --   -1.35164  -1.35033  -0.70793  -0.70658  -0.54854
 Alpha  occ. eigenvalues --   -0.54722  -0.49724  -0.49592
 Alpha virt. eigenvalues --    0.20562   0.20696   0.30796   0.30926   0.80830
 Alpha virt. eigenvalues --    0.80960   0.83932   0.84061   0.87015   0.87166
 Alpha virt. eigenvalues --    1.17703   1.17833   1.22167   1.22298   2.57740

 Mulliken charges:
               1
     1  O   -0.738237
     2  H    0.368389
     3  H    0.369848
     4  O   -0.738081
     5  H    0.367925
     6  H    0.370157
 Sum of Mulliken charges =  -0.00000

 Dipole moment (field-independent basis, Debye):
    X=             -1.4656    Y=             -0.4485    Z=              0.0000  Tot=              1.5326
 Quadrupole moment (field-independent basis, Debye-Ang):
   XX=             -8.6901   YY=             20.6742   ZZ=            -14.9873
   XY=             -4.0467   XZ=              0.0000   YZ=              0.0000

 P4DQ=-33.8907763\MP4SDQ=-33.8928061\CCSD=-33.8938631\CCSD(T)=-33.89642
 Normal termination of Gaussian 16 at Sun Dec 10 07:06:27 2023.
