 Gaussian 16, Revision A.03,
 Gaussian 16:  ES64L-G16RevA.03 25-Dec-2016

 ------------------
 #p CCSD(T)/CEP-31G
 ------------------

 ------------
 H2O_H2O_2982
 ------------
 Symbolic Z-matrix:
 Charge =  0 Multiplicity = 1

                         Standard orientation:
 ---------------------------------------------------------------------
 Center     Atomic      Atomic             Coordinates (Angstroms)
 Number     Number       Type             X           Y           Z
 ---------------------------------------------------------------------
      1          8           0        0.025266   -2.379439    0.000000
      2          1           0       -0.774825   -2.949842    0.000000
      3          1           0        0.824316   -2.951300    0.000000
      4          8           0        0.025266    2.391173    0.000000
      5          1           0        0.490563    3.256623    0.000000
      6          1           0       -0.944308    2.550648    0.000000
 ---------------------------------------------------------------------

 SCF Done:  E(RHF) =  -33.6493793477     A.U. after   11 cycles
 E2 =    -0.2285290417D+00 EUMP2 =    -0.33877908389365D+02
 CCSD(T)
 CCSD(T)= -0.33894978465D+02

 The electronic state is 1-A'.
 Alpha  occ. eigenvalues --   -1.34686  -1.34529  -0.70311  -0.70147  -0.54291
 Alpha  occ. eigenvalues --   -0.54116  -0.49222  -0.49066
 Alpha virt. eigenvalues --    0.20913   0.21151   0.31183   0.31332   0.81306
 Alpha virt. eigenvalues --    0.81507   0.83550   0.85661   0.87581   0.88006
 Alpha virt. eigenvalues --    1.18115   1.18269   1.22594   1.22750   2.58191

 Mulliken charges:
               1
     1  O   -0.732726
     2  H    0.364932
     3  H    0.367797
     4  O   -0.732261
     5  H    0.364206
     6  H    0.368052
 Sum of Mulliken charges =  -0.00000

 Dipole moment (field-independent basis, Debye):
    X=             -1.1608    Y=             -0.2781    Z=              0.0000  Tot=              1.1937
 Quadrupole moment (field-independent basis, Debye-Ang):
   XX=             -8.4700   YY=             12.2656   ZZ=            -14.9857
   XY=             -2.1117   XZ=              0.0000   YZ=              0.0000

 MP4DQ=-33.8893145\MP4SDQ=-33.8913493\CCSD=-33.892408\CCSD(T)=-33.89497
 Normal termination of Gaussian 16 at Sun Dec 10 06:33:38 2023.
