 Gaussian 16, Revision A.03,
 Gaussian 16:  ES64L-G16RevA.03 25-Dec-2016

 ------------------
 #p CCSD(T)/CEP-31G
 ------------------

 ------------
 H2O_H2O_3476
 ------------
 Symbolic Z-matrix:
 Charge =  0 Multiplicity = 1

                         Standard orientation:
 ---------------------------------------------------------------------
 Center     Atomic      Atomic             Coordinates (Angstroms)
 Number     Number       Type             X           Y           Z
 ---------------------------------------------------------------------
      1          8           0        0.003735   -2.651598    0.000000
      2          1           0       -0.795905   -3.222633    0.000000
      3          1           0        0.803237   -3.222827    0.000000
      4          8           0        0.003735    2.651842    0.000000
      5          1           0        0.764317    3.273953    0.000000
      6          1           0       -0.831415    3.169557    0.000000
 ---------------------------------------------------------------------

 SCF Done:  E(RHF) =  -33.6497606011     A.U. after   10 cycles
 E2 =    -0.2284912570D+00 EUMP2 =    -0.33878251858071D+02
 CCSD(T)
 CCSD(T)= -0.33895310551D+02

 The electronic state is 1-A'.
 Alpha  occ. eigenvalues --   -1.34741  -1.34738  -0.70366  -0.70363  -0.54369
 Alpha  occ. eigenvalues --   -0.54348  -0.49282  -0.49279
 Alpha virt. eigenvalues --    0.20901   0.20941   0.31145   0.31153   0.81261
 Alpha virt. eigenvalues --    0.81284   0.84226   0.84787   0.87497   0.87551
 Alpha virt. eigenvalues --    1.18075   1.18078   1.22548   1.22557   2.58133

 Mulliken charges:
               1
     1  O   -0.733981
     2  H    0.366831
     3  H    0.367150
     4  O   -0.733975
     5  H    0.366778
     6  H    0.367197
 Sum of Mulliken charges =  -0.00000

 Dipole moment (field-independent basis, Debye):
    X=             -0.1720    Y=             -0.0057    Z=              0.0000  Tot=              0.1721
 Quadrupole moment (field-independent basis, Debye-Ang):
   XX=             -8.0606   YY=             16.0526   ZZ=            -14.9859
   XY=             -0.3432   XZ=              0.0000   YZ=              0.0000

 MP4DQ=-33.8896503\MP4SDQ=-33.8916836\CCSD=-33.8927424\CCSD(T)=-33.8953
 Normal termination of Gaussian 16 at Sun Dec 10 06:42:27 2023.
