 Gaussian 16, Revision A.03,
 Gaussian 16:  ES64L-G16RevA.03 25-Dec-2016

 ------------------
 #p CCSD(T)/CEP-31G
 ------------------

 ------------
 H2O_H2O_3262
 ------------
 Symbolic Z-matrix:
 Charge =  0 Multiplicity = 1

                         Standard orientation:
 ---------------------------------------------------------------------
 Center     Atomic      Atomic             Coordinates (Angstroms)
 Number     Number       Type             X           Y           Z
 ---------------------------------------------------------------------
      1          8           0        0.040408   -2.513957    0.000000
      2          1           0       -0.759947   -3.083990    0.000000
      3          1           0        0.839194   -3.086187    0.000000
      4          8           0        0.040408    2.547302    0.000000
      5          1           0        0.203270    3.516313    0.000000
      6          1           0       -0.929047    2.387103    0.000000
 ---------------------------------------------------------------------

 SCF Done:  E(RHF) =  -33.6503501378     A.U. after   11 cycles
 E2 =    -0.2284800085D+00 EUMP2 =    -0.33878830146254D+02
 CCSD(T)
 CCSD(T)= -0.33895872187D+02

 The electronic state is 1-A'.
 Alpha  occ. eigenvalues --   -1.35014  -1.34618  -0.70642  -0.70232  -0.54668
 Alpha  occ. eigenvalues --   -0.54269  -0.49564  -0.49169
 Alpha virt. eigenvalues --    0.20666   0.21091   0.30910   0.31296   0.80987
 Alpha virt. eigenvalues --    0.81378   0.83845   0.84794   0.87205   0.87762
 Alpha virt. eigenvalues --    1.17827   1.18219   1.22297   1.22692   2.57877

 Mulliken charges:
               1
     1  O   -0.736111
     2  H    0.366124
     3  H    0.369989
     4  O   -0.735320
     5  H    0.364694
     6  H    0.370625
 Sum of Mulliken charges =   0.00000

 Dipole moment (field-independent basis, Debye):
    X=             -1.8589    Y=             -0.7872    Z=              0.0000  Tot=              2.0187
 Quadrupole moment (field-independent basis, Debye-Ang):
   XX=             -9.1023   YY=             11.7745   ZZ=            -14.9869
   XY=             -3.9187   XZ=              0.0000   YZ=              0.0000

 MP4DQ=-33.8902163\MP4SDQ=-33.8922483\CCSD=-33.8933053\CCSD(T)=-33.8958
 Normal termination of Gaussian 16 at Sun Dec 10 06:38:35 2023.
