 Gaussian 16, Revision A.03,
 Gaussian 16:  ES64L-G16RevA.03 25-Dec-2016

 ------------------
 #p CCSD(T)/CEP-31G
 ------------------

 ------------
 H2O_H2O_1179
 ------------
 Symbolic Z-matrix:
 Charge =  0 Multiplicity = 1

                         Standard orientation:
 ---------------------------------------------------------------------
 Center     Atomic      Atomic             Coordinates (Angstroms)
 Number     Number       Type             X           Y           Z
 ---------------------------------------------------------------------
      1          8           0        0.014784   -1.426407    0.000000
      2          1           0       -0.785296   -1.996826    0.000000
      3          1           0        0.813846   -1.998251    0.000000
      4          8           0        0.014784    1.430272    0.000000
      5          1           0        0.639966    2.188332    0.000000
      6          1           0       -0.905056    1.775819    0.000000
 ---------------------------------------------------------------------

 SCF Done:  E(RHF) =  -33.6389195196     A.U. after   11 cycles
 E2 =    -0.2293974783D+00 EUMP2 =    -0.33868316997904D+02
 CCSD(T)
 CCSD(T)= -0.33885712456D+02

 The electronic state is 1-A'.
 Alpha  occ. eigenvalues --   -1.33168  -1.32859  -0.68759  -0.68487  -0.53893
 Alpha  occ. eigenvalues --   -0.50264  -0.47778  -0.47070
 Alpha virt. eigenvalues --    0.21272   0.23310   0.32243   0.32568   0.79673
 Alpha virt. eigenvalues --    0.80250   0.81656   0.86821   0.98967   1.10149
 Alpha virt. eigenvalues --    1.19304   1.20334   1.24135   1.24241   2.58917

 Mulliken charges:
               1
     1  O   -0.707095
     2  H    0.350088
     3  H    0.356731
     4  O   -0.704967
     5  H    0.350430
     6  H    0.354813
 Sum of Mulliken charges =   0.00000

 Dipole moment (field-independent basis, Debye):
    X=             -0.6537    Y=             -0.0959    Z=              0.0000  Tot=              0.6607
 Quadrupole moment (field-independent basis, Debye-Ang):
   XX=             -8.3291   YY=              2.3130   ZZ=            -14.9863
   XY=             -0.5925   XZ=              0.0000   YZ=              0.0000

 MP4DQ=-33.8798777\MP4SDQ=-33.8819723\CCSD=-33.8830576\CCSD(T)=-33.8857
 Normal termination of Gaussian 16 at Sun Dec 10 06:46:47 2023.
