 Gaussian 16, Revision A.03,
 Gaussian 16:  ES64L-G16RevA.03 25-Dec-2016

 ------------------
 #p CCSD(T)/CEP-31G
 ------------------

 ------------
 H2O_H2O_2636
 ------------
 Symbolic Z-matrix:
 Charge =  0 Multiplicity = 1

                         Standard orientation:
 ---------------------------------------------------------------------
 Center     Atomic      Atomic             Coordinates (Angstroms)
 Number     Number       Type             X           Y           Z
 ---------------------------------------------------------------------
      1          8           0        0.037678   -2.184334    0.000000
      2          1           0       -0.762734   -2.754286    0.000000
      3          1           0        0.836406   -2.756644    0.000000
      4          8           0        0.037678    2.212569    0.000000
      5          1           0        0.263664    3.168831    0.000000
      6          1           0       -0.940189    2.116217    0.000000
 ---------------------------------------------------------------------

 SCF Done:  E(RHF) =  -33.6494166943     A.U. after   11 cycles
 E2 =    -0.2285627179D+00 EUMP2 =    -0.33877979412218D+02
 CCSD(T)
 CCSD(T)= -0.33895049280D+02

 The electronic state is 1-A'.
 Alpha  occ. eigenvalues --   -1.34771  -1.34321  -0.70397  -0.69927  -0.54379
 Alpha  occ. eigenvalues --   -0.53904  -0.49307  -0.48860
 Alpha virt. eigenvalues --    0.20756   0.21430   0.31100   0.31534   0.81175
 Alpha virt. eigenvalues --    0.81751   0.82123   0.85985   0.87551   0.89620
 Alpha virt. eigenvalues --    1.18032   1.18483   1.22506   1.22966   2.58098

 Mulliken charges:
               1
     1  O   -0.732937
     2  H    0.363832
     3  H    0.369135
     4  O   -0.731581
     5  H    0.361987
     6  H    0.369566
 Sum of Mulliken charges =  -0.00000

 Dipole moment (field-independent basis, Debye):
    X=             -1.7266    Y=             -0.6736    Z=              0.0000  Tot=              1.8534
 Quadrupole moment (field-independent basis, Debye-Ang):
   XX=             -8.9732   YY=              9.0985   ZZ=            -14.9862
   XY=             -3.0315   XZ=              0.0000   YZ=              0.0000

 \MP4DQ=-33.8893834\MP4SDQ=-33.8914199\CCSD=-33.8924768\CCSD(T)=-33.895
 Normal termination of Gaussian 16 at Sun Dec 10 06:27:16 2023.
