 Gaussian 16, Revision A.03,
 Gaussian 16:  ES64L-G16RevA.03 25-Dec-2016

 ------------------
 #p CCSD(T)/CEP-31G
 ------------------

 ------------
 H2O_H2O_3982
 ------------
 Symbolic Z-matrix:
 Charge =  0 Multiplicity = 1

                         Standard orientation:
 ---------------------------------------------------------------------
 Center     Atomic      Atomic             Coordinates (Angstroms)
 Number     Number       Type             X           Y           Z
 ---------------------------------------------------------------------
      1          8           0        0.025265   -2.911271    0.000000
      2          1           0       -0.774732   -3.481807    0.000000
      3          1           0        0.824410   -3.482999    0.000000
      4          8           0        0.025265    2.923013    0.000000
      5          1           0        0.490418    3.788541    0.000000
      6          1           0       -0.944336    3.082327    0.000000
 ---------------------------------------------------------------------

 SCF Done:  E(RHF) =  -33.6504706626     A.U. after   11 cycles
 E2 =    -0.2284535717D+00 EUMP2 =    -0.33878924234363D+02
 CCSD(T)
 CCSD(T)= -0.33895962495D+02

 The electronic state is 1-A'.
 Alpha  occ. eigenvalues --   -1.34981  -1.34876  -0.70608  -0.70501  -0.54641
 Alpha  occ. eigenvalues --   -0.54537  -0.49532  -0.49428
 Alpha virt. eigenvalues --    0.20718   0.20824   0.30950   0.31051   0.81022
 Alpha virt. eigenvalues --    0.81124   0.84159   0.84295   0.87235   0.87361
 Alpha virt. eigenvalues --    1.17865   1.17968   1.22334   1.22437   2.57914

 Mulliken charges:
               1
     1  O   -0.736456
     2  H    0.367404
     3  H    0.369052
     4  O   -0.736271
     5  H    0.366957
     6  H    0.369314
 Sum of Mulliken charges =  -0.00000

 Dipole moment (field-independent basis, Debye):
    X=             -1.1651    Y=             -0.2754    Z=              0.0000  Tot=              1.1972
 Quadrupole moment (field-independent basis, Debye-Ang):
   XX=             -8.4557   YY=             17.6988   ZZ=            -14.9867
   XY=             -2.7172   XZ=              0.0000   YZ=              0.0000

 MP4DQ=-33.890308\MP4SDQ=-33.8923393\CCSD=-33.893397\CCSD(T)=-33.895962
 Normal termination of Gaussian 16 at Sun Dec 10 06:51:46 2023.
