 Gaussian 16, Revision A.03,
 Gaussian 16:  ES64L-G16RevA.03 25-Dec-2016

 ------------------
 #p CCSD(T)/CEP-31G
 ------------------

 ------------
 H2O_H2O_1662
 ------------
 Symbolic Z-matrix:
 Charge =  0 Multiplicity = 1

                         Standard orientation:
 ---------------------------------------------------------------------
 Center     Atomic      Atomic             Coordinates (Angstroms)
 Number     Number       Type             X           Y           Z
 ---------------------------------------------------------------------
      1          8           0        0.040420   -1.663048    0.000000
      2          1           0       -0.760332   -2.232524    0.000000
      3          1           0        0.838807   -2.235834    0.000000
      4          8           0        0.040420    1.696337    0.000000
      5          1           0        0.203956    2.665234    0.000000
      6          1           0       -0.929147    1.536812    0.000000
 ---------------------------------------------------------------------

 SCF Done:  E(RHF) =  -33.6469191103     A.U. after   11 cycles
 E2 =    -0.2289663732D+00 EUMP2 =    -0.33875885483475D+02
 CCSD(T)
 CCSD(T)= -0.33893067565D+02

 The electronic state is 1-A'.
 Alpha  occ. eigenvalues --   -1.34401  -1.33475  -0.70029  -0.69050  -0.54102
 Alpha  occ. eigenvalues --   -0.52673  -0.48919  -0.47977
 Alpha virt. eigenvalues --    0.20452   0.22740   0.31338   0.32221   0.75485
 Alpha virt. eigenvalues --    0.80223   0.84007   0.85025   0.90057   1.05832
 Alpha virt. eigenvalues --    1.18284   1.19911   1.22819   1.23905   2.58065

 Mulliken charges:
               1
     1  O   -0.725599
     2  H    0.357123
     3  H    0.368744
     4  O   -0.720442
     5  H    0.352508
     6  H    0.367666
 Sum of Mulliken charges =   0.00000

 Dipole moment (field-independent basis, Debye):
    X=             -1.8229    Y=             -0.8237    Z=              0.0000  Tot=              2.0004
 Quadrupole moment (field-independent basis, Debye-Ang):
   XX=             -9.1348   YY=              3.7797   ZZ=            -14.9859
   XY=             -2.3971   XZ=              0.0000   YZ=              0.0000

 \MP4DQ=-33.8873315\MP4SDQ=-33.8894075\CCSD=-33.8904604\CCSD(T)=-33.893
 Normal termination of Gaussian 16 at Sun Dec 10 06:55:47 2023.
