 Gaussian 16, Revision A.03,
 Gaussian 16:  ES64L-G16RevA.03 25-Dec-2016

 ------------------
 #p CCSD(T)/CEP-31G
 ------------------

 ------------
 H2O_H2O_1245
 ------------
 Symbolic Z-matrix:
 Charge =  0 Multiplicity = 1

                         Standard orientation:
 ---------------------------------------------------------------------
 Center     Atomic      Atomic             Coordinates (Angstroms)
 Number     Number       Type             X           Y           Z
 ---------------------------------------------------------------------
      1          8           0        0.055305   -1.409312    0.000000
      2          1           0       -0.746130   -1.977825    0.000000
      3          1           0        0.853003   -1.983057    0.000000
      4          8           0        0.055305    1.493613    0.000000
      5          1           0       -0.286409    2.414882    0.000000
      6          1           0       -0.705349    0.871591    0.000000
 ---------------------------------------------------------------------

 SCF Done:  E(RHF) =  -33.6507038538     A.U. after   11 cycles
 E2 =    -0.2293928417D+00 EUMP2 =    -0.33880096695487D+02
 CCSD(T)
 CCSD(T)= -0.33897202998D+02

 The electronic state is 1-A'.
 Alpha  occ. eigenvalues --   -1.35708  -1.32462  -0.71361  -0.68157  -0.55358
 Alpha  occ. eigenvalues --   -0.52120  -0.50287  -0.47032
 Alpha virt. eigenvalues --    0.19362   0.24884   0.30286   0.33923   0.77699
 Alpha virt. eigenvalues --    0.78121   0.85970   0.86893   0.90621   1.13532
 Alpha virt. eigenvalues --    1.17290   1.20567   1.22246   1.28733   2.57362

 Mulliken charges:
               1
     1  O   -0.746722
     2  H    0.361312
     3  H    0.385886
     4  O   -0.729625
     5  H    0.344016
     6  H    0.385133
 Sum of Mulliken charges =  -0.00000

 Dipole moment (field-independent basis, Debye):
    X=             -2.4475    Y=             -2.1383    Z=              0.0000  Tot=              3.2500
 Quadrupole moment (field-independent basis, Debye-Ang):
   XX=             -9.9997   YY=             -1.1426   ZZ=            -14.9955
   XY=             -3.5828   XZ=              0.0000   YZ=              0.0000

 2\MP4DQ=-33.8913896\MP4SDQ=-33.8935083\CCSD=-33.8945416\CCSD(T)=-33.89
 Normal termination of Gaussian 16 at Sun Dec 10 06:48:02 2023.
