 Gaussian 16, Revision A.03,
 Gaussian 16:  ES64L-G16RevA.03 25-Dec-2016

 ------------------
 #p CCSD(T)/CEP-31G
 ------------------

 ------------
 H2O_H2O_2614
 ------------
 Symbolic Z-matrix:
 Charge =  0 Multiplicity = 1

                         Standard orientation:
 ---------------------------------------------------------------------
 Center     Atomic      Atomic             Coordinates (Angstroms)
 Number     Number       Type             X           Y           Z
 ---------------------------------------------------------------------
      1          8           0        0.045351   -2.162190    0.000000
      2          1           0       -0.755239   -2.731893    0.000000
      3          1           0        0.843901   -2.734748    0.000000
      4          8           0        0.045351    2.206717    0.000000
      5          1           0        0.080743    3.188682    0.000000
      6          1           0       -0.895018    1.921736    0.000000
 ---------------------------------------------------------------------

 SCF Done:  E(RHF) =  -33.6500688512     A.U. after   11 cycles
 E2 =    -0.2285437356D+00 EUMP2 =    -0.33878612586853D+02
 CCSD(T)
 CCSD(T)= -0.33895663908D+02

 The electronic state is 1-A'.
 Alpha  occ. eigenvalues --   -1.34994  -1.34272  -0.70623  -0.69870  -0.54634
 Alpha  occ. eigenvalues --   -0.53898  -0.49540  -0.48822
 Alpha virt. eigenvalues --    0.20538   0.21543   0.30903   0.31625   0.80960
 Alpha virt. eigenvalues --    0.81768   0.81888   0.85706   0.87259   0.89913
 Alpha virt. eigenvalues --    1.17835   1.18576   1.22285   1.23063   2.57889

 Mulliken charges:
               1
     1  O   -0.735219
     2  H    0.364409
     3  H    0.370863
     4  O   -0.733423
     5  H    0.361600
     6  H    0.371771
 Sum of Mulliken charges =  -0.00000

 Dipole moment (field-independent basis, Debye):
    X=             -2.0777    Y=             -1.0630    Z=              0.0000  Tot=              2.3339
 Quadrupole moment (field-independent basis, Debye-Ang):
   XX=             -9.3775   YY=              7.6653   ZZ=            -14.9871
   XY=             -3.8540   XZ=              0.0000   YZ=              0.0000

 \MP4DQ=-33.8900026\MP4SDQ=-33.8920379\CCSD=-33.8930929\CCSD(T)=-33.895
 Normal termination of Gaussian 16 at Sun Dec 10 06:26:51 2023.
