 Gaussian 16, Revision A.03,
 Gaussian 16:  ES64L-G16RevA.03 25-Dec-2016

 ------------------
 #p CCSD(T)/CEP-31G
 ------------------

 ------------
 H2O_H2O_3511
 ------------
 Symbolic Z-matrix:
 Charge =  0 Multiplicity = 1

                         Standard orientation:
 ---------------------------------------------------------------------
 Center     Atomic      Atomic             Coordinates (Angstroms)
 Number     Number       Type             X           Y           Z
 ---------------------------------------------------------------------
      1          8           0        0.037675   -2.649681    0.000000
      2          1           0       -0.762591   -3.219840    0.000000
      3          1           0        0.836550   -3.221786    0.000000
      4          8           0        0.037675    2.677936    0.000000
      5          1           0        0.263414    3.634255    0.000000
      6          1           0       -0.940168    2.581331    0.000000
 ---------------------------------------------------------------------

 SCF Done:  E(RHF) =  -33.6504352451     A.U. after   11 cycles
 E2 =    -0.2284672008D+00 EUMP2 =    -0.33878902445907D+02
 CCSD(T)
 CCSD(T)= -0.33895941865D+02

 The electronic state is 1-A'.
 Alpha  occ. eigenvalues --   -1.35020  -1.34717  -0.70647  -0.70335  -0.54678
 Alpha  occ. eigenvalues --   -0.54375  -0.49571  -0.49270
 Alpha virt. eigenvalues --    0.20674   0.20987   0.30910   0.31204   0.80982
 Alpha virt. eigenvalues --    0.81279   0.84026   0.84539   0.87195   0.87578
 Alpha virt. eigenvalues --    1.17825   1.18123   1.22294   1.22594   2.57874

 Mulliken charges:
               1
     1  O   -0.736379
     2  H    0.366621
     3  H    0.369758
     4  O   -0.735817
     5  H    0.365535
     6  H    0.370282
 Sum of Mulliken charges =  -0.00000

 Dipole moment (field-independent basis, Debye):
    X=             -1.7349    Y=             -0.6652    Z=              0.0000  Tot=              1.8580
 Quadrupole moment (field-independent basis, Debye-Ang):
   XX=             -8.9634   YY=             13.5136   ZZ=            -14.9869
   XY=             -3.8189   XZ=              0.0000   YZ=              0.0000

 MP4DQ=-33.8902869\MP4SDQ=-33.8923185\CCSD=-33.8933757\CCSD(T)=-33.8959
 Normal termination of Gaussian 16 at Sun Dec 10 06:43:05 2023.
