 Gaussian 16, Revision A.03,
 Gaussian 16:  ES64L-G16RevA.03 25-Dec-2016

 ------------------
 #p CCSD(T)/CEP-31G
 ------------------

 -----------
 H2O_H2O_309
 -----------
 Symbolic Z-matrix:
 Charge =  0 Multiplicity = 1

                         Standard orientation:
 ---------------------------------------------------------------------
 Center     Atomic      Atomic             Coordinates (Angstroms)
 Number     Number       Type             X           Y           Z
 ---------------------------------------------------------------------
      1          8           0        0.031758   -0.952790    0.000000
      2          1           0       -0.769431   -1.521650    0.000000
      3          1           0        0.829704   -1.526189    0.000000
      4          8           0        0.031758    0.971861    0.000000
      5          1           0        0.381880    1.889967    0.000000
      6          1           0       -0.950274    1.005308    0.000000
 ---------------------------------------------------------------------

 SCF Done:  E(RHF) =  -33.5827006268     A.U. after   11 cycles
 E2 =    -0.2331025691D+00 EUMP2 =    -0.33815803195984D+02
 CCSD(T)
 CCSD(T)= -0.33832936989D+02

 The electronic state is 1-A'.
 Alpha  occ. eigenvalues --   -1.34299  -1.30200  -0.69544  -0.66950  -0.58814
 Alpha  occ. eigenvalues --   -0.49178  -0.43926  -0.40948
 Alpha virt. eigenvalues --    0.20920   0.26884   0.32108   0.33398   0.80805
 Alpha virt. eigenvalues --    0.82341   0.90022   0.95852   1.00585   1.19400
 Alpha virt. eigenvalues --    1.19648   1.24282   1.26574   1.31136   2.50214

 Mulliken charges:
               1
     1  O   -0.729392
     2  H    0.340583
     3  H    0.375399
     4  O   -0.677064
     5  H    0.347478
     6  H    0.342996
 Sum of Mulliken charges =  -0.00000

 Dipole moment (field-independent basis, Debye):
    X=             -1.2183    Y=             -0.4613    Z=              0.0000  Tot=              1.3027
 Quadrupole moment (field-independent basis, Debye-Ang):
   XX=             -8.9288   YY=             -4.6659   ZZ=            -15.0100
   XY=             -0.8160   XZ=              0.0000   YZ=              0.0000

 DQ=-33.8266166\MP4SDQ=-33.8289751\CCSD=-33.8299094\CCSD(T)=-33.832937\
 Normal termination of Gaussian 16 at Sun Dec 10 06:30:33 2023.
