 Gaussian 16, Revision A.03,
 Gaussian 16:  ES64L-G16RevA.03 25-Dec-2016

 ------------------
 #p CCSD(T)/CEP-31G
 ------------------

 ------------
 H2O_H2O_1602
 ------------
 Symbolic Z-matrix:
 Charge =  0 Multiplicity = 1

                         Standard orientation:
 ---------------------------------------------------------------------
 Center     Atomic      Atomic             Coordinates (Angstroms)
 Number     Number       Type             X           Y           Z
 ---------------------------------------------------------------------
      1          8           0        0.007455   -1.654009    0.000000
      2          1           0       -0.792337   -2.224831    0.000000
      3          1           0        0.806804   -2.225451    0.000000
      4          8           0        0.007455    1.654981    0.000000
      5          1           0        0.725898    2.325313    0.000000
      6          1           0       -0.859645    2.117198    0.000000
 ---------------------------------------------------------------------

 SCF Done:  E(RHF) =  -33.6435113405     A.U. after   11 cycles
 E2 =    -0.2289941845D+00 EUMP2 =    -0.33872505525011D+02
 CCSD(T)
 CCSD(T)= -0.33889776081D+02

 The electronic state is 1-A'.
 Alpha  occ. eigenvalues --   -1.33598  -1.33514  -0.69212  -0.69131  -0.53618
 Alpha  occ. eigenvalues --   -0.51985  -0.48151  -0.47875
 Alpha virt. eigenvalues --    0.21161   0.22483   0.31850   0.32211   0.76669
 Alpha virt. eigenvalues --    0.80579   0.84409   0.84508   0.93867   1.03074
 Alpha virt. eigenvalues --    1.18986   1.19137   1.23374   1.23916   2.58891

 Mulliken charges:
               1
     1  O   -0.714572
     2  H    0.356157
     3  H    0.358418
     4  O   -0.714347
     5  H    0.355983
     6  H    0.358362
 Sum of Mulliken charges =   0.00000

 Dipole moment (field-independent basis, Debye):
    X=             -0.3369    Y=             -0.0242    Z=              0.0000  Tot=              0.3377
 Quadrupole moment (field-independent basis, Debye-Ang):
   XX=             -8.1808   YY=              5.1017   ZZ=            -14.9833
   XY=             -0.3635   XZ=              0.0000   YZ=              0.0000

 P4DQ=-33.8840183\MP4SDQ=-33.8860941\CCSD=-33.8871606\CCSD(T)=-33.88977
 Normal termination of Gaussian 16 at Sun Dec 10 06:54:40 2023.
