 Gaussian 16, Revision A.03,
 Gaussian 16:  ES64L-G16RevA.03 25-Dec-2016

 ------------------
 #p CCSD(T)/CEP-31G
 ------------------

 ------------
 H2O_H2O_4491
 ------------
 Symbolic Z-matrix:
 Charge =  0 Multiplicity = 1

                         Standard orientation:
 ---------------------------------------------------------------------
 Center     Atomic      Atomic             Coordinates (Angstroms)
 Number     Number       Type             X           Y           Z
 ---------------------------------------------------------------------
      1          8           0        0.049500   -3.152621    0.000000
      2          1           0       -0.750835   -3.722682    0.000000
      3          1           0        0.848305   -3.724823    0.000000
      4          8           0        0.049500    3.209602    0.000000
      5          1           0       -0.044020    4.187743    0.000000
      6          1           0       -0.845444    2.803916    0.000000
 ---------------------------------------------------------------------

 SCF Done:  E(RHF) =  -33.6513878148     A.U. after   11 cycles
 E2 =    -0.2284068137D+00 EUMP2 =    -0.33879794628489D+02
 CCSD(T)
 CCSD(T)= -0.33896806410D+02

 The electronic state is 1-A'.
 Alpha  occ. eigenvalues --   -1.35384  -1.34963  -0.71015  -0.70585  -0.55096
 Alpha  occ. eigenvalues --   -0.54673  -0.49949  -0.49529
 Alpha virt. eigenvalues --    0.20365   0.20795   0.30603   0.31023   0.80603
 Alpha virt. eigenvalues --    0.81018   0.83666   0.84085   0.86763   0.87233
 Alpha virt. eigenvalues --    1.17501   1.17919   1.21962   1.22385   2.57528

 Mulliken charges:
               1
     1  O   -0.739705
     2  H    0.368622
     3  H    0.371083
     4  O   -0.739381
     5  H    0.367442
     6  H    0.371940
 Sum of Mulliken charges =  -0.00000

 Dipole moment (field-independent basis, Debye):
    X=             -2.2848    Y=             -1.3326    Z=              0.0000  Tot=              2.6450
 Quadrupole moment (field-independent basis, Debye-Ang):
   XX=             -9.6288   YY=             14.6850   ZZ=            -14.9880
   XY=             -6.6424   XZ=              0.0000   YZ=              0.0000

 6\MP4DQ=-33.8911592\MP4SDQ=-33.8931879\CCSD=-33.8942439\CCSD(T)=-33.89
 Normal termination of Gaussian 16 at Sun Dec 10 07:01:35 2023.
