 Gaussian 16, Revision A.03,
 Gaussian 16:  ES64L-G16RevA.03 25-Dec-2016

 ------------------
 #p CCSD(T)/CEP-31G
 ------------------

 ------------
 H2O_H2O_1546
 ------------
 Symbolic Z-matrix:
 Charge =  0 Multiplicity = 1

                         Standard orientation:
 ---------------------------------------------------------------------
 Center     Atomic      Atomic             Coordinates (Angstroms)
 Number     Number       Type             X           Y           Z
 ---------------------------------------------------------------------
      1          8           0        0.056153   -1.564896    0.000000
      2          1           0       -0.745124   -2.133632    0.000000
      3          1           0        0.854011   -2.138419    0.000000
      4          8           0        0.056153    1.656502    0.000000
      5          1           0       -0.345333    2.553338    0.000000
      6          1           0       -0.662005    0.985864    0.000000
 ---------------------------------------------------------------------

 SCF Done:  E(RHF) =  -33.6525366285     A.U. after   11 cycles
 E2 =    -0.2289912859D+00 EUMP2 =    -0.33881527914422D+02
 CCSD(T)
 CCSD(T)= -0.33898572124D+02

 The electronic state is 1-A'.
 Alpha  occ. eigenvalues --   -1.35857  -1.32949  -0.71503  -0.68529  -0.55629
 Alpha  occ. eigenvalues --   -0.52672  -0.50441  -0.47538
 Alpha virt. eigenvalues --    0.19246   0.24105   0.30130   0.33591   0.76306
 Alpha virt. eigenvalues --    0.78854   0.84337   0.86403   0.88252   1.06461
 Alpha virt. eigenvalues --    1.16957   1.20539   1.21797   1.27977   2.54546

 Mulliken charges:
               1
     1  O   -0.745634
     2  H    0.364224
     3  H    0.382760
     4  O   -0.738627
     5  H    0.350043
     6  H    0.387234
 Sum of Mulliken charges =  -0.00000

 Dipole moment (field-independent basis, Debye):
    X=             -2.5240    Y=             -2.2942    Z=              0.0000  Tot=              3.4109
 Quadrupole moment (field-independent basis, Debye-Ang):
   XX=            -10.0605   YY=             -0.4208   ZZ=            -14.9942
   XY=             -4.1671   XZ=              0.0000   YZ=              0.0000

 \MP4DQ=-33.8928292\MP4SDQ=-33.8949161\CCSD=-33.8959502\CCSD(T)=-33.898
 Normal termination of Gaussian 16 at Sun Dec 10 06:53:38 2023.
