 Gaussian 16, Revision A.03,
 Gaussian 16:  ES64L-G16RevA.03 25-Dec-2016

 ------------------
 #p CCSD(T)/CEP-31G
 ------------------

 ------------
 H2O_H2O_2925
 ------------
 Symbolic Z-matrix:
 Charge =  0 Multiplicity = 1

                         Standard orientation:
 ---------------------------------------------------------------------
 Center     Atomic      Atomic             Coordinates (Angstroms)
 Number     Number       Type             X           Y           Z
 ---------------------------------------------------------------------
      1          8           0        0.000000   -0.000000    2.359221
      2          1           0        0.000000    0.799571    2.930353
      3          1           0       -0.000000   -0.799571    2.930353
      4          8           0        0.000000   -0.000000   -2.359221
      5          1           0       -0.000000   -0.799571   -2.930353
      6          1           0        0.000000    0.799571   -2.930353
 ---------------------------------------------------------------------

 SCF Done:  E(RHF) =  -33.6489109698     A.U. after   10 cycles
 E2 =    -0.2285457428D+00 EUMP2 =    -0.33877456712608D+02
 CCSD(T)
 CCSD(T)= -0.33894540102D+02

 The electronic state is 1-AG.
 Alpha  occ. eigenvalues --   -1.34523  -1.34522  -0.70146  -0.70144  -0.54139
 Alpha  occ. eigenvalues --   -0.54040  -0.49056  -0.49046
 Alpha virt. eigenvalues --    0.21009   0.21176   0.31300   0.31339   0.81424
 Alpha virt. eigenvalues --    0.81575   0.83479   0.86222   0.87617   0.87967
 Alpha virt. eigenvalues --    1.18259   1.18259   1.22718   1.22768   2.58327

 Mulliken charges:
               1
     1  O   -0.731078
     2  H    0.365539
     3  H    0.365539
     4  O   -0.731078
     5  H    0.365539
     6  H    0.365539
 Sum of Mulliken charges =  -0.00000

 Dipole moment (field-independent basis, Debye):
    X=             -0.0000    Y=              0.0000    Z=              0.0000  Tot=              0.0000
 Quadrupole moment (field-independent basis, Debye-Ang):
   XX=            -14.9851   YY=             -8.0650   ZZ=             12.9182
   XY=              0.0000   XZ=              0.0000   YZ=             -0.0000

 .8888724\MP4SDQ=-33.8909084\CCSD=-33.8919682\CCSD(T)=-33.8945401\RMSD=
 Normal termination of Gaussian 16 at Sun Dec 10 06:32:39 2023.
