 Gaussian 16, Revision A.03,
 Gaussian 16:  ES64L-G16RevA.03 25-Dec-2016

 ------------------
 #p CCSD(T)/CEP-31G
 ------------------

 -----------
 H2O_H2O_961
 -----------
 Symbolic Z-matrix:
 Charge =  0 Multiplicity = 1

                         Standard orientation:
 ---------------------------------------------------------------------
 Center     Atomic      Atomic             Coordinates (Angstroms)
 Number     Number       Type             X           Y           Z
 ---------------------------------------------------------------------
      1          8           0        0.037692   -1.293548    0.000000
      2          1           0       -0.763292   -1.862696    0.000000
      3          1           0        0.835845   -1.866660    0.000000
      4          8           0        0.037692    1.321707    0.000000
      5          1           0        0.264639    2.277742    0.000000
      6          1           0       -0.940271    1.226336    0.000000
 ---------------------------------------------------------------------

 SCF Done:  E(RHF) =  -33.6385784426     A.U. after   11 cycles
 E2 =    -0.2298485171D+00 EUMP2 =    -0.33868426959690D+02
 CCSD(T)
 CCSD(T)= -0.33885820394D+02

 The electronic state is 1-A'.
 Alpha  occ. eigenvalues --   -1.33658  -1.32385  -0.69269  -0.68032  -0.54511
 Alpha  occ. eigenvalues --   -0.49814  -0.48269  -0.46659
 Alpha virt. eigenvalues --    0.20670   0.24337   0.31939   0.32785   0.78899
 Alpha virt. eigenvalues --    0.82383   0.84448   0.87935   0.96678   1.15343
 Alpha virt. eigenvalues --    1.18936   1.22538   1.23676   1.27472   2.57630

 Mulliken charges:
               1
     1  O   -0.720812
     2  H    0.348465
     3  H    0.368646
     4  O   -0.699451
     5  H    0.344973
     6  H    0.358180
 Sum of Mulliken charges =  -0.00000

 Dipole moment (field-independent basis, Debye):
    X=             -1.6320    Y=             -0.6961    Z=              0.0000  Tot=              1.7743
 Quadrupole moment (field-independent basis, Debye-Ang):
   XX=             -9.0587   YY=              0.0720   ZZ=            -14.9904
   XY=             -1.5810   XZ=              0.0000   YZ=              0.0000

 P4DQ=-33.8799261\MP4SDQ=-33.8820559\CCSD=-33.8831336\CCSD(T)=-33.88582
 Normal termination of Gaussian 16 at Sun Dec 10 06:42:44 2023.
