 Gaussian 16, Revision A.03,
 Gaussian 16:  ES64L-G16RevA.03 25-Dec-2016

 ------------------
 #p CCSD(T)/CEP-31G
 ------------------

 -----------
 H2O_H2O_614
 -----------
 Symbolic Z-matrix:
 Charge =  0 Multiplicity = 1

                         Standard orientation:
 ---------------------------------------------------------------------
 Center     Atomic      Atomic             Coordinates (Angstroms)
 Number     Number       Type             X           Y           Z
 ---------------------------------------------------------------------
      1          8           0        0.045388   -1.098597    0.000000
      2          1           0       -0.756165   -1.666943    0.000000
      3          1           0        0.842967   -1.672508    0.000000
      4          8           0        0.045388    1.142971    0.000000
      5          1           0        0.082445    2.124874    0.000000
      6          1           0       -0.895461    0.859584    0.000000
 ---------------------------------------------------------------------

 SCF Done:  E(RHF) =  -33.6267907001     A.U. after   11 cycles
 E2 =    -0.2310045203D+00 EUMP2 =    -0.33857795220387D+02
 CCSD(T)
 CCSD(T)= -0.33875132694D+02

 The electronic state is 1-A'.
 Alpha  occ. eigenvalues --   -1.34266  -1.31405  -0.69890  -0.67686  -0.55383
 Alpha  occ. eigenvalues --   -0.48977  -0.47762  -0.45570
 Alpha virt. eigenvalues --    0.20283   0.26020   0.31558   0.33349   0.78801
 Alpha virt. eigenvalues --    0.83958   0.89515   0.94971   0.98159   1.14343
 Alpha virt. eigenvalues --    1.18951   1.22422   1.24216   1.31335   2.56386

 Mulliken charges:
               1
     1  O   -0.744973
     2  H    0.348878
     3  H    0.382230
     4  O   -0.681996
     5  H    0.338544
     6  H    0.357316
 Sum of Mulliken charges =   0.00000

 Dipole moment (field-independent basis, Debye):
    X=             -1.8736    Y=             -1.0918    Z=              0.0000  Tot=              2.1685
 Quadrupole moment (field-independent basis, Debye-Ang):
   XX=             -9.4539   YY=             -2.7123   ZZ=            -14.9966
   XY=             -1.7454   XZ=              0.0000   YZ=              0.0000

 MP4DQ=-33.8690743\MP4SDQ=-33.8712863\CCSD=-33.8723213\CCSD(T)=-33.8751
 Normal termination of Gaussian 16 at Sun Dec 10 06:36:13 2023.
