 Gaussian 16, Revision A.03,
 Gaussian 16:  ES64L-G16RevA.03 25-Dec-2016

 ------------------
 #p CCSD(T)/CEP-31G
 ------------------

 ------------
 H2O_H2O_1472
 ------------
 Symbolic Z-matrix:
 Charge =  0 Multiplicity = 1

                         Standard orientation:
 ---------------------------------------------------------------------
 Center     Atomic      Atomic             Coordinates (Angstroms)
 Number     Number       Type             X           Y           Z
 ---------------------------------------------------------------------
      1          8           0        0.056778   -1.521012    0.000000
      2          1           0       -0.744561   -2.089660    0.000000
      3          1           0        0.854573   -2.094623    0.000000
      4          8           0        0.056778    1.619977    0.000000
      5          1           0       -0.402408    2.488684    0.000000
      6          1           0       -0.616058    0.903878    0.000000
 ---------------------------------------------------------------------

 SCF Done:  E(RHF) =  -33.6533669338     A.U. after   11 cycles
 E2 =    -0.2290560034D+00 EUMP2 =    -0.33882422937270D+02
 CCSD(T)
 CCSD(T)= -0.33899445939D+02

 The electronic state is 1-A'.
 Alpha  occ. eigenvalues --   -1.36091  -1.32755  -0.71739  -0.68375  -0.55896
 Alpha  occ. eigenvalues --   -0.52516  -0.50687  -0.47353
 Alpha virt. eigenvalues --    0.19107   0.24492   0.29959   0.34148   0.76536
 Alpha virt. eigenvalues --    0.78471   0.84698   0.86513   0.89161   1.07519
 Alpha virt. eigenvalues --    1.16747   1.20402   1.21782   1.28850   2.54052

 Mulliken charges:
               1
     1  O   -0.749955
     2  H    0.365483
     3  H    0.385993
     4  O   -0.741711
     5  H    0.348786
     6  H    0.391404
 Sum of Mulliken charges =   0.00000

 Dipole moment (field-independent basis, Debye):
    X=             -2.5453    Y=             -2.4942    Z=              0.0000  Tot=              3.5636
 Quadrupole moment (field-independent basis, Debye-Ang):
   XX=            -10.1012   YY=             -1.2215   ZZ=            -14.9963
   XY=             -4.2414   XZ=              0.0000   YZ=              0.0000

 MP4DQ=-33.8936872\MP4SDQ=-33.8957809\CCSD=-33.8968108\CCSD(T)=-33.8994
 Normal termination of Gaussian 16 at Sun Dec 10 06:52:15 2023.
