 Gaussian 16, Revision A.03,
 Gaussian 16:  ES64L-G16RevA.03 25-Dec-2016

 ------------------
 #p CCSD(T)/CEP-31G
 ------------------

 ------------
 H2O_H2O_3585
 ------------
 Symbolic Z-matrix:
 Charge =  0 Multiplicity = 1

                         Standard orientation:
 ---------------------------------------------------------------------
 Center     Atomic      Atomic             Coordinates (Angstroms)
 Number     Number       Type             X           Y           Z
 ---------------------------------------------------------------------
      1          8           0        0.034781   -2.692136    0.000000
      2          1           0       -0.765421   -3.262382    0.000000
      3          1           0        0.833720   -3.264153    0.000000
      4          8           0        0.034781    2.715663    0.000000
      5          1           0        0.322482    3.655203    0.000000
      6          1           0       -0.947281    2.683112    0.000000
 ---------------------------------------------------------------------

 SCF Done:  E(RHF) =  -33.6503898673     A.U. after   11 cycles
 E2 =    -0.2284665775D+00 EUMP2 =    -0.33878856444814D+02
 CCSD(T)
 CCSD(T)= -0.33895897130D+02

 The electronic state is 1-A'.
 Alpha  occ. eigenvalues --   -1.34992  -1.34748  -0.70619  -0.70367  -0.54648
 Alpha  occ. eigenvalues --   -0.54403  -0.49542  -0.49299
 Alpha virt. eigenvalues --    0.20701   0.20952   0.30935   0.31171   0.81011
 Alpha virt. eigenvalues --    0.81251   0.84083   0.84497   0.87227   0.87533
 Alpha virt. eigenvalues --    1.17851   1.18092   1.22321   1.22563   2.57901

 Mulliken charges:
               1
     1  O   -0.736208
     2  H    0.366712
     3  H    0.369497
     4  O   -0.735747
     5  H    0.365809
     6  H    0.369938
 Sum of Mulliken charges =  -0.00000

 Dipole moment (field-independent basis, Debye):
    X=             -1.6021    Y=             -0.5535    Z=              0.0000  Tot=              1.6950
 Quadrupole moment (field-independent basis, Debye-Ang):
   XX=             -8.8278   YY=             14.3688   ZZ=            -14.9867
   XY=             -3.5361   XZ=              0.0000   YZ=              0.0000

 MP4DQ=-33.8902419\MP4SDQ=-33.8922735\CCSD=-33.893331\CCSD(T)=-33.89589
 Normal termination of Gaussian 16 at Sun Dec 10 06:44:26 2023.
