 Gaussian 16, Revision A.03,
 Gaussian 16:  ES64L-G16RevA.03 25-Dec-2016

 ------------------
 #p CCSD(T)/CEP-31G
 ------------------

 ------------
 H2O_H2O_1246
 ------------
 Symbolic Z-matrix:
 Charge =  0 Multiplicity = 1

                         Standard orientation:
 ---------------------------------------------------------------------
 Center     Atomic      Atomic             Coordinates (Angstroms)
 Number     Number       Type             X           Y           Z
 ---------------------------------------------------------------------
      1          8           0        0.056168   -1.405364    0.000000
      2          1           0       -0.745296   -1.973836    0.000000
      3          1           0        0.853837   -1.979150    0.000000
      4          8           0        0.056168    1.496934    0.000000
      5          1           0       -0.345022    2.393902    0.000000
      6          1           0       -0.662210    0.826532    0.000000
 ---------------------------------------------------------------------

 SCF Done:  E(RHF) =  -33.6517464172     A.U. after   11 cycles
 E2 =    -0.2293753954D+00 EUMP2 =    -0.33881121812593D+02
 CCSD(T)
 CCSD(T)= -0.33898187932D+02

 The electronic state is 1-A'.
 Alpha  occ. eigenvalues --   -1.35958  -1.32382  -0.71612  -0.68121  -0.55617
 Alpha  occ. eigenvalues --   -0.52110  -0.50547  -0.46964
 Alpha virt. eigenvalues --    0.19222   0.25065   0.30091   0.34336   0.77573
 Alpha virt. eigenvalues --    0.77943   0.85959   0.86964   0.91116   1.12823
 Alpha virt. eigenvalues --    1.17137   1.20304   1.22180   1.29178   2.56555

 Mulliken charges:
               1
     1  O   -0.750765
     2  H    0.363068
     3  H    0.388582
     4  O   -0.733800
     5  H    0.343913
     6  H    0.389002
 Sum of Mulliken charges =   0.00000

 Dipole moment (field-independent basis, Debye):
    X=             -2.4864    Y=             -2.3310    Z=              0.0000  Tot=              3.4082
 Quadrupole moment (field-independent basis, Debye-Ang):
   XX=            -10.0558   YY=             -1.5901   ZZ=            -14.9972
   XY=             -3.7632   XZ=              0.0000   YZ=              0.0000

 1\MP4DQ=-33.8923738\MP4SDQ=-33.8944928\CCSD=-33.8955207\CCSD(T)=-33.89
 Normal termination of Gaussian 16 at Sun Dec 10 06:48:03 2023.
