 Gaussian 16, Revision A.03,
 Gaussian 16:  ES64L-G16RevA.03 25-Dec-2016

 ------------------
 #p CCSD(T)/CEP-31G
 ------------------

 ------------
 H2O_H2O_3313
 ------------
 Symbolic Z-matrix:
 Charge =  0 Multiplicity = 1

                         Standard orientation:
 ---------------------------------------------------------------------
 Center     Atomic      Atomic             Coordinates (Angstroms)
 Number     Number       Type             X           Y           Z
 ---------------------------------------------------------------------
      1          8           0        0.042968   -2.537593    0.000000
      2          1           0       -0.757428   -3.107568    0.000000
      3          1           0        0.841713   -3.109880    0.000000
      4          8           0        0.042968    2.576380    0.000000
      5          1           0        0.142175    3.553961    0.000000
      6          1           0       -0.913950    2.353188    0.000000
 ---------------------------------------------------------------------

 SCF Done:  E(RHF) =  -33.6505370952     A.U. after   11 cycles
 E2 =    -0.2284703787D+00 EUMP2 =    -0.33879007473887D+02
 CCSD(T)
 CCSD(T)= -0.33896044090D+02

 The electronic state is 1-A'.
 Alpha  occ. eigenvalues --   -1.35083  -1.34631  -0.70711  -0.70244  -0.54747
 Alpha  occ. eigenvalues --   -0.54293  -0.49635  -0.49185
 Alpha virt. eigenvalues --    0.20610   0.21089   0.30853   0.31295   0.80917
 Alpha virt. eigenvalues --    0.81361   0.83836   0.84691   0.87124   0.87725
 Alpha virt. eigenvalues --    1.17766   1.18213   1.22235   1.22686   2.57811

 Mulliken charges:
               1
     1  O   -0.736766
     2  H    0.366392
     3  H    0.370375
     4  O   -0.735948
     5  H    0.364813
     6  H    0.371134
 Sum of Mulliken charges =  -0.00000

 Dipole moment (field-independent basis, Debye):
    X=             -1.9771    Y=             -0.9151    Z=              0.0000  Tot=              2.1786
 Quadrupole moment (field-independent basis, Debye-Ang):
   XX=             -9.2391   YY=             11.4884   ZZ=            -14.9871
   XY=             -4.2929   XZ=              0.0000   YZ=              0.0000

 \MP4DQ=-33.8903897\MP4SDQ=-33.8924212\CCSD=-33.8934779\CCSD(T)=-33.896
 Normal termination of Gaussian 16 at Sun Dec 10 06:39:29 2023.
