 Gaussian 16, Revision A.03,
 Gaussian 16:  ES64L-G16RevA.03 25-Dec-2016

 ------------------
 #p CCSD(T)/CEP-31G
 ------------------

 -----------
 H2O_H2O_523
 -----------
 Symbolic Z-matrix:
 Charge =  0 Multiplicity = 1

                         Standard orientation:
 ---------------------------------------------------------------------
 Center     Atomic      Atomic             Coordinates (Angstroms)
 Number     Number       Type             X           Y           Z
 ---------------------------------------------------------------------
      1          8           0        0.057236   -1.011819    0.000000
      2          1           0       -0.744957   -1.579261    0.000000
      3          1           0        0.854168   -1.586628    0.000000
      4          8           0        0.057236    1.118048    0.000000
      5          1           0       -0.456526    1.955637    0.000000
      6          1           0       -0.568465    0.360417    0.000000
 ---------------------------------------------------------------------

 SCF Done:  E(RHF) =  -33.6177906254     A.U. after   11 cycles
 E2 =    -0.2313135189D+00 EUMP2 =    -0.33849104144305D+02
 CCSD(T)
 CCSD(T)= -0.33865366871D+02

 The electronic state is 1-A'.
 Alpha  occ. eigenvalues --   -1.38541  -1.29718  -0.74510  -0.70288  -0.52784
 Alpha  occ. eigenvalues --   -0.52328  -0.49921  -0.44167
 Alpha virt. eigenvalues --    0.18696   0.28453   0.28616   0.37970   0.76818
 Alpha virt. eigenvalues --    0.84759   0.90038   0.93343   0.98682   1.14197
 Alpha virt. eigenvalues --    1.18604   1.20374   1.28473   1.31544   2.82103

 Mulliken charges:
               1
     1  O   -0.796212
     2  H    0.371637
     3  H    0.432607
     4  O   -0.705291
     5  H    0.313728
     6  H    0.383531
 Sum of Mulliken charges =  -0.00000

 Dipole moment (field-independent basis, Debye):
    X=             -2.3003    Y=             -2.9571    Z=              0.0000  Tot=              3.7464
 Quadrupole moment (field-independent basis, Debye-Ang):
   XX=            -10.1002   YY=             -5.8080   ZZ=            -14.9953
   XY=             -3.0120   XZ=              0.0000   YZ=              0.0000

 \MP4DQ=-33.8591703\MP4SDQ=-33.8614852\CCSD=-33.8623289\CCSD(T)=-33.865
 Normal termination of Gaussian 16 at Sun Dec 10 06:34:32 2023.
