 Gaussian 16, Revision A.03,
 Gaussian 16:  ES64L-G16RevA.03 25-Dec-2016

 ------------------
 #p CCSD(T)/CEP-31G
 ------------------

 ------------
 H2O_H2O_1677
 ------------
 Symbolic Z-matrix:
 Charge =  0 Multiplicity = 1

                         Standard orientation:
 ---------------------------------------------------------------------
 Center     Atomic      Atomic             Coordinates (Angstroms)
 Number     Number       Type             X           Y           Z
 ---------------------------------------------------------------------
      1          8           0        0.007455   -1.693897    0.000000
      2          1           0       -0.792332   -2.264726    0.000000
      3          1           0        0.806810   -2.265332    0.000000
      4          8           0        0.007455    1.694869    0.000000
      5          1           0        0.725892    2.365207    0.000000
      6          1           0       -0.859649    2.157077    0.000000
 ---------------------------------------------------------------------

 SCF Done:  E(RHF) =  -33.6441150471     A.U. after   11 cycles
 E2 =    -0.2289468941D+00 EUMP2 =    -0.33873061941168D+02
 CCSD(T)
 CCSD(T)= -0.33890310311D+02

 The electronic state is 1-A'.
 Alpha  occ. eigenvalues --   -1.33675  -1.33606  -0.69291  -0.69222  -0.53623
 Alpha  occ. eigenvalues --   -0.52210  -0.48222  -0.47988
 Alpha virt. eigenvalues --    0.21139   0.22370   0.31798   0.32143   0.76669
 Alpha virt. eigenvalues --    0.80722   0.84169   0.84865   0.93090   1.01648
 Alpha virt. eigenvalues --    1.18929   1.19041   1.23296   1.23824   2.58585

 Mulliken charges:
               1
     1  O   -0.716111
     2  H    0.356997
     3  H    0.359119
     4  O   -0.715914
     5  H    0.356798
     6  H    0.359110
 Sum of Mulliken charges =  -0.00000

 Dipole moment (field-independent basis, Debye):
    X=             -0.3376    Y=             -0.0241    Z=              0.0000  Tot=              0.3384
 Quadrupole moment (field-independent basis, Debye-Ang):
   XX=             -8.1729   YY=              5.5576   ZZ=            -14.9833
   XY=             -0.3758   XZ=              0.0000   YZ=              0.0000

 4DQ=-33.8845636\MP4SDQ=-33.8866356\CCSD=-33.8876999\CCSD(T)=-33.890310
 Normal termination of Gaussian 16 at Sun Dec 10 06:56:04 2023.
