 Gaussian 16, Revision A.03,
 Gaussian 16:  ES64L-G16RevA.03 25-Dec-2016

 ------------------
 #p CCSD(T)/CEP-31G
 ------------------

 ------------
 H2O_H2O_3574
 ------------
 Symbolic Z-matrix:
 Charge =  0 Multiplicity = 1

                         Standard orientation:
 ---------------------------------------------------------------------
 Center     Atomic      Atomic             Coordinates (Angstroms)
 Number     Number       Type             X           Y           Z
 ---------------------------------------------------------------------
      1          8           0        0.057218   -2.629697    0.000000
      2          1           0       -0.743397   -3.199365    0.000000
      3          1           0        0.855742   -3.202292    0.000000
      4          8           0        0.057218    2.743715    0.000000
      5          1           0       -0.512450    3.544329    0.000000
      6          1           0       -0.515377    1.945190    0.000000
 ---------------------------------------------------------------------

 SCF Done:  E(RHF) =  -33.6524009337     A.U. after   11 cycles
 E2 =    -0.2283681245D+00 EUMP2 =    -0.33880769058183D+02
 CCSD(T)
 CCSD(T)= -0.33897751199D+02

 The electronic state is 1-A'.
 Alpha  occ. eigenvalues --   -1.35817  -1.34632  -0.71453  -0.70243  -0.55589
 Alpha  occ. eigenvalues --   -0.54377  -0.50398  -0.49212
 Alpha virt. eigenvalues --    0.19968   0.21229   0.30229   0.31460   0.80157
 Alpha virt. eigenvalues --    0.81316   0.83082   0.84360   0.86254   0.87538
 Alpha virt. eigenvalues --    1.17111   1.18293   1.21561   1.22798   2.57101

 Mulliken charges:
               1
     1  O   -0.743305
     2  H    0.369564
     3  H    0.373753
     4  O   -0.743087
     5  H    0.366001
     6  H    0.377074
 Sum of Mulliken charges =  -0.00000

 Dipole moment (field-independent basis, Debye):
    X=             -2.6345    Y=             -2.6859    Z=              0.0000  Tot=              3.7622
 Quadrupole moment (field-independent basis, Debye-Ang):
   XX=            -10.1636   YY=              3.8869   ZZ=            -14.9901
   XY=             -7.4379   XZ=              0.0000   YZ=              0.0000

 \MP4DQ=-33.8921113\MP4SDQ=-33.8941377\CCSD=-33.8951909\CCSD(T)=-33.897
 Normal termination of Gaussian 16 at Sun Dec 10 06:44:14 2023.
