 Gaussian 16, Revision A.03,
 Gaussian 16:  ES64L-G16RevA.03 25-Dec-2016

 ------------------
 #p CCSD(T)/CEP-31G
 ------------------

 ------------
 H2O_H2O_1753
 ------------
 Symbolic Z-matrix:
 Charge =  0 Multiplicity = 1

                         Standard orientation:
 ---------------------------------------------------------------------
 Center     Atomic      Atomic             Coordinates (Angstroms)
 Number     Number       Type             X           Y           Z
 ---------------------------------------------------------------------
      1          8           0        0.011143   -1.733127    0.000000
      2          1           0       -0.788744   -2.303817    0.000000
      3          1           0        0.810398   -2.304701    0.000000
      4          8           0        0.011143    1.735309    0.000000
      5          1           0        0.684324    2.451084    0.000000
      6          1           0       -0.884264    2.139975    0.000000
 ---------------------------------------------------------------------

 SCF Done:  E(RHF) =  -33.6447620332     A.U. after   11 cycles
 E2 =    -0.2289043133D+00 EUMP2 =    -0.33873666346498D+02
 CCSD(T)
 CCSD(T)= -0.33890891743D+02

 The electronic state is 1-A'.
 Alpha  occ. eigenvalues --   -1.33770  -1.33694  -0.69388  -0.69308  -0.53650
 Alpha  occ. eigenvalues --   -0.52436  -0.48307  -0.48103
 Alpha virt. eigenvalues --    0.21099   0.22269   0.31755   0.32059   0.76763
 Alpha virt. eigenvalues --    0.80840   0.83845   0.85269   0.92227   1.00456
 Alpha virt. eigenvalues --    1.18855   1.18965   1.23239   1.23705   2.58393

 Mulliken charges:
               1
     1  O   -0.717925
     2  H    0.357481
     3  H    0.360461
     4  O   -0.717536
     5  H    0.357083
     6  H    0.360436
 Sum of Mulliken charges =  -0.00000

 Dipole moment (field-independent basis, Debye):
    X=             -0.5054    Y=             -0.0540    Z=              0.0000  Tot=              0.5083
 Quadrupole moment (field-independent basis, Debye-Ang):
   XX=             -8.2074   YY=              5.9504   ZZ=            -14.9834
   XY=             -0.5841   XZ=              0.0000   YZ=              0.0000

 P4DQ=-33.8851558\MP4SDQ=-33.887224\CCSD=-33.8882861\CCSD(T)=-33.890891
 Normal termination of Gaussian 16 at Sun Dec 10 06:57:28 2023.
