 Gaussian 16, Revision A.03,
 Gaussian 16:  ES64L-G16RevA.03 25-Dec-2016

 ------------------
 #p CCSD(T)/CEP-31G
 ------------------

 ------------
 H2O_H2O_2432
 ------------
 Symbolic Z-matrix:
 Charge =  0 Multiplicity = 1

                         Standard orientation:
 ---------------------------------------------------------------------
 Center     Atomic      Atomic             Coordinates (Angstroms)
 Number     Number       Type             X           Y           Z
 ---------------------------------------------------------------------
      1          8           0        0.025267   -2.086932    0.000000
      2          1           0       -0.774897   -2.657233    0.000000
      3          1           0        0.824244   -2.658895    0.000000
      4          8           0        0.025267    2.098660    0.000000
      5          1           0        0.490674    2.964051    0.000000
      6          1           0       -0.944287    2.258259    0.000000
 ---------------------------------------------------------------------

 SCF Done:  E(RHF) =  -33.6482673708     A.U. after   11 cycles
 E2 =    -0.2286271275D+00 EUMP2 =    -0.33876894498336D+02
 CCSD(T)
 CCSD(T)= -0.33893998051D+02

 The electronic state is 1-A'.
 Alpha  occ. eigenvalues --   -1.34438  -1.34231  -0.70061  -0.69844  -0.54035
 Alpha  occ. eigenvalues --   -0.53683  -0.48959  -0.48751
 Alpha virt. eigenvalues --    0.20949   0.21533   0.31372   0.31566   0.81037
 Alpha virt. eigenvalues --    0.81352   0.82030   0.86713   0.88198   0.90822
 Alpha virt. eigenvalues --    1.18318   1.18524   1.22810   1.23026   2.58287

 Mulliken charges:
               1
     1  O   -0.728964
     2  H    0.362455
     3  H    0.366537
     4  O   -0.728136
     5  H    0.361431
     6  H    0.366678
 Sum of Mulliken charges =  -0.00000

 Dipole moment (field-independent basis, Debye):
    X=             -1.1561    Y=             -0.2815    Z=              0.0000  Tot=              1.1899
 Quadrupole moment (field-independent basis, Debye-Ang):
   XX=             -8.4852   YY=              9.2483   ZZ=            -14.9850
   XY=             -1.7846   XZ=              0.0000   YZ=              0.0000

 \MP4DQ=-33.8883205\MP4SDQ=-33.8903618\CCSD=-33.8914201\CCSD(T)=-33.893
 Normal termination of Gaussian 16 at Sun Dec 10 07:11:10 2023.
