 Gaussian 16, Revision A.03,
 Gaussian 16:  ES64L-G16RevA.03 25-Dec-2016

 ------------------
 #p CCSD(T)/CEP-31G
 ------------------

 ----------
 H2O_H2O_57
 ----------
 Symbolic Z-matrix:
 Charge =  0 Multiplicity = 1

                         Standard orientation:
 ---------------------------------------------------------------------
 Center     Atomic      Atomic             Coordinates (Angstroms)
 Number     Number       Type             X           Y           Z
 ---------------------------------------------------------------------
      1          8           0        0.025276   -0.823863    0.000000
      2          1           0       -0.775789   -1.392897    0.000000
      3          1           0        0.823347   -1.397088    0.000000
      4          8           0        0.025276    0.835510    0.000000
      5          1           0        0.492052    1.700164    0.000000
      6          1           0       -0.944024    0.996643    0.000000
 ---------------------------------------------------------------------

 SCF Done:  E(RHF) =  -33.4911027055     A.U. after   12 cycles
 E2 =    -0.2382656921D+00 EUMP2 =    -0.33729368397549D+02
 CCSD(T)
 CCSD(T)= -0.33745822729D+02

 The electronic state is 1-A'.
 Alpha  occ. eigenvalues --   -1.37407  -1.28918  -0.71616  -0.68014  -0.62713
 Alpha  occ. eigenvalues --   -0.51931  -0.42574  -0.32712
 Alpha virt. eigenvalues --    0.20782   0.28521   0.31562   0.33621   0.81998
 Alpha virt. eigenvalues --    0.82600   0.88993   0.89966   1.00746   1.19450
 Alpha virt. eigenvalues --    1.22668   1.23364   1.27183   1.38882   2.53189

 Mulliken charges:
               1
     1  O   -0.708141
     2  H    0.330154
     3  H    0.372368
     4  O   -0.674617
     5  H    0.337834
     6  H    0.342402
 Sum of Mulliken charges =   0.00000

 Dipole moment (field-independent basis, Debye):
    X=             -0.9146    Y=             -0.3314    Z=              0.0000  Tot=              0.9728
 Quadrupole moment (field-independent basis, Debye-Ang):
   XX=             -8.8434   YY=             -7.6529   ZZ=            -14.9991
   XY=             -0.6159   XZ=              0.0000   YZ=              0.0000

 P4DQ=-33.7389307\MP4SDQ=-33.741723\CCSD=-33.742284\CCSD(T)=-33.7458227
 Normal termination of Gaussian 16 at Sun Dec 10 06:25:47 2023.
