 Gaussian 16, Revision A.03,
 Gaussian 16:  ES64L-G16RevA.03 25-Dec-2016

 ------------------
 #p CCSD(T)/CEP-31G
 ------------------

 ------------
 H2O_H2O_1584
 ------------
 Symbolic Z-matrix:
 Charge =  0 Multiplicity = 1

                         Standard orientation:
 ---------------------------------------------------------------------
 Center     Atomic      Atomic             Coordinates (Angstroms)
 Number     Number       Type             X           Y           Z
 ---------------------------------------------------------------------
      1          8           0        0.031746   -1.630842    0.000000
      2          1           0       -0.768775   -2.200642    0.000000
      3          1           0        0.830365   -2.203305    0.000000
      4          8           0        0.031746    1.649987    0.000000
      5          1           0        0.380791    2.568504    0.000000
      6          1           0       -0.950324    1.682284    0.000000
 ---------------------------------------------------------------------

 SCF Done:  E(RHF) =  -33.6451053933     A.U. after   11 cycles
 E2 =    -0.2290268267D+00 EUMP2 =    -0.33874132220042D+02
 CCSD(T)
 CCSD(T)= -0.33891369656D+02

 The electronic state is 1-A'.
 Alpha  occ. eigenvalues --   -1.33998  -1.33442  -0.69620  -0.69032  -0.53854
 Alpha  occ. eigenvalues --   -0.52279  -0.48510  -0.47897
 Alpha virt. eigenvalues --    0.20771   0.22695   0.31682   0.32173   0.75837
 Alpha virt. eigenvalues --    0.80273   0.84454   0.84478   0.91798   1.06711
 Alpha virt. eigenvalues --    1.18632   1.19658   1.23252   1.23758   2.58831

 Mulliken charges:
               1
     1  O   -0.720140
     2  H    0.355230
     3  H    0.364983
     4  O   -0.716187
     5  H    0.352422
     6  H    0.363692
 Sum of Mulliken charges =   0.00000

 Dipole moment (field-independent basis, Debye):
    X=             -1.4300    Y=             -0.4756    Z=              0.0000  Tot=              1.5070
 Quadrupole moment (field-independent basis, Debye-Ang):
   XX=             -8.7592   YY=              4.1051   ZZ=            -14.9847
   XY=             -1.6962   XZ=              0.0000   YZ=              0.0000

 \MP4DQ=-33.885615\MP4SDQ=-33.8876956\CCSD=-33.8887553\CCSD(T)=-33.8913
 Normal termination of Gaussian 16 at Sun Dec 10 06:54:20 2023.
