 Gaussian 16, Revision A.03,
 Gaussian 16:  ES64L-G16RevA.03 25-Dec-2016

 ------------------
 #p CCSD(T)/CEP-31G
 ------------------

 ------------
 H2O_H2O_1727
 ------------
 Symbolic Z-matrix:
 Charge =  0 Multiplicity = 1

                         Standard orientation:
 ---------------------------------------------------------------------
 Center     Atomic      Atomic             Coordinates (Angstroms)
 Number     Number       Type             X           Y           Z
 ---------------------------------------------------------------------
      1          8           0        0.007455   -1.720489    0.000000
      2          1           0       -0.792329   -2.291323    0.000000
      3          1           0        0.806813   -2.291919    0.000000
      4          8           0        0.007455    1.721460    0.000000
      5          1           0        0.725888    2.391804    0.000000
      6          1           0       -0.859652    2.183665    0.000000
 ---------------------------------------------------------------------

 SCF Done:  E(RHF) =  -33.6444843016     A.U. after   11 cycles
 E2 =    -0.2289176586D+00 EUMP2 =    -0.33873401960280D+02
 CCSD(T)
 CCSD(T)= -0.33890636437D+02

 The electronic state is 1-A'.
 Alpha  occ. eigenvalues --   -1.33724  -1.33664  -0.69342  -0.69280  -0.53631
 Alpha  occ. eigenvalues --   -0.52348  -0.48268  -0.48059
 Alpha virt. eigenvalues --    0.21126   0.22298   0.31767   0.32099   0.76756
 Alpha virt. eigenvalues --    0.80811   0.83958   0.85148   0.92617   1.00688
 Alpha virt. eigenvalues --    1.18892   1.18984   1.23249   1.23762   2.58446

 Mulliken charges:
               1
     1  O   -0.717098
     2  H    0.357535
     3  H    0.359571
     4  O   -0.716917
     5  H    0.357325
     6  H    0.359585
 Sum of Mulliken charges =  -0.00000

 Dipole moment (field-independent basis, Debye):
    X=             -0.3380    Y=             -0.0241    Z=              0.0000  Tot=              0.3388
 Quadrupole moment (field-independent basis, Debye-Ang):
   XX=             -8.1680   YY=              5.8593   ZZ=            -14.9833
   XY=             -0.3841   XZ=              0.0000   YZ=              0.0000

 4DQ=-33.8848967\MP4SDQ=-33.8869661\CCSD=-33.8880292\CCSD(T)=-33.890636
 Normal termination of Gaussian 16 at Sun Dec 10 06:56:59 2023.
