 Gaussian 16, Revision A.03,
 Gaussian 16:  ES64L-G16RevA.03 25-Dec-2016

 ------------------
 #p CCSD(T)/CEP-31G
 ------------------

 ------------
 H2O_H2O_1427
 ------------
 Symbolic Z-matrix:
 Charge =  0 Multiplicity = 1

                         Standard orientation:
 ---------------------------------------------------------------------
 Center     Atomic      Atomic             Coordinates (Angstroms)
 Number     Number       Type             X           Y           Z
 ---------------------------------------------------------------------
      1          8           0        0.007455   -1.560938    0.000000
      2          1           0       -0.792351   -2.131742    0.000000
      3          1           0        0.806791   -2.132399    0.000000
      4          8           0        0.007455    1.561909    0.000000
      5          1           0        0.725913    2.232225    0.000000
      6          1           0       -0.859634    2.024146    0.000000
 ---------------------------------------------------------------------

 SCF Done:  E(RHF) =  -33.6418303319     A.U. after   11 cycles
 E2 =    -0.2291243894D+00 EUMP2 =    -0.33870954721378D+02
 CCSD(T)
 CCSD(T)= -0.33888280983D+02

 The electronic state is 1-A'.
 Alpha  occ. eigenvalues --   -1.33406  -1.33269  -0.69013  -0.68890  -0.53648
 Alpha  occ. eigenvalues --   -0.51363  -0.47977  -0.47573
 Alpha virt. eigenvalues --    0.21228   0.22774   0.31992   0.32374   0.77398
 Alpha virt. eigenvalues --    0.80217   0.83218   0.85397   0.96015   1.06126
 Alpha virt. eigenvalues --    1.19129   1.19435   1.23616   1.24124   2.59956

 Mulliken charges:
               1
     1  O   -0.710801
     2  H    0.354072
     3  H    0.356715
     4  O   -0.710485
     5  H    0.354029
     6  H    0.356469
 Sum of Mulliken charges =  -0.00000

 Dipole moment (field-independent basis, Debye):
    X=             -0.3347    Y=             -0.0243    Z=              0.0000  Tot=              0.3356
 Quadrupole moment (field-independent basis, Debye-Ang):
   XX=             -8.2008   YY=              4.0182   ZZ=            -14.9838
   XY=             -0.3346   XZ=              0.0000   YZ=              0.0000

 DQ=-33.8824945\MP4SDQ=-33.8845782\CCSD=-33.8856519\CCSD(T)=-33.888281\
 Normal termination of Gaussian 16 at Sun Dec 10 06:51:25 2023.
