 Gaussian 16, Revision A.03,
 Gaussian 16:  ES64L-G16RevA.03 25-Dec-2016

 ------------------
 #p CCSD(T)/CEP-31G
 ------------------

 -----------
 H2O_H2O_971
 -----------
 Symbolic Z-matrix:
 Charge =  0 Multiplicity = 1

                         Standard orientation:
 ---------------------------------------------------------------------
 Center     Atomic      Atomic             Coordinates (Angstroms)
 Number     Number       Type             X           Y           Z
 ---------------------------------------------------------------------
      1          8           0        0.056185   -1.259131    0.000000
      2          1           0       -0.745491   -1.827305    0.000000
      3          1           0        0.853640   -1.833214    0.000000
      4          8           0        0.056185    1.350659    0.000000
      5          1           0       -0.344671    2.247776    0.000000
      6          1           0       -0.662443    0.680525    0.000000
 ---------------------------------------------------------------------

 SCF Done:  E(RHF) =  -33.6484746971     A.U. after   11 cycles
 E2 =    -0.2299099789D+00 EUMP2 =    -0.33878384675972D+02
 CCSD(T)
 CCSD(T)= -0.33895416700D+02

 The electronic state is 1-A'.
 Alpha  occ. eigenvalues --   -1.36137  -1.31726  -0.71807  -0.67980  -0.55314
 Alpha  occ. eigenvalues --   -0.51465  -0.50730  -0.46280
 Alpha virt. eigenvalues --    0.19197   0.26037   0.29988   0.35074   0.77260
 Alpha virt. eigenvalues --    0.80948   0.87652   0.88220   0.94841   1.13900
 Alpha virt. eigenvalues --    1.19271   1.19867   1.23009   1.30215   2.63347

 Mulliken charges:
               1
     1  O   -0.760189
     2  H    0.362722
     3  H    0.396897
     4  O   -0.723946
     5  H    0.336580
     6  H    0.387936
 Sum of Mulliken charges =  -0.00000

 Dipole moment (field-independent basis, Debye):
    X=             -2.4298    Y=             -2.3673    Z=              0.0000  Tot=              3.3924
 Quadrupole moment (field-independent basis, Debye-Ang):
   XX=            -10.0524   YY=             -2.7625   ZZ=            -15.0011
   XY=             -3.3853   XZ=              0.0000   YZ=              0.0000

 MP4DQ=-33.8895073\MP4SDQ=-33.8916688\CCSD=-33.8926781\CCSD(T)=-33.8954
 Normal termination of Gaussian 16 at Sun Dec 10 06:42:55 2023.
