 Gaussian 16, Revision A.03,
 Gaussian 16:  ES64L-G16RevA.03 25-Dec-2016

 ------------------
 #p CCSD(T)/CEP-31G
 ------------------

 ------------
 H2O_H2O_4607
 ------------
 Symbolic Z-matrix:
 Charge =  0 Multiplicity = 1

                         Standard orientation:
 ---------------------------------------------------------------------
 Center     Atomic      Atomic             Coordinates (Angstroms)
 Number     Number       Type             X           Y           Z
 ---------------------------------------------------------------------
      1          8           0        0.025264   -3.243667    0.000000
      2          1           0       -0.774689   -3.814264    0.000000
      3          1           0        0.824453   -3.815334    0.000000
      4          8           0        0.025264    3.255413    0.000000
      5          1           0        0.490352    4.120976    0.000000
      6          1           0       -0.944348    3.414653    0.000000
 ---------------------------------------------------------------------

 SCF Done:  E(RHF) =  -33.6508439304     A.U. after   11 cycles
 E2 =    -0.2284297045D+00 EUMP2 =    -0.33879273634843D+02
 CCSD(T)
 CCSD(T)= -0.33896301199D+02

 The electronic state is 1-A'.
 Alpha  occ. eigenvalues --   -1.35101  -1.35018  -0.70730  -0.70644  -0.54783
 Alpha  occ. eigenvalues --   -0.54700  -0.49658  -0.49575
 Alpha virt. eigenvalues --    0.20618   0.20702   0.30851   0.30933   0.80895
 Alpha virt. eigenvalues --    0.80978   0.84011   0.84093   0.87088   0.87186
 Alpha virt. eigenvalues --    1.17760   1.17843   1.22226   1.22309   2.57800

 Mulliken charges:
               1
     1  O   -0.737753
     2  H    0.368266
     3  H    0.369487
     4  O   -0.737641
     5  H    0.367922
     6  H    0.369720
 Sum of Mulliken charges =   0.00000

 Dipole moment (field-independent basis, Debye):
    X=             -1.1665    Y=             -0.2745    Z=              0.0000  Tot=              1.1983
 Quadrupole moment (field-independent basis, Debye-Ang):
   XX=             -8.4510   YY=             21.0730   ZZ=            -14.9871
   XY=             -3.0993   XZ=              0.0000   YZ=              0.0000

 MP4DQ=-33.8906497\MP4SDQ=-33.8926799\CCSD=-33.8937371\CCSD(T)=-33.8963
 Normal termination of Gaussian 16 at Sun Dec 10 07:04:35 2023.
