 Gaussian 16, Revision A.03,
 Gaussian 16:  ES64L-G16RevA.03 25-Dec-2016

 ------------------
 #p CCSD(T)/CEP-31G
 ------------------

 ------------
 H2O_H2O_1613
 ------------
 Symbolic Z-matrix:
 Charge =  0 Multiplicity = 1

                         Standard orientation:
 ---------------------------------------------------------------------
 Center     Atomic      Atomic             Coordinates (Angstroms)
 Number     Number       Type             X           Y           Z
 ---------------------------------------------------------------------
      1          8           0        0.042983   -1.633506    0.000000
      2          1           0       -0.757863   -2.202849    0.000000
      3          1           0        0.841275   -2.206425    0.000000
      4          8           0        0.042983    1.672226    0.000000
      5          1           0        0.142964    2.649729    0.000000
      6          1           0       -0.914110    1.449790    0.000000
 ---------------------------------------------------------------------

 SCF Done:  E(RHF) =  -33.6471830683     A.U. after   11 cycles
 E2 =    -0.2290017955D+00 EUMP2 =    -0.33876184863798D+02
 CCSD(T)
 CCSD(T)= -0.33893366459D+02

 The electronic state is 1-A'.
 Alpha  occ. eigenvalues --   -1.34502  -1.33389  -0.70131  -0.68958  -0.54202
 Alpha  occ. eigenvalues --   -0.52623  -0.49024  -0.47897
 Alpha virt. eigenvalues --    0.20324   0.22916   0.31244   0.32315   0.75391
 Alpha virt. eigenvalues --    0.80027   0.84193   0.84995   0.89932   1.07145
 Alpha virt. eigenvalues --    1.18185   1.20279   1.22719   1.24135   2.57989

 Mulliken charges:
               1
     1  O   -0.726783
     2  H    0.357110
     3  H    0.369976
     4  O   -0.720649
     5  H    0.351590
     6  H    0.368756
 Sum of Mulliken charges =  -0.00000

 Dipole moment (field-independent basis, Debye):
    X=             -1.9350    Y=             -0.9598    Z=              0.0000  Tot=              2.1600
 Quadrupole moment (field-independent basis, Debye-Ang):
   XX=             -9.2672   YY=              3.2228   ZZ=            -14.9865
   XY=             -2.5696   XZ=              0.0000   YZ=              0.0000

 \MP4DQ=-33.887625\MP4SDQ=-33.8897048\CCSD=-33.8907566\CCSD(T)=-33.8933
 Normal termination of Gaussian 16 at Sun Dec 10 06:54:53 2023.
