 Gaussian 16, Revision A.03,
 Gaussian 16:  ES64L-G16RevA.03 25-Dec-2016

 ------------------
 #p CCSD(T)/CEP-31G
 ------------------

 ------------
 H2O_H2O_2660
 ------------
 Symbolic Z-matrix:
 Charge =  0 Multiplicity = 1

                         Standard orientation:
 ---------------------------------------------------------------------
 Center     Atomic      Atomic             Coordinates (Angstroms)
 Number     Number       Type             X           Y           Z
 ---------------------------------------------------------------------
      1          8           0        0.034784   -2.200196    0.000000
      2          1           0       -0.765559   -2.770246    0.000000
      3          1           0        0.833582   -2.772410    0.000000
      4          8           0        0.034784    2.223707    0.000000
      5          1           0        0.322716    3.163176    0.000000
      6          1           0       -0.947286    2.191397    0.000000
 ---------------------------------------------------------------------

 SCF Done:  E(RHF) =  -33.6492653222     A.U. after   11 cycles
 E2 =    -0.2285641766D+00 EUMP2 =    -0.33877829498806D+02
 CCSD(T)
 CCSD(T)= -0.33894903574D+02

 The electronic state is 1-A'.
 Alpha  occ. eigenvalues --   -1.34714  -1.34344  -0.70339  -0.69953  -0.54315
 Alpha  occ. eigenvalues --   -0.53917  -0.49248  -0.48881
 Alpha virt. eigenvalues --    0.20815   0.21389   0.31150   0.31502   0.81233
 Alpha virt. eigenvalues --    0.81733   0.82288   0.86075   0.87616   0.89379
 Alpha virt. eigenvalues --    1.18083   1.18450   1.22562   1.22934   2.58152

 Mulliken charges:
               1
     1  O   -0.732400
     2  H    0.363800
     3  H    0.368623
     4  O   -0.731243
     5  H    0.362250
     6  H    0.368972
 Sum of Mulliken charges =   0.00000

 Dipole moment (field-independent basis, Debye):
    X=             -1.5944    Y=             -0.5606    Z=              0.0000  Tot=              1.6901
 Quadrupole moment (field-independent basis, Debye-Ang):
   XX=             -8.8399   YY=              9.5948   ZZ=            -14.9859
   XY=             -2.7678   XZ=              0.0000   YZ=              0.0000

 \MP4DQ=-33.8892368\MP4SDQ=-33.8912734\CCSD=-33.8923309\CCSD(T)=-33.894
 Normal termination of Gaussian 16 at Sun Dec 10 06:27:43 2023.
