 Gaussian 16, Revision A.03,
 Gaussian 16:  ES64L-G16RevA.03 25-Dec-2016

 ------------------
 #p CCSD(T)/CEP-31G
 ------------------

 -----------
 H2O_H2O_716
 -----------
 Symbolic Z-matrix:
 Charge =  0 Multiplicity = 1

                         Standard orientation:
 ---------------------------------------------------------------------
 Center     Atomic      Atomic             Coordinates (Angstroms)
 Number     Number       Type             X           Y           Z
 ---------------------------------------------------------------------
      1          8           0        0.049565   -1.145057    0.000000
      2          1           0       -0.752073   -1.713284    0.000000
      3          1           0        0.847058   -1.719086    0.000000
      4          8           0        0.049565    1.201811    0.000000
      5          1           0       -0.041715    2.180163    0.000000
      6          1           0       -0.846306    0.798176    0.000000
 ---------------------------------------------------------------------

 SCF Done:  E(RHF) =  -33.6347521384     A.U. after   11 cycles
 E2 =    -0.2306608761D+00 EUMP2 =    -0.33865413014482D+02
 CCSD(T)
 CCSD(T)= -0.33882701962D+02

 The electronic state is 1-A'.
 Alpha  occ. eigenvalues --   -1.34726  -1.31580  -0.70388  -0.67828  -0.54844
 Alpha  occ. eigenvalues --   -0.49409  -0.49363  -0.45904
 Alpha virt. eigenvalues --    0.19973   0.25968   0.31142   0.33601   0.78237
 Alpha virt. eigenvalues --    0.84120   0.89065   0.93586   0.95419   1.15073
 Alpha virt. eigenvalues --    1.18967   1.21832   1.23780   1.31000   2.60272

 Mulliken charges:
               1
     1  O   -0.748966
     2  H    0.352416
     3  H    0.386007
     4  O   -0.690812
     5  H    0.335966
     6  H    0.365389
 Sum of Mulliken charges =  -0.00000

 Dipole moment (field-independent basis, Debye):
    X=             -2.0798    Y=             -1.4216    Z=              0.0000  Tot=              2.5193
 Quadrupole moment (field-independent basis, Debye-Ang):
   XX=             -9.6652   YY=             -2.4765   ZZ=            -14.9958
   XY=             -2.1890   XZ=              0.0000   YZ=              0.0000

 P4DQ=-33.8766924\MP4SDQ=-33.8788879\CCSD=-33.8799219\CCSD(T)=-33.88270
 Normal termination of Gaussian 16 at Sun Dec 10 06:38:07 2023.
