 Gaussian 16, Revision A.03,
 Gaussian 16:  ES64L-G16RevA.03 25-Dec-2016

 ------------------
 #p CCSD(T)/CEP-31G
 ------------------

 ------------
 H2O_H2O_4263
 ------------
 Symbolic Z-matrix:
 Charge =  0 Multiplicity = 1

                         Standard orientation:
 ---------------------------------------------------------------------
 Center     Atomic      Atomic             Coordinates (Angstroms)
 Number     Number       Type             X           Y           Z
 ---------------------------------------------------------------------
      1          8           0        0.042963   -3.042827    0.000000
      2          1           0       -0.757296   -3.612993    0.000000
      3          1           0        0.841844   -3.614923    0.000000
      4          8           0        0.042963    3.081635    0.000000
      5          1           0        0.141938    4.059239    0.000000
      6          1           0       -0.913901    2.858214    0.000000
 ---------------------------------------------------------------------

 SCF Done:  E(RHF) =  -33.6510627801     A.U. after   11 cycles
 E2 =    -0.2284249163D+00 EUMP2 =    -0.33879487696399D+02
 CCSD(T)
 CCSD(T)= -0.33896508894D+02

 The electronic state is 1-A'.
 Alpha  occ. eigenvalues --   -1.35235  -1.34925  -0.70865  -0.70546  -0.54930
 Alpha  occ. eigenvalues --   -0.54618  -0.49796  -0.49486
 Alpha virt. eigenvalues --    0.20496   0.20812   0.30731   0.31038   0.80757
 Alpha virt. eigenvalues --    0.81063   0.83851   0.84159   0.86936   0.87294
 Alpha virt. eigenvalues --    1.17635   1.17944   1.22099   1.22410   2.57670

 Mulliken charges:
               1
     1  O   -0.738553
     2  H    0.368070
     3  H    0.370483
     4  O   -0.738203
     5  H    0.367108
     6  H    0.371094
 Sum of Mulliken charges =   0.00000

 Dipole moment (field-independent basis, Debye):
    X=             -1.9824    Y=             -0.9086    Z=              0.0000  Tot=              2.1807
 Quadrupole moment (field-independent basis, Debye-Ang):
   XX=             -9.2360   YY=             15.9961   ZZ=            -14.9875
   XY=             -5.2792   XZ=              0.0000   YZ=              0.0000

 \MP4DQ=-33.8908591\MP4SDQ=-33.8928888\CCSD=-33.8939453\CCSD(T)=-33.896
 Normal termination of Gaussian 16 at Sun Dec 10 06:56:49 2023.
