 Gaussian 16, Revision A.03,
 Gaussian 16:  ES64L-G16RevA.03 25-Dec-2016

 ------------------
 #p CCSD(T)/CEP-31G
 ------------------

 ------------
 H2O_H2O_3347
 ------------
 Symbolic Z-matrix:
 Charge =  0 Multiplicity = 1

                         Standard orientation:
 ---------------------------------------------------------------------
 Center     Atomic      Atomic             Coordinates (Angstroms)
 Number     Number       Type             X           Y           Z
 ---------------------------------------------------------------------
      1          8           0        0.056719   -2.518134    0.000000
      2          1           0       -0.743935   -3.087747    0.000000
      3          1           0        0.855204   -3.090783    0.000000
      4          8           0        0.056719    2.617235    0.000000
      5          1           0       -0.403515    3.485390    0.000000
      6          1           0       -0.615254    1.900327    0.000000
 ---------------------------------------------------------------------

 SCF Done:  E(RHF) =  -33.6521327036     A.U. after   11 cycles
 E2 =    -0.2283926455D+00 EUMP2 =    -0.33880525349186D+02
 CCSD(T)
 CCSD(T)= -0.33897515381D+02

 The electronic state is 1-A'.
 Alpha  occ. eigenvalues --   -1.35699  -1.34557  -0.71333  -0.70163  -0.55455
 Alpha  occ. eigenvalues --   -0.54290  -0.50275  -0.49133
 Alpha virt. eigenvalues --    0.20057   0.21300   0.30329   0.31506   0.80280
 Alpha virt. eigenvalues --    0.81395   0.83178   0.84504   0.86389   0.87674
 Alpha virt. eigenvalues --    1.17218   1.18360   1.21667   1.22873   2.57214

 Mulliken charges:
               1
     1  O   -0.742366
     2  H    0.368759
     3  H    0.373627
     4  O   -0.741823
     5  H    0.365139
     6  H    0.376665
 Sum of Mulliken charges =  -0.00000

 Dipole moment (field-independent basis, Debye):
    X=             -2.6100    Y=             -2.3403    Z=              0.0000  Tot=              3.5056
 Quadrupole moment (field-independent basis, Debye-Ang):
   XX=            -10.1245   YY=              5.0438   ZZ=            -14.9898
   XY=             -6.7930   XZ=              0.0000   YZ=              0.0000

 MP4DQ=-33.891873\MP4SDQ=-33.8939005\CCSD=-33.8949538\CCSD(T)=-33.89751
 Normal termination of Gaussian 16 at Sun Dec 10 06:40:06 2023.
