 Gaussian 16, Revision A.03,
 Gaussian 16:  ES64L-G16RevA.03 25-Dec-2016

 ------------------
 #p CCSD(T)/CEP-31G
 ------------------

 ----------
 H2O_H2O_31
 ----------
 Symbolic Z-matrix:
 Charge =  0 Multiplicity = 1

                         Standard orientation:
 ---------------------------------------------------------------------
 Center     Atomic      Atomic             Coordinates (Angstroms)
 Number     Number       Type             X           Y           Z
 ---------------------------------------------------------------------
      1          8           0        0.021866   -0.812226    0.000000
      2          1           0       -0.779019   -1.381514    0.000000
      3          1           0        0.820119   -1.385199    0.000000
      4          8           0        0.021866    0.820820    0.000000
      5          1           0        0.543931    1.653259    0.000000
      6          1           0       -0.934890    1.044700    0.000000
 ---------------------------------------------------------------------

 SCF Done:  E(RHF) =  -33.4753498734     A.U. after   12 cycles
 E2 =    -0.2393323638D+00 EUMP2 =    -0.33714682237142D+02
 CCSD(T)
 CCSD(T)= -0.33730974377D+02

 The electronic state is 1-A'.
 Alpha  occ. eigenvalues --   -1.37884  -1.28820  -0.71761  -0.68263  -0.63470
 Alpha  occ. eigenvalues --   -0.52356  -0.42459  -0.31332
 Alpha virt. eigenvalues --    0.20799   0.28723   0.31494   0.33644   0.82078
 Alpha virt. eigenvalues --    0.82088   0.88791   0.89060   1.01006   1.19353
 Alpha virt. eigenvalues --    1.21786   1.23915   1.27282   1.40009   2.53508

 Mulliken charges:
               1
     1  O   -0.699406
     2  H    0.328316
     3  H    0.367811
     4  O   -0.675987
     5  H    0.336607
     6  H    0.342659
 Sum of Mulliken charges =  -0.00000

 Dipole moment (field-independent basis, Debye):
    X=             -0.7911    Y=             -0.2545    Z=              0.0000  Tot=              0.8310
 Quadrupole moment (field-independent basis, Debye-Ang):
   XX=             -8.7947   YY=             -8.0510   ZZ=            -15.0019
   XY=             -0.5509   XZ=              0.0000   YZ=              0.0000

 P4DQ=-33.7239796\MP4SDQ=-33.726848\CCSD=-33.7273326\CCSD(T)=-33.730974
 Normal termination of Gaussian 16 at Sun Dec 10 06:25:18 2023.
