 Gaussian 16, Revision A.03,
 Gaussian 16:  ES64L-G16RevA.03 25-Dec-2016

 ------------------
 #p CCSD(T)/CEP-31G
 ------------------

 -----------
 H2O_H2O_461
 -----------
 Symbolic Z-matrix:
 Charge =  0 Multiplicity = 1

                         Standard orientation:
 ---------------------------------------------------------------------
 Center     Atomic      Atomic             Coordinates (Angstroms)
 Number     Number       Type             X           Y           Z
 ---------------------------------------------------------------------
      1          8           0        0.037701   -1.027654    0.000000
      2          1           0       -0.763643   -1.596295    0.000000
      3          1           0        0.835491   -1.601271    0.000000
      4          8           0        0.037701    1.055766    0.000000
      5          1           0        0.265253    2.011657    0.000000
      6          1           0       -0.940322    0.961015    0.000000
 ---------------------------------------------------------------------

 SCF Done:  E(RHF) =  -33.6096218950     A.U. after   11 cycles
 E2 =    -0.2317546044D+00 EUMP2 =    -0.33841376499420D+02
 CCSD(T)
 CCSD(T)= -0.33858679842D+02

 The electronic state is 1-A'.
 Alpha  occ. eigenvalues --   -1.33907  -1.30914  -0.69395  -0.67303  -0.56832
 Alpha  occ. eigenvalues --   -0.48740  -0.44818  -0.44596
 Alpha virt. eigenvalues --    0.20710   0.26275   0.32024   0.33255   0.79809
 Alpha virt. eigenvalues --    0.82926   0.89967   0.97619   0.99459   1.15443
 Alpha virt. eigenvalues --    1.19344   1.23520   1.25100   1.30932   2.52096

 Mulliken charges:
               1
     1  O   -0.736582
     2  H    0.344090
     3  H    0.377335
     4  O   -0.676893
     5  H    0.344408
     6  H    0.347643
 Sum of Mulliken charges =   0.00000

 Dipole moment (field-independent basis, Debye):
    X=             -1.5060    Y=             -0.6752    Z=              0.0000  Tot=              1.6504
 Quadrupole moment (field-independent basis, Debye-Ang):
   XX=             -9.1237   YY=             -3.4420   ZZ=            -15.0026
   XY=             -1.1610   XZ=              0.0000   YZ=              0.0000

 MP4DQ=-33.852523\MP4SDQ=-33.8547786\CCSD=-33.8557902\CCSD(T)=-33.85867
 Normal termination of Gaussian 16 at Sun Dec 10 06:33:23 2023.
