 Gaussian 16, Revision A.03,
 Gaussian 16:  ES64L-G16RevA.03 25-Dec-2016

 ------------------
 #p CCSD(T)/CEP-31G
 ------------------

 ------------
 H2O_H2O_2325
 ------------
 Symbolic Z-matrix:
 Charge =  0 Multiplicity = 1

                         Standard orientation:
 ---------------------------------------------------------------------
 Center     Atomic      Atomic             Coordinates (Angstroms)
 Number     Number       Type             X           Y           Z
 ---------------------------------------------------------------------
      1          8           0        0.000000   -0.000000    2.040119
      2          1           0        0.000000    0.799571    2.611251
      3          1           0       -0.000000   -0.799571    2.611251
      4          8           0        0.000000   -0.000000   -2.040119
      5          1           0       -0.000000   -0.799571   -2.611251
      6          1           0        0.000000    0.799571   -2.611251
 ---------------------------------------------------------------------

 SCF Done:  E(RHF) =  -33.6473925955     A.U. after   10 cycles
 E2 =    -0.2286651816D+00 EUMP2 =    -0.33876057777094D+02
 CCSD(T)
 CCSD(T)= -0.33893186786D+02

 The electronic state is 1-AG.
 Alpha  occ. eigenvalues --   -1.34194  -1.34185  -0.69816  -0.69804  -0.53854
 Alpha  occ. eigenvalues --   -0.53464  -0.48723  -0.48672
 Alpha virt. eigenvalues --    0.21074   0.21609   0.31495   0.31650   0.80508
 Alpha virt. eigenvalues --    0.81431   0.82266   0.87238   0.89187   0.90841
 Alpha virt. eigenvalues --    1.18529   1.18533   1.22922   1.23148   2.58326

 Mulliken charges:
               1
     1  O   -0.725956
     2  H    0.362978
     3  H    0.362978
     4  O   -0.725956
     5  H    0.362978
     6  H    0.362978
 Sum of Mulliken charges =  -0.00000

 Dipole moment (field-independent basis, Debye):
    X=             -0.0000    Y=              0.0000    Z=              0.0000  Tot=              0.0000
 Quadrupole moment (field-independent basis, Debye-Ang):
   XX=            -14.9842   YY=             -8.0893   ZZ=              9.4479
   XY=              0.0000   XZ=              0.0000   YZ=             -0.0000

 -33.8875005\MP4SDQ=-33.8895451\CCSD=-33.8906051\CCSD(T)=-33.8931868\RM
 Normal termination of Gaussian 16 at Sun Dec 10 07:09:15 2023.
