 Gaussian 16, Revision A.03,
 Gaussian 16:  ES64L-G16RevA.03 25-Dec-2016

 ------------------
 #p CCSD(T)/CEP-31G
 ------------------

 ------------
 H2O_H2O_2822
 ------------
 Symbolic Z-matrix:
 Charge =  0 Multiplicity = 1

                         Standard orientation:
 ---------------------------------------------------------------------
 Center     Atomic      Atomic             Coordinates (Angstroms)
 Number     Number       Type             X           Y           Z
 ---------------------------------------------------------------------
      1          8           0        0.056730   -2.238934    0.000000
      2          1           0       -0.744055   -2.808361    0.000000
      3          1           0        0.855083   -2.811767    0.000000
      4          8           0        0.056730    2.338009    0.000000
      5          1           0       -0.403302    3.206270    0.000000
      6          1           0       -0.615409    1.621256    0.000000
 ---------------------------------------------------------------------

 SCF Done:  E(RHF) =  -33.6523547092     A.U. after   11 cycles
 E2 =    -0.2284253779D+00 EUMP2 =    -0.33880780087078D+02
 CCSD(T)
 CCSD(T)= -0.33897764393D+02

 The electronic state is 1-A'.
 Alpha  occ. eigenvalues --   -1.35745  -1.34276  -0.71381  -0.69868  -0.55515
 Alpha  occ. eigenvalues --   -0.54010  -0.50324  -0.48856
 Alpha virt. eigenvalues --    0.19874   0.21717   0.30275   0.31819   0.80229
 Alpha virt. eigenvalues --    0.81669   0.82564   0.85110   0.86280   0.88395
 Alpha virt. eigenvalues --    1.17180   1.18726   1.21599   1.23431   2.57184

 Mulliken charges:
               1
     1  O   -0.743053
     2  H    0.368244
     3  H    0.374957
     4  O   -0.742160
     5  H    0.363040
     6  H    0.378971
 Sum of Mulliken charges =   0.00000

 Dipole moment (field-independent basis, Debye):
    X=             -2.6037    Y=             -2.3611    Z=              0.0000  Tot=              3.5149
 Quadrupole moment (field-independent basis, Debye-Ang):
   XX=            -10.1210   YY=              3.3336   ZZ=            -14.9905
   XY=             -6.0740   XZ=              0.0000   YZ=              0.0000

 MP4DQ=-33.8921198\MP4SDQ=-33.8941501\CCSD=-33.8952001\CCSD(T)=-33.8977
 Normal termination of Gaussian 16 at Sun Dec 10 06:30:43 2023.
