 Gaussian 16, Revision A.03,
 Gaussian 16:  ES64L-G16RevA.03 25-Dec-2016

 ------------------
 #p CCSD(T)/CEP-31G
 ------------------

 -----------
 H2O_H2O_827
 -----------
 Symbolic Z-matrix:
 Charge =  0 Multiplicity = 1

                         Standard orientation:
 ---------------------------------------------------------------------
 Center     Atomic      Atomic             Coordinates (Angstroms)
 Number     Number       Type             X           Y           Z
 ---------------------------------------------------------------------
      1          8           0        0.007455   -1.241837    0.000000
      2          1           0       -0.792411   -1.812556    0.000000
      3          1           0        0.806731   -1.813382    0.000000
      4          8           0        0.007455    1.242807    0.000000
      5          1           0        0.725984    1.913047    0.000000
      6          1           0       -0.859585    1.705135    0.000000
 ---------------------------------------------------------------------

 SCF Done:  E(RHF) =  -33.6297130121     A.U. after   11 cycles
 E2 =    -0.2300679768D+00 EUMP2 =    -0.33859780988804D+02
 CCSD(T)
 CCSD(T)= -0.33877205915D+02

 The electronic state is 1-A'.
 Alpha  occ. eigenvalues --   -1.32754  -1.32001  -0.68264  -0.67692  -0.54868
 Alpha  occ. eigenvalues --   -0.47520  -0.47478  -0.45981
 Alpha virt. eigenvalues --    0.21510   0.24214   0.32678   0.32961   0.79104
 Alpha virt. eigenvalues --    0.79512   0.88920   0.89702   1.05009   1.09319
 Alpha virt. eigenvalues --    1.19715   1.21532   1.24234   1.25421   2.55275

 Mulliken charges:
               1
     1  O   -0.700003
     2  H    0.347401
     3  H    0.352329
     4  O   -0.698811
     5  H    0.349335
     6  H    0.349749
 Sum of Mulliken charges =   0.00000

 Dipole moment (field-independent basis, Debye):
    X=             -0.3170    Y=             -0.0233    Z=              0.0000  Tot=              0.3178
 Quadrupole moment (field-independent basis, Debye-Ang):
   XX=             -8.2828   YY=             -0.0386   ZZ=            -14.9967
   XY=             -0.2321   XZ=              0.0000   YZ=              0.0000

 Q=-33.8712768\MP4SDQ=-33.8733864\CCSD=-33.8744794\CCSD(T)=-33.8772059\
 Normal termination of Gaussian 16 at Sun Dec 10 06:40:13 2023.
