 Gaussian 16, Revision A.03,
 Gaussian 16:  ES64L-G16RevA.03 25-Dec-2016

 ------------------
 #p CCSD(T)/CEP-31G
 ------------------

 ------------
 H2O_H2O_3329
 ------------
 Symbolic Z-matrix:
 Charge =  0 Multiplicity = 1

                         Standard orientation:
 ---------------------------------------------------------------------
 Center     Atomic      Atomic             Coordinates (Angstroms)
 Number     Number       Type             X           Y           Z
 ---------------------------------------------------------------------
      1          8           0        0.014783   -2.569849    0.000000
      2          1           0       -0.785071   -3.140585    0.000000
      3          1           0        0.814071   -3.141377    0.000000
      4          8           0        0.014783    2.573727    0.000000
      5          1           0        0.639665    3.332033    0.000000
      6          1           0       -0.905193    2.918909    0.000000
 ---------------------------------------------------------------------

 SCF Done:  E(RHF) =  -33.6496588457     A.U. after   11 cycles
 E2 =    -0.2285005992D+00 EUMP2 =    -0.33878159444887D+02
 CCSD(T)
 CCSD(T)= -0.33895221154D+02

 The electronic state is 1-A'.
 Alpha  occ. eigenvalues --   -1.34726  -1.34682  -0.70351  -0.70305  -0.54344
 Alpha  occ. eigenvalues --   -0.54290  -0.49266  -0.49222
 Alpha virt. eigenvalues --    0.20912   0.20990   0.31157   0.31200   0.81279
 Alpha virt. eigenvalues --    0.81338   0.84118   0.84983   0.87523   0.87629
 Alpha virt. eigenvalues --    1.18086   1.18130   1.22562   1.22607   2.58152

 Mulliken charges:
               1
     1  O   -0.733645
     2  H    0.366138
     3  H    0.367507
     4  O   -0.733528
     5  H    0.365857
     6  H    0.367671
 Sum of Mulliken charges =   0.00000

 Dipole moment (field-independent basis, Debye):
    X=             -0.6804    Y=             -0.0915    Z=              0.0000  Tot=              0.6865
 Quadrupole moment (field-independent basis, Debye-Ang):
   XX=             -8.1947   YY=             14.8761   ZZ=            -14.9858
   XY=             -1.3221   XZ=              0.0000   YZ=              0.0000

 \MP4DQ=-33.88956\MP4SDQ=-33.8915936\CCSD=-33.8926525\CCSD(T)=-33.89522
 Normal termination of Gaussian 16 at Sun Dec 10 06:39:47 2023.
