 Gaussian 16, Revision A.03,
 Gaussian 16:  ES64L-G16RevA.03 25-Dec-2016

 ------------------
 #p CCSD(T)/CEP-31G
 ------------------

 ------------
 H2O_H2O_1743
 ------------
 Symbolic Z-matrix:
 Charge =  0 Multiplicity = 1

                         Standard orientation:
 ---------------------------------------------------------------------
 Center     Atomic      Atomic             Coordinates (Angstroms)
 Number     Number       Type             X           Y           Z
 ---------------------------------------------------------------------
      1          8           0        0.052859   -1.682870    0.000000
      2          1           0       -0.748220   -2.251886    0.000000
      3          1           0        0.850917   -2.256114    0.000000
      4          8           0        0.052859    1.753105    0.000000
      5          1           0       -0.166283    2.710959    0.000000
      6          1           0       -0.782154    1.235166    0.000000
 ---------------------------------------------------------------------

 SCF Done:  E(RHF) =  -33.6505758719     A.U. after   11 cycles
 E2 =    -0.2288562295D+00 EUMP2 =    -0.33879432101322D+02
 CCSD(T)
 CCSD(T)= -0.33896507834D+02

 The electronic state is 1-A'.
 Alpha  occ. eigenvalues --   -1.35304  -1.33385  -0.70943  -0.68939  -0.54989
 Alpha  occ. eigenvalues --   -0.53000  -0.49861  -0.47948
 Alpha virt. eigenvalues --    0.19689   0.23163   0.30555   0.32632   0.75922
 Alpha virt. eigenvalues --    0.79773   0.83532   0.85930   0.87593   1.03278
 Alpha virt. eigenvalues --    1.17490   1.20358   1.21991   1.25419   2.56137

 Mulliken charges:
               1
     1  O   -0.737284
     2  H    0.361930
     3  H    0.376206
     4  O   -0.731927
     5  H    0.352996
     6  H    0.378080
 Sum of Mulliken charges =  -0.00000

 Dipole moment (field-independent basis, Debye):
    X=             -2.3890    Y=             -1.7350    Z=              0.0000  Tot=              2.9526
 Quadrupole moment (field-independent basis, Debye-Ang):
   XX=             -9.8431   YY=              1.8617   ZZ=            -14.9900
   XY=             -3.8226   XZ=              0.0000   YZ=              0.0000

 \MP4DQ=-33.8907964\MP4SDQ=-33.8928663\CCSD=-33.893908\CCSD(T)=-33.8965
 Normal termination of Gaussian 16 at Sun Dec 10 06:57:17 2023.
