 Gaussian 16, Revision A.03,
 Gaussian 16:  ES64L-G16RevA.03 25-Dec-2016

 ------------------
 #p CCSD(T)/CEP-31G
 ------------------

 ------------
 H2O_H2O_1207
 ------------
 Symbolic Z-matrix:
 Charge =  0 Multiplicity = 1

                         Standard orientation:
 ---------------------------------------------------------------------
 Center     Atomic      Atomic             Coordinates (Angstroms)
 Number     Number       Type             X           Y           Z
 ---------------------------------------------------------------------
      1          8           0        0.025269   -1.435445    0.000000
      2          1           0       -0.775162   -2.005370    0.000000
      3          1           0        0.823978   -2.007783    0.000000
      4          8           0        0.025269    1.447149    0.000000
      5          1           0        0.491083    2.312321    0.000000
      6          1           0       -0.944209    1.607203    0.000000
 ---------------------------------------------------------------------

 SCF Done:  E(RHF) =  -33.6404337304     A.U. after   11 cycles
 E2 =    -0.2293862518D+00 EUMP2 =    -0.33869819982189D+02
 CCSD(T)
 CCSD(T)= -0.33887194019D+02

 The electronic state is 1-A'.
 Alpha  occ. eigenvalues --   -1.33401  -1.32915  -0.69008  -0.68522  -0.53941
 Alpha  occ. eigenvalues --   -0.50660  -0.47977  -0.47203
 Alpha virt. eigenvalues --    0.21050   0.23359   0.32121   0.32494   0.79370
 Alpha virt. eigenvalues --    0.79576   0.82224   0.86584   0.96740   1.12231
 Alpha virt. eigenvalues --    1.19103   1.20900   1.23917   1.24158   2.58979

 Mulliken charges:
               1
     1  O   -0.711668
     2  H    0.350044
     3  H    0.360975
     4  O   -0.705958
     5  H    0.349100
     6  H    0.357508
 Sum of Mulliken charges =   0.00000

 Dipole moment (field-independent basis, Debye):
    X=             -1.1186    Y=             -0.2911    Z=              0.0000  Tot=              1.1559
 Quadrupole moment (field-independent basis, Debye-Ang):
   XX=             -8.5741   YY=              2.2010   ZZ=            -14.9862
   XY=             -1.0835   XZ=              0.0000   YZ=              0.0000

 P4DQ=-33.8813651\MP4SDQ=-33.8834648\CCSD=-33.8845443\CCSD(T)=-33.88719
 Normal termination of Gaussian 16 at Sun Dec 10 06:47:19 2023.
