 Gaussian 16, Revision A.03,
 Gaussian 16:  ES64L-G16RevA.03 25-Dec-2016

 ------------------
 #p CCSD(T)/CEP-31G
 ------------------

 -----------
 H2O_H2O_791
 -----------
 Symbolic Z-matrix:
 Charge =  0 Multiplicity = 1

                         Standard orientation:
 ---------------------------------------------------------------------
 Center     Atomic      Atomic             Coordinates (Angstroms)
 Number     Number       Type             X           Y           Z
 ---------------------------------------------------------------------
      1          8           0        0.049561   -1.184939    0.000000
      2          1           0       -0.752009   -1.753261    0.000000
      3          1           0        0.847123   -1.758873    0.000000
      4          8           0        0.049561    1.241704    0.000000
      5          1           0       -0.041835    2.220046    0.000000
      6          1           0       -0.846261    0.837962    0.000000
 ---------------------------------------------------------------------

 SCF Done:  E(RHF) =  -33.6381435971     A.U. after   11 cycles
 E2 =    -0.2304068900D+00 EUMP2 =    -0.33868550487060D+02
 CCSD(T)
 CCSD(T)= -0.33885845641D+02

 The electronic state is 1-A'.
 Alpha  occ. eigenvalues --   -1.34690  -1.31776  -0.70346  -0.67831  -0.54777
 Alpha  occ. eigenvalues --   -0.49931  -0.49310  -0.46140
 Alpha virt. eigenvalues --    0.19970   0.25680   0.31146   0.33510   0.78165
 Alpha virt. eigenvalues --    0.83820   0.88706   0.91332   0.94744   1.15641
 Alpha virt. eigenvalues --    1.19044   1.21806   1.23353   1.30561   2.60894

 Mulliken charges:
               1
     1  O   -0.745065
     2  H    0.352717
     3  H    0.384075
     4  O   -0.695858
     5  H    0.337351
     6  H    0.366781
 Sum of Mulliken charges =  -0.00000

 Dipole moment (field-independent basis, Debye):
    X=             -2.1021    Y=             -1.4241    Z=              0.0000  Tot=              2.5391
 Quadrupole moment (field-independent basis, Debye-Ang):
   XX=             -9.6611   YY=             -2.0261   ZZ=            -14.9950
   XY=             -2.2780   XZ=              0.0000   YZ=              0.0000

 MP4DQ=-33.8798741\MP4SDQ=-33.8820524\CCSD=-33.883095\CCSD(T)=-33.88584
 Normal termination of Gaussian 16 at Sun Dec 10 06:39:32 2023.
