 Gaussian 16, Revision A.03,
 Gaussian 16:  ES64L-G16RevA.03 25-Dec-2016

 ------------------
 #p CCSD(T)/CEP-31G
 ------------------

 ----------
 H2O_H2O_13
 ----------
 Symbolic Z-matrix:
 Charge =  0 Multiplicity = 1

                         Standard orientation:
 ---------------------------------------------------------------------
 Center     Atomic      Atomic             Coordinates (Angstroms)
 Number     Number       Type             X           Y           Z
 ---------------------------------------------------------------------
      1          8           0        0.043029   -0.782675    0.000000
      2          1           0       -0.759166   -1.350115    0.000000
      3          1           0        0.839959   -1.357486    0.000000
      4          8           0        0.043029    0.821190    0.000000
      5          1           0        0.145329    1.798452    0.000000
      6          1           0       -0.914590    0.601026    0.000000
 ---------------------------------------------------------------------

 SCF Done:  E(RHF) =  -33.4628529701     A.U. after   12 cycles
 E2 =    -0.2388250358D+00 EUMP2 =    -0.33701678005875D+02
 CCSD(T)
 CCSD(T)= -0.33718278390D+02

 The electronic state is 1-A'.
 Alpha  occ. eigenvalues --   -1.40350  -1.28581  -0.75158  -0.70562  -0.58830
 Alpha  occ. eigenvalues --   -0.53915  -0.42712  -0.34008
 Alpha virt. eigenvalues --    0.19927   0.29033   0.31027   0.33470   0.81229
 Alpha virt. eigenvalues --    0.84008   0.88607   0.93287   0.97182   1.20213
 Alpha virt. eigenvalues --    1.21614   1.25398   1.25878   1.41113   2.60718

 Mulliken charges:
               1
     1  O   -0.738602
     2  H    0.329771
     3  H    0.394067
     4  O   -0.636968
     5  H    0.303317
     6  H    0.348416
 Sum of Mulliken charges =  -0.00000

 Dipole moment (field-independent basis, Debye):
    X=             -1.5088    Y=             -1.0605    Z=              0.0000  Tot=              1.8442
 Quadrupole moment (field-independent basis, Debye-Ang):
   XX=             -9.4420   YY=             -8.5148   ZZ=            -14.9219
   XY=             -1.1084   XZ=              0.0000   YZ=              0.0000

 DQ=-33.7112533\MP4SDQ=-33.7141425\CCSD=-33.7146023\CCSD(T)=-33.7182784
 Normal termination of Gaussian 16 at Sun Dec 10 06:24:58 2023.
