 Gaussian 16, Revision A.03,
 Gaussian 16:  ES64L-G16RevA.03 25-Dec-2016

 ------------------
 #p CCSD(T)/CEP-31G
 ------------------

 -----------
 H2O_H2O_734
 -----------
 Symbolic Z-matrix:
 Charge =  0 Multiplicity = 1

                         Standard orientation:
 ---------------------------------------------------------------------
 Center     Atomic      Atomic             Coordinates (Angstroms)
 Number     Number       Type             X           Y           Z
 ---------------------------------------------------------------------
      1          8           0        0.031752   -1.178802    0.000000
      2          1           0       -0.769129   -1.748095    0.000000
      3          1           0        0.830009   -1.751771    0.000000
      4          8           0        0.031752    1.197907    0.000000
      5          1           0        0.381379    2.116203    0.000000
      6          1           0       -0.950297    1.230825    0.000000
 ---------------------------------------------------------------------

 SCF Done:  E(RHF) =  -33.6293652587     A.U. after   11 cycles
 E2 =    -0.2304006249D+00 EUMP2 =    -0.33859765883554D+02
 CCSD(T)
 CCSD(T)= -0.33877175849D+02

 The electronic state is 1-A'.
 Alpha  occ. eigenvalues --   -1.33226  -1.31843  -0.68770  -0.67602  -0.55316
 Alpha  occ. eigenvalues --   -0.47971  -0.47505  -0.45879
 Alpha virt. eigenvalues --    0.20970   0.24892   0.32329   0.32946   0.79206
 Alpha virt. eigenvalues --    0.81085   0.89214   0.91555   1.00489   1.13460
 Alpha virt. eigenvalues --    1.19412   1.22714   1.24269   1.28229   2.54346

 Mulliken charges:
               1
     1  O   -0.717686
     2  H    0.344964
     3  H    0.366713
     4  O   -0.691837
     5  H    0.346714
     6  H    0.351132
 Sum of Mulliken charges =   0.00000

 Dipole moment (field-independent basis, Debye):
    X=             -1.3345    Y=             -0.4612    Z=              0.0000  Tot=              1.4120
 Quadrupole moment (field-independent basis, Debye-Ang):
   XX=             -8.8499   YY=             -1.1566   ZZ=            -14.9971
   XY=             -1.0884   XZ=              0.0000   YZ=              0.0000

 4DQ=-33.8711997\MP4SDQ=-33.8733499\CCSD=-33.8744274\CCSD(T)=-33.877175
 Normal termination of Gaussian 16 at Sun Dec 10 06:38:27 2023.
