 Gaussian 16, Revision A.03,
 Gaussian 16:  ES64L-G16RevA.03 25-Dec-2016

 ------------------
 #p CCSD(T)/CEP-31G
 ------------------

 ------------
 H2O_H2O_1310
 ------------
 Symbolic Z-matrix:
 Charge =  0 Multiplicity = 1

                         Standard orientation:
 ---------------------------------------------------------------------
 Center     Atomic      Atomic             Coordinates (Angstroms)
 Number     Number       Type             X           Y           Z
 ---------------------------------------------------------------------
      1          8           0        0.034792   -1.482240    0.000000
      2          1           0       -0.765922   -2.051769    0.000000
      3          1           0        0.833217   -2.054973    0.000000
      4          8           0        0.034792    1.505706    0.000000
      5          1           0        0.323334    2.444987    0.000000
      6          1           0       -0.947300    1.474035    0.000000
 ---------------------------------------------------------------------

 SCF Done:  E(RHF) =  -33.6432408875     A.U. after   11 cycles
 E2 =    -0.2292898126D+00 EUMP2 =    -0.33872530700039D+02
 CCSD(T)
 CCSD(T)= -0.33889845616D+02

 The electronic state is 1-A'.
 Alpha  occ. eigenvalues --   -1.33850  -1.33041  -0.69472  -0.68627  -0.53992
 Alpha  occ. eigenvalues --   -0.51453  -0.48382  -0.47445
 Alpha virt. eigenvalues --    0.20711   0.23314   0.31782   0.32446   0.77487
 Alpha virt. eigenvalues --    0.79573   0.83313   0.85876   0.93743   1.12661
 Alpha virt. eigenvalues --    1.18718   1.21231   1.23431   1.24217   2.59561

 Mulliken charges:
               1
     1  O   -0.718264
     2  H    0.352095
     3  H    0.365632
     4  O   -0.710082
     5  H    0.348588
     6  H    0.362031
 Sum of Mulliken charges =   0.00000

 Dipole moment (field-independent basis, Debye):
    X=             -1.5479    Y=             -0.5852    Z=              0.0000  Tot=              1.6549
 Quadrupole moment (field-independent basis, Debye-Ang):
   XX=             -8.9029   YY=              2.3383   ZZ=            -14.9860
   XY=             -1.6871   XZ=              0.0000   YZ=              0.0000

 \MP4DQ=-33.8840409\MP4SDQ=-33.8861409\CCSD=-33.8872089\CCSD(T)=-33.889
 Normal termination of Gaussian 16 at Sun Dec 10 06:49:15 2023.
