 Gaussian 16, Revision A.03,
 Gaussian 16:  ES64L-G16RevA.03 25-Dec-2016

 ------------------
 #p CCSD(T)/CEP-31G
 ------------------

 ------------
 H2O_H2O_3056
 ------------
 Symbolic Z-matrix:
 Charge =  0 Multiplicity = 1

                         Standard orientation:
 ---------------------------------------------------------------------
 Center     Atomic      Atomic             Coordinates (Angstroms)
 Number     Number       Type             X           Y           Z
 ---------------------------------------------------------------------
      1          8           0        0.021860   -2.420996    0.000000
      2          1           0       -0.778154   -2.991507    0.000000
      3          1           0        0.820987   -2.992748    0.000000
      4          8           0        0.021860    2.429657    0.000000
      5          1           0        0.542651    3.262893    0.000000
      6          1           0       -0.935238    2.652074    0.000000
 ---------------------------------------------------------------------

 SCF Done:  E(RHF) =  -33.6494002237     A.U. after   11 cycles
 E2 =    -0.2285232392D+00 EUMP2 =    -0.33877923462866D+02
 CCSD(T)
 CCSD(T)= -0.33894992832D+02

 The electronic state is 1-A'.
 Alpha  occ. eigenvalues --   -1.34679  -1.34566  -0.70303  -0.70186  -0.54284
 Alpha  occ. eigenvalues --   -0.54155  -0.49215  -0.49103
 Alpha virt. eigenvalues --    0.20928   0.21108   0.31191   0.31298   0.81317
 Alpha virt. eigenvalues --    0.81467   0.83730   0.85527   0.87579   0.87872
 Alpha virt. eigenvalues --    1.18123   1.18233   1.22602   1.22714   2.58198

 Mulliken charges:
               1
     1  O   -0.732782
     2  H    0.365207
     3  H    0.367577
     4  O   -0.732455
     5  H    0.364651
     6  H    0.367803
 Sum of Mulliken charges =  -0.00000

 Dipole moment (field-independent basis, Debye):
    X=             -1.0048    Y=             -0.2050    Z=              0.0000  Tot=              1.0255
 Quadrupole moment (field-independent basis, Debye-Ang):
   XX=             -8.3661   YY=             12.9312   ZZ=            -14.9857
   XY=             -1.8448   XZ=              0.0000   YZ=              0.0000

 \MP4DQ=-33.8893293\MP4SDQ=-33.8913638\CCSD=-33.8924227\CCSD(T)=-33.894
 Normal termination of Gaussian 16 at Sun Dec 10 06:34:56 2023.
