 Gaussian 16, Revision A.03,
 Gaussian 16:  ES64L-G16RevA.03 25-Dec-2016

 ------------------
 #p CCSD(T)/CEP-31G
 ------------------

 ------------
 H2O_H2O_1204
 ------------
 Symbolic Z-matrix:
 Charge =  0 Multiplicity = 1

                         Standard orientation:
 ---------------------------------------------------------------------
 Center     Atomic      Atomic             Coordinates (Angstroms)
 Number     Number       Type             X           Y           Z
 ---------------------------------------------------------------------
      1          8           0        0.014784   -1.439703    0.000000
      2          1           0       -0.785291   -2.010129    0.000000
      3          1           0        0.813850   -2.011540    0.000000
      4          8           0        0.014784    1.443569    0.000000
      5          1           0        0.639960    2.201633    0.000000
      6          1           0       -0.905059    1.789108    0.000000
 ---------------------------------------------------------------------

 SCF Done:  E(RHF) =  -33.6393114274     A.U. after   11 cycles
 E2 =    -0.2293651103D+00 EUMP2 =    -0.33868676537717D+02
 CCSD(T)
 CCSD(T)= -0.33886065556D+02

 The electronic state is 1-A'.
 Alpha  occ. eigenvalues --   -1.33198  -1.32906  -0.68792  -0.68532  -0.53859
 Alpha  occ. eigenvalues --   -0.50402  -0.47802  -0.47131
 Alpha virt. eigenvalues --    0.21261   0.23254   0.32217   0.32544   0.79717
 Alpha virt. eigenvalues --    0.79856   0.81783   0.86670   0.98577   1.09961
 Alpha virt. eigenvalues --    1.19281   1.20231   1.24071   1.24226   2.59068

 Mulliken charges:
               1
     1  O   -0.707545
     2  H    0.350411
     3  H    0.356890
     4  O   -0.705534
     5  H    0.350642
     6  H    0.355135
 Sum of Mulliken charges =   0.00000

 Dipole moment (field-independent basis, Debye):
    X=             -0.6550    Y=             -0.0961    Z=              0.0000  Tot=              0.6620
 Quadrupole moment (field-independent basis, Debye-Ang):
   XX=             -8.3258   YY=              2.4758   ZZ=            -14.9860
   XY=             -0.6009   XZ=              0.0000   YZ=              0.0000

 MP4DQ=-33.8802361\MP4SDQ=-33.8823299\CCSD=-33.8834139\CCSD(T)=-33.8860
 Normal termination of Gaussian 16 at Sun Dec 10 06:47:16 2023.
