 Gaussian 16, Revision A.03,
 Gaussian 16:  ES64L-G16RevA.03 25-Dec-2016

 ------------------
 #p CCSD(T)/CEP-31G
 ------------------

 -----------
 H2O_H2O_117
 -----------
 Symbolic Z-matrix:
 Charge =  0 Multiplicity = 1

                         Standard orientation:
 ---------------------------------------------------------------------
 Center     Atomic      Atomic             Coordinates (Angstroms)
 Number     Number       Type             X           Y           Z
 ---------------------------------------------------------------------
      1          8           0        0.051387   -0.822464    0.000000
      2          1           0       -0.751122   -1.389460    0.000000
      3          1           0        0.847999   -1.397717    0.000000
      4          8           0        0.051387    0.885640    0.000000
      5          1           0       -0.102195    1.856165    0.000000
      6          1           0       -0.816874    0.425607    0.000000
 ---------------------------------------------------------------------

 SCF Done:  E(RHF) =  -33.5091783331     A.U. after   11 cycles
 E2 =    -0.2359243345D+00 EUMP2 =    -0.33745102667571D+02
 CCSD(T)
 CCSD(T)= -0.33761892310D+02

 The electronic state is 1-A'.
 Alpha  occ. eigenvalues --   -1.39630  -1.28913  -0.75572  -0.70575  -0.54733
 Alpha  occ. eigenvalues --   -0.53129  -0.43222  -0.40100
 Alpha virt. eigenvalues --    0.19615   0.29334   0.30146   0.33929   0.80240
 Alpha virt. eigenvalues --    0.83581   0.89366   0.95773   0.96818   1.18542
 Alpha virt. eigenvalues --    1.21608   1.26077   1.28751   1.37884   2.64848

 Mulliken charges:
               1
     1  O   -0.780008
     2  H    0.346092
     3  H    0.411715
     4  O   -0.632825
     5  H    0.297772
     6  H    0.357254
 Sum of Mulliken charges =  -0.00000

 Dipole moment (field-independent basis, Debye):
    X=             -1.8490    Y=             -1.6588    Z=              0.0000  Tot=              2.4841
 Quadrupole moment (field-independent basis, Debye-Ang):
   XX=             -9.8068   YY=             -7.5352   ZZ=            -14.9347
   XY=             -1.5596   XZ=              0.0000   YZ=              0.0000

 MP4DQ=-33.7551315\MP4SDQ=-33.7578108\CCSD=-33.7584649\CCSD(T)=-33.7618
 Normal termination of Gaussian 16 at Sun Dec 10 06:26:55 2023.
