 Gaussian 16, Revision A.03,
 Gaussian 16:  ES64L-G16RevA.03 25-Dec-2016

 ------------------
 #p CCSD(T)/CEP-31G
 ------------------

 -----------
 H2O_H2O_341
 -----------
 Symbolic Z-matrix:
 Charge =  0 Multiplicity = 1

                         Standard orientation:
 ---------------------------------------------------------------------
 Center     Atomic      Atomic             Coordinates (Angstroms)
 Number     Number       Type             X           Y           Z
 ---------------------------------------------------------------------
      1          8           0        0.049586   -0.945657    0.000000
      2          1           0       -0.752474   -1.513288    0.000000
      3          1           0        0.846652   -1.520279    0.000000
      4          8           0        0.049586    1.002337    0.000000
      5          1           0       -0.040967    1.980757    0.000000
      6          1           0       -0.846584    0.599368    0.000000
 ---------------------------------------------------------------------

 SCF Done:  E(RHF) =  -33.5911939266     A.U. after   11 cycles
 E2 =    -0.2328729959D+00 EUMP2 =    -0.33824066922463D+02
 CCSD(T)
 CCSD(T)= -0.33841198268D+02

 The electronic state is 1-A'.
 Alpha  occ. eigenvalues --   -1.35968  -1.30236  -0.71823  -0.68552  -0.55316
 Alpha  occ. eigenvalues --   -0.50487  -0.44939  -0.44379
 Alpha virt. eigenvalues --    0.19939   0.27737   0.30873   0.33854   0.79508
 Alpha virt. eigenvalues --    0.84827   0.89899   0.96311   0.99124   1.16482
 Alpha virt. eigenvalues --    1.19657   1.25041   1.26743   1.32808   2.58244

 Mulliken charges:
               1
     1  O   -0.772992
     2  H    0.350635
     3  H    0.398507
     4  O   -0.658297
     5  H    0.324565
     6  H    0.357582
 Sum of Mulliken charges =   0.00000

 Dipole moment (field-independent basis, Debye):
    X=             -1.9239    Y=             -1.4206    Z=              0.0000  Tot=              2.3915
 Quadrupole moment (field-independent basis, Debye-Ang):
   XX=             -9.6921   YY=             -5.1479   ZZ=            -14.9874
   XY=             -1.7300   XZ=              0.0000   YZ=              0.0000

 \MP4DQ=-33.8348768\MP4SDQ=-33.8372528\CCSD=-33.8381604\CCSD(T)=-33.841
 Normal termination of Gaussian 16 at Sun Dec 10 06:31:09 2023.
