 Gaussian 16, Revision A.03,
 Gaussian 16:  ES64L-G16RevA.03 25-Dec-2016

 ------------------
 #p CCSD(T)/CEP-31G
 ------------------

 ------------
 H2O_H2O_1421
 ------------
 Symbolic Z-matrix:
 Charge =  0 Multiplicity = 1

                         Standard orientation:
 ---------------------------------------------------------------------
 Center     Atomic      Atomic             Coordinates (Angstroms)
 Number     Number       Type             X           Y           Z
 ---------------------------------------------------------------------
      1          8           0        0.056159   -1.498424    0.000000
      2          1           0       -0.745191   -2.067057    0.000000
      3          1           0        0.853943   -2.072050    0.000000
      4          8           0        0.056159    1.590016    0.000000
      5          1           0       -0.345211    2.486904    0.000000
      6          1           0       -0.662085    0.919469    0.000000
 ---------------------------------------------------------------------

 SCF Done:  E(RHF) =  -33.6523696957     A.U. after   11 cycles
 E2 =    -0.2291314261D+00 EUMP2 =    -0.33881501121774D+02
 CCSD(T)
 CCSD(T)= -0.33898557669D+02

 The electronic state is 1-A'.
 Alpha  occ. eigenvalues --   -1.35893  -1.32729  -0.71542  -0.68349  -0.55642
 Alpha  occ. eigenvalues --   -0.52454  -0.50479  -0.47317
 Alpha virt. eigenvalues --    0.19233   0.24490   0.30117   0.33891   0.76508
 Alpha virt. eigenvalues --    0.78481   0.84966   0.86591   0.89252   1.09377
 Alpha virt. eigenvalues --    1.16920   1.20526   1.21941   1.28502   2.54901

 Mulliken charges:
               1
     1  O   -0.747267
     2  H    0.363697
     3  H    0.384833
     4  O   -0.737144
     5  H    0.347688
     6  H    0.388192
 Sum of Mulliken charges =   0.00000

 Dipole moment (field-independent basis, Debye):
    X=             -2.5107    Y=             -2.3092    Z=              0.0000  Tot=              3.4112
 Quadrupole moment (field-independent basis, Debye-Ang):
   XX=            -10.0585   YY=             -0.8980   ZZ=            -14.9953
   XY=             -3.9994   XZ=              0.0000   YZ=              0.0000

 3\MP4DQ=-33.8927885\MP4SDQ=-33.8948875\CCSD=-33.8959198\CCSD(T)=-33.89
 Normal termination of Gaussian 16 at Sun Dec 10 06:51:19 2023.
