 Gaussian 16, Revision A.03,
 Gaussian 16:  ES64L-G16RevA.03 25-Dec-2016

 ------------------
 #p CCSD(T)/CEP-31G
 ------------------

 ------------
 H2O_H2O_1414
 ------------
 Symbolic Z-matrix:
 Charge =  0 Multiplicity = 1

                         Standard orientation:
 ---------------------------------------------------------------------
 Center     Atomic      Atomic             Coordinates (Angstroms)
 Number     Number       Type             X           Y           Z
 ---------------------------------------------------------------------
      1          8           0        0.045367   -1.524021    0.000000
      2          1           0       -0.755642   -2.093134    0.000000
      3          1           0        0.843495   -2.097168    0.000000
      4          8           0        0.045367    1.568482    0.000000
      5          1           0        0.081483    2.550419    0.000000
      6          1           0       -0.895211    1.284194    0.000000
 ---------------------------------------------------------------------

 SCF Done:  E(RHF) =  -33.6466451163     A.U. after   11 cycles
 E2 =    -0.2291907553D+00 EUMP2 =    -0.33875835871540D+02
 CCSD(T)
 CCSD(T)= -0.33893058855D+02

 The electronic state is 1-A'.
 Alpha  occ. eigenvalues --   -1.34530  -1.33083  -0.70163  -0.68650  -0.54310
 Alpha  occ. eigenvalues --   -0.52209  -0.49059  -0.47581
 Alpha virt. eigenvalues --    0.20189   0.23459   0.31217   0.32556   0.76135
 Alpha virt. eigenvalues --    0.79438   0.84677   0.85152   0.90698   1.11683
 Alpha virt. eigenvalues --    1.18121   1.21407   1.22738   1.24984   2.58944

 Mulliken charges:
               1
     1  O   -0.727383
     2  H    0.355644
     3  H    0.371733
     4  O   -0.717563
     5  H    0.348422
     6  H    0.369148
 Sum of Mulliken charges =  -0.00000

 Dipole moment (field-independent basis, Debye):
    X=             -2.0260    Y=             -1.1092    Z=              0.0000  Tot=              2.3097
 Quadrupole moment (field-independent basis, Debye-Ang):
   XX=             -9.4025   YY=              1.8949   ZZ=            -14.9876
   XY=             -2.5814   XZ=              0.0000   YZ=              0.0000

 Q=-33.8872826\MP4SDQ=-33.8893793\CCSD=-33.8904331\CCSD(T)=-33.8930589\
 Normal termination of Gaussian 16 at Sun Dec 10 06:51:11 2023.
