 Gaussian 16, Revision A.03,
 Gaussian 16:  ES64L-G16RevA.03 25-Dec-2016

 ------------------
 #p CCSD(T)/CEP-31G
 ------------------

 ------------
 H2O_H2O_2693
 ------------
 Symbolic Z-matrix:
 Charge =  0 Multiplicity = 1

                         Standard orientation:
 ---------------------------------------------------------------------
 Center     Atomic      Atomic             Coordinates (Angstroms)
 Number     Number       Type             X           Y           Z
 ---------------------------------------------------------------------
      1          8           0        0.052838   -2.188082    0.000000
      2          1           0       -0.747899   -2.757579    0.000000
      3          1           0        0.851240   -2.760846    0.000000
      4          8           0        0.052838    2.258380    0.000000
      5          1           0       -0.166880    3.216102    0.000000
      6          1           0       -0.781863    1.739940    0.000000
 ---------------------------------------------------------------------

 SCF Done:  E(RHF) =  -33.6512159658     A.U. after   11 cycles
 E2 =    -0.2284889846D+00 EUMP2 =    -0.33879704950392D+02
 CCSD(T)
 CCSD(T)= -0.33896722843D+02

 The electronic state is 1-A'.
 Alpha  occ. eigenvalues --   -1.35368  -1.34262  -0.71000  -0.69854  -0.55071
 Alpha  occ. eigenvalues --   -0.53948  -0.49930  -0.48828
 Alpha virt. eigenvalues --    0.20204   0.21645   0.30585   0.31727   0.80603
 Alpha virt. eigenvalues --    0.81723   0.82193   0.85372   0.86760   0.89259
 Alpha virt. eigenvalues --    1.17509   1.18668   1.21932   1.23219   2.57539

 Mulliken charges:
               1
     1  O   -0.739177
     2  H    0.366112
     3  H    0.373155
     4  O   -0.737485
     5  H    0.362039
     6  H    0.375356
 Sum of Mulliken charges =   0.00000

 Dipole moment (field-independent basis, Debye):
    X=             -2.4227    Y=             -1.6771    Z=              0.0000  Tot=              2.9465
 Quadrupole moment (field-independent basis, Debye-Ang):
   XX=             -9.8456   YY=              5.7296   ZZ=            -14.9888
   XY=             -5.0155   XZ=              0.0000   YZ=              0.0000

 P4DQ=-33.8910702\MP4SDQ=-33.8931028\CCSD=-33.8941553\CCSD(T)=-33.89672
 Normal termination of Gaussian 16 at Sun Dec 10 06:28:20 2023.
