 Gaussian 16, Revision A.03,
 Gaussian 16:  ES64L-G16RevA.03 25-Dec-2016

 ------------------
 #p CCSD(T)/CEP-31G
 ------------------

 ------------
 H2O_H2O_1893
 ------------
 Symbolic Z-matrix:
 Charge =  0 Multiplicity = 1

                         Standard orientation:
 ---------------------------------------------------------------------
 Center     Atomic      Atomic             Coordinates (Angstroms)
 Number     Number       Type             X           Y           Z
 ---------------------------------------------------------------------
      1          8           0        0.052855   -1.762639    0.000000
      2          1           0       -0.748157   -2.331749    0.000000
      3          1           0        0.850980   -2.335790    0.000000
      4          8           0        0.052855    1.832886    0.000000
      5          1           0       -0.166400    2.790713    0.000000
      6          1           0       -0.782097    1.314849    0.000000
 ---------------------------------------------------------------------

 SCF Done:  E(RHF) =  -33.6507823595     A.U. after   11 cycles
 E2 =    -0.2287550027D+00 EUMP2 =    -0.33879537362240D+02
 CCSD(T)
 CCSD(T)= -0.33896592527D+02

 The electronic state is 1-A'.
 Alpha  occ. eigenvalues --   -1.35318  -1.33568  -0.70955  -0.69126  -0.55003
 Alpha  occ. eigenvalues --   -0.53204  -0.49875  -0.48133
 Alpha virt. eigenvalues --    0.19751   0.22836   0.30547   0.32454   0.76680
 Alpha virt. eigenvalues --    0.80063   0.83022   0.85932   0.87203   0.99932
 Alpha virt. eigenvalues --    1.17504   1.19974   1.21931   1.24875   2.56409

 Mulliken charges:
               1
     1  O   -0.737623
     2  H    0.362881
     3  H    0.375470
     4  O   -0.733442
     5  H    0.355035
     6  H    0.377679
 Sum of Mulliken charges =   0.00000

 Dipole moment (field-independent basis, Debye):
    X=             -2.3977    Y=             -1.7235    Z=              0.0000  Tot=              2.9529
 Quadrupole moment (field-independent basis, Debye-Ang):
   XX=             -9.8431   YY=              2.4875   ZZ=            -14.9897
   XY=             -4.0099   XZ=              0.0000   YZ=              0.0000

 7\MP4DQ=-33.8908997\MP4SDQ=-33.892959\CCSD=-33.894002\CCSD(T)=-33.8965
 Normal termination of Gaussian 16 at Sun Dec 10 07:00:03 2023.
