 Gaussian 16, Revision A.03,
 Gaussian 16:  ES64L-G16RevA.03 25-Dec-2016

 ------------------
 #p CCSD(T)/CEP-31G
 ------------------

 ------------
 H2O_H2O_1040
 ------------
 Symbolic Z-matrix:
 Charge =  0 Multiplicity = 1

                         Standard orientation:
 ---------------------------------------------------------------------
 Center     Atomic      Atomic             Coordinates (Angstroms)
 Number     Number       Type             X           Y           Z
 ---------------------------------------------------------------------
      1          8           0        0.047565   -1.321314    0.000000
      2          1           0       -0.753736   -1.890016    0.000000
      3          1           0        0.845398   -1.894870    0.000000
      4          8           0        0.047565    1.371791    0.000000
      5          1           0        0.019886    2.354002    0.000000
      6          1           0       -0.872583    1.027068    0.000000
 ---------------------------------------------------------------------

 SCF Done:  E(RHF) =  -33.6435906629     A.U. after   11 cycles
 E2 =    -0.2297622530D+00 EUMP2 =    -0.33873352915972D+02
 CCSD(T)
 CCSD(T)= -0.33890656611D+02

 The electronic state is 1-A'.
 Alpha  occ. eigenvalues --   -1.34494  -1.32394  -0.70133  -0.68066  -0.54554
 Alpha  occ. eigenvalues --   -0.51033  -0.49062  -0.46829
 Alpha virt. eigenvalues --    0.20094   0.24645   0.31272   0.33033   0.78470
 Alpha virt. eigenvalues --    0.81567   0.85319   0.87320   0.93043   1.16388
 Alpha virt. eigenvalues --    1.18464   1.22314   1.22813   1.28461   2.61024

 Mulliken charges:
               1
     1  O   -0.732626
     2  H    0.352935
     3  H    0.376624
     4  O   -0.707004
     5  H    0.342395
     6  H    0.367676
 Sum of Mulliken charges =  -0.00000

 Dipole moment (field-independent basis, Debye):
    X=             -2.0733    Y=             -1.2652    Z=              0.0000  Tot=              2.4288
 Quadrupole moment (field-independent basis, Debye-Ang):
   XX=             -9.5390   YY=             -0.3583   ZZ=            -14.9910
   XY=             -2.3800   XZ=              0.0000   YZ=              0.0000

 4\MP4DQ=-33.8847845\MP4SDQ=-33.8869198\CCSD=-33.8879787\CCSD(T)=-33.89
 Normal termination of Gaussian 16 at Sun Dec 10 06:44:12 2023.
