 Gaussian 16, Revision A.03,
 Gaussian 16:  ES64L-G16RevA.03 25-Dec-2016

 ------------------
 #p CCSD(T)/CEP-31G
 ------------------

 -----------
 H2O_H2O_163
 -----------
 Symbolic Z-matrix:
 Charge =  0 Multiplicity = 1

                         Standard orientation:
 ---------------------------------------------------------------------
 Center     Atomic      Atomic             Coordinates (Angstroms)
 Number     Number       Type             X           Y           Z
 ---------------------------------------------------------------------
      1          8           0        0.043021   -0.862432    0.000000
      2          1           0       -0.758937   -1.430206    0.000000
      3          1           0        0.840191   -1.436911    0.000000
      4          8           0        0.043021    0.900983    0.000000
      5          1           0        0.144913    1.878287    0.000000
      6          1           0       -0.914506    0.680419    0.000000
 ---------------------------------------------------------------------

 SCF Done:  E(RHF) =  -33.5411842030     A.U. after   11 cycles
 E2 =    -0.2351389630D+00 EUMP2 =    -0.33776323166073D+02
 CCSD(T)
 CCSD(T)= -0.33793314086D+02

 The electronic state is 1-A'.
 Alpha  occ. eigenvalues --   -1.36893  -1.29431  -0.72373  -0.68599  -0.58018
 Alpha  occ. eigenvalues --   -0.51297  -0.43384  -0.39133
 Alpha virt. eigenvalues --    0.20252   0.28305   0.31185   0.33492   0.80948
 Alpha virt. eigenvalues --    0.84818   0.89513   0.94897   0.97871   1.19599
 Alpha virt. eigenvalues --    1.20395   1.25911   1.27160   1.35850   2.55742

 Mulliken charges:
               1
     1  O   -0.756735
     2  H    0.341308
     3  H    0.392431
     4  O   -0.650216
     5  H    0.326178
     6  H    0.347034
 Sum of Mulliken charges =  -0.00000

 Dipole moment (field-independent basis, Debye):
    X=             -1.5858    Y=             -0.9798    Z=              0.0000  Tot=              1.8641
 Quadrupole moment (field-independent basis, Debye-Ang):
   XX=             -9.4003   YY=             -6.5015   ZZ=            -14.9739
   XY=             -1.1783   XZ=              0.0000   YZ=              0.0000

 P4DQ=-33.7867212\MP4SDQ=-33.7892917\CCSD=-33.7900558\CCSD(T)=-33.79331
 Normal termination of Gaussian 16 at Sun Dec 10 06:27:47 2023.
