 Gaussian 16, Revision A.03,
 Gaussian 16:  ES64L-G16RevA.03 25-Dec-2016

 ------------------
 #p CCSD(T)/CEP-31G
 ------------------

 ------------
 H2O_H2O_1963
 ------------
 Symbolic Z-matrix:
 Charge =  0 Multiplicity = 1

                         Standard orientation:
 ---------------------------------------------------------------------
 Center     Atomic      Atomic             Coordinates (Angstroms)
 Number     Number       Type             X           Y           Z
 ---------------------------------------------------------------------
      1          8           0        0.042979   -1.819639    0.000000
      2          1           0       -0.757738   -2.389163    0.000000
      3          1           0        0.841400   -2.392377    0.000000
      4          8           0        0.042979    1.858378    0.000000
      5          1           0        0.142738    2.835903    0.000000
      6          1           0       -0.914064    1.635725    0.000000
 ---------------------------------------------------------------------

 SCF Done:  E(RHF) =  -33.6485426502     A.U. after   11 cycles
 E2 =    -0.2287695897D+00 EUMP2 =    -0.33877312239851D+02
 CCSD(T)
 CCSD(T)= -0.33894422254D+02

 The electronic state is 1-A'.
 Alpha  occ. eigenvalues --   -1.34683  -1.33779  -0.70311  -0.69359  -0.54299
 Alpha  occ. eigenvalues --   -0.53238  -0.49211  -0.48309
 Alpha virt. eigenvalues --    0.20411   0.22292   0.31116   0.32026   0.76895
 Alpha virt. eigenvalues --    0.80673   0.82899   0.85768   0.88396   0.99064
 Alpha virt. eigenvalues --    1.18076   1.19270   1.22522   1.23628   2.57693

 Mulliken charges:
               1
     1  O   -0.730137
     2  H    0.360348
     3  H    0.370084
     4  O   -0.726561
     5  H    0.356145
     6  H    0.370121
 Sum of Mulliken charges =  -0.00000

 Dipole moment (field-independent basis, Debye):
    X=             -1.9523    Y=             -0.9460    Z=              0.0000  Tot=              2.1694
 Quadrupole moment (field-independent basis, Debye-Ang):
   XX=             -9.2553   YY=              4.9772   ZZ=            -14.9864
   XY=             -2.9173   XZ=              0.0000   YZ=              0.0000

 P4DQ=-33.8887259\MP4SDQ=-33.8907818\CCSD=-33.8918327\CCSD(T)=-33.89442
 Normal termination of Gaussian 16 at Sun Dec 10 07:02:04 2023.
