 Gaussian 16, Revision A.03,
 Gaussian 16:  ES64L-G16RevA.03 25-Dec-2016

 ------------------
 #p CCSD(T)/CEP-31G
 ------------------

 ------------
 H2O_H2O_4254
 ------------
 Symbolic Z-matrix:
 Charge =  0 Multiplicity = 1

                         Standard orientation:
 ---------------------------------------------------------------------
 Center     Atomic      Atomic             Coordinates (Angstroms)
 Number     Number       Type             X           Y           Z
 ---------------------------------------------------------------------
      1          8           0        0.014783   -3.061796    0.000000
      2          1           0       -0.785025   -3.632596    0.000000
      3          1           0        0.814117   -3.633260    0.000000
      4          8           0        0.014783    3.065676    0.000000
      5          1           0        0.639605    3.824032    0.000000
      6          1           0       -0.905221    3.410785    0.000000
 ---------------------------------------------------------------------

 SCF Done:  E(RHF) =  -33.6505359647     A.U. after   11 cycles
 E2 =    -0.2284461299D+00 EUMP2 =    -0.33878982094633D+02
 CCSD(T)
 CCSD(T)= -0.33896018471D+02

 The electronic state is 1-A'.
 Alpha  occ. eigenvalues --   -1.34980  -1.34949  -0.70608  -0.70576  -0.54645
 Alpha  occ. eigenvalues --   -0.54614  -0.49533  -0.49502
 Alpha virt. eigenvalues --    0.20722   0.20753   0.30953   0.30983   0.81021
 Alpha virt. eigenvalues --    0.81052   0.84161   0.84207   0.87231   0.87269
 Alpha virt. eigenvalues --    1.17868   1.17899   1.22336   1.22367   2.57916

 Mulliken charges:
               1
     1  O   -0.736668
     2  H    0.367912
     3  H    0.368756
     4  O   -0.736616
     5  H    0.367717
     6  H    0.368899
 Sum of Mulliken charges =  -0.00000

 Dipole moment (field-independent basis, Debye):
    X=             -0.6821    Y=             -0.0908    Z=              0.0000  Tot=              0.6882
 Quadrupole moment (field-independent basis, Debye-Ang):
   XX=             -8.1817   YY=             20.0678   ZZ=            -14.9867
   XY=             -1.6509   XZ=              0.0000   YZ=              0.0000

 P4DQ=-33.8903645\MP4SDQ=-33.8923956\CCSD=-33.8934533\CCSD(T)=-33.89601
 Normal termination of Gaussian 16 at Sun Dec 10 06:56:39 2023.
