 Gaussian 16, Revision A.03,
 Gaussian 16:  ES64L-G16RevA.03 25-Dec-2016

 ------------------
 #p CCSD(T)/CEP-31G
 ------------------

 ------------
 H2O_H2O_1284
 ------------
 Symbolic Z-matrix:
 Charge =  0 Multiplicity = 1

                         Standard orientation:
 ---------------------------------------------------------------------
 Center     Atomic      Atomic             Coordinates (Angstroms)
 Number     Number       Type             X           Y           Z
 ---------------------------------------------------------------------
      1          8           0        0.031748   -1.471298    0.000000
      2          1           0       -0.768875   -2.040954    0.000000
      3          1           0        0.830264   -2.043904    0.000000
      4          8           0        0.031748    1.490431    0.000000
      5          1           0        0.380958    2.408885    0.000000
      6          1           0       -0.950317    1.522903    0.000000
 ---------------------------------------------------------------------

 SCF Done:  E(RHF) =  -33.6424069938     A.U. after   11 cycles
 E2 =    -0.2293112326D+00 EUMP2 =    -0.33871718226329D+02
 CCSD(T)
 CCSD(T)= -0.33889052300D+02

 The electronic state is 1-A'.
 Alpha  occ. eigenvalues --   -1.33699  -1.33020  -0.69317  -0.68611  -0.53953
 Alpha  occ. eigenvalues --   -0.51234  -0.48240  -0.47392
 Alpha virt. eigenvalues --    0.20829   0.23301   0.31901   0.32443   0.77948
 Alpha virt. eigenvalues --    0.79594   0.82985   0.86062   0.94603   1.12563
 Alpha virt. eigenvalues --    1.18849   1.21080   1.23595   1.24143   2.59381

 Mulliken charges:
               1
     1  O   -0.716105
     2  H    0.351418
     3  H    0.364102
     4  O   -0.708745
     5  H    0.348790
     6  H    0.360540
 Sum of Mulliken charges =  -0.00000

 Dipole moment (field-independent basis, Debye):
    X=             -1.4111    Y=             -0.4770    Z=              0.0000  Tot=              1.4895
 Quadrupole moment (field-independent basis, Debye-Ang):
   XX=             -8.7849   YY=              2.3720   ZZ=            -14.9859
   XY=             -1.4822   XZ=              0.0000   YZ=              0.0000

 MP4DQ=-33.883241\MP4SDQ=-33.8853408\CCSD=-33.8864124\CCSD(T)=-33.88905
 Normal termination of Gaussian 16 at Sun Dec 10 06:48:45 2023.
