 Gaussian 16, Revision A.03,
 Gaussian 16:  ES64L-G16RevA.03 25-Dec-2016

 ------------------
 #p CCSD(T)/CEP-31G
 ------------------

 ------------
 H2O_H2O_1508
 ------------
 Symbolic Z-matrix:
 Charge =  0 Multiplicity = 1

                         Standard orientation:
 ---------------------------------------------------------------------
 Center     Atomic      Atomic             Coordinates (Angstroms)
 Number     Number       Type             X           Y           Z
 ---------------------------------------------------------------------
      1          8           0        0.028568   -1.593089    0.000000
      2          1           0       -0.771879   -2.162992    0.000000
      3          1           0        0.827261   -2.165448    0.000000
      4          8           0        0.028568    1.608304    0.000000
      5          1           0        0.436825    2.502079    0.000000
      6          1           0       -0.949300    1.704636    0.000000
 ---------------------------------------------------------------------

 SCF Done:  E(RHF) =  -33.6441275764     A.U. after   11 cycles
 E2 =    -0.2290842254D+00 EUMP2 =    -0.33873211801839D+02
 CCSD(T)
 CCSD(T)= -0.33890481971D+02

 The electronic state is 1-A'.
 Alpha  occ. eigenvalues --   -1.33827  -1.33361  -0.69448  -0.68955  -0.53803
 Alpha  occ. eigenvalues --   -0.51977  -0.48347  -0.47784
 Alpha virt. eigenvalues --    0.20873   0.22785   0.31811   0.32219   0.76186
 Alpha virt. eigenvalues --    0.80166   0.84027   0.84858   0.92877   1.07901
 Alpha virt. eigenvalues --    1.18770   1.19737   1.23424   1.23807   2.59428

 Mulliken charges:
               1
     1  O   -0.717630
     2  H    0.354116
     3  H    0.363489
     4  O   -0.713865
     5  H    0.351874
     6  H    0.362017
 Sum of Mulliken charges =   0.00000

 Dipole moment (field-independent basis, Debye):
    X=             -1.2840    Y=             -0.3789    Z=              0.0000  Tot=              1.3387
 Quadrupole moment (field-independent basis, Debye-Ang):
   XX=             -8.6495   YY=              3.8613   ZZ=            -14.9845
   XY=             -1.4458   XZ=              0.0000   YZ=              0.0000

 \MP4DQ=-33.884713\MP4SDQ=-33.8867977\CCSD=-33.8878614\CCSD(T)=-33.8904
 Normal termination of Gaussian 16 at Sun Dec 10 06:52:55 2023.
