 Gaussian 16, Revision A.03,
 Gaussian 16:  ES64L-G16RevA.03 25-Dec-2016

 ------------------
 #p CCSD(T)/CEP-31G
 ------------------

 -----------
 H2O_H2O_453
 -----------
 Symbolic Z-matrix:
 Charge =  0 Multiplicity = 1

                         Standard orientation:
 ---------------------------------------------------------------------
 Center     Atomic      Atomic             Coordinates (Angstroms)
 Number     Number       Type             X           Y           Z
 ---------------------------------------------------------------------
      1          8           0        0.011143   -1.041744    0.000000
      2          1           0       -0.788953   -1.612141    0.000000
      3          1           0        0.810189   -1.613611    0.000000
      4          8           0        0.011143    1.043919    0.000000
      5          1           0        0.684587    1.759446    0.000000
      6          1           0       -0.884115    1.448911    0.000000
 ---------------------------------------------------------------------

 SCF Done:  E(RHF) =  -33.6025303831     A.U. after   11 cycles
 E2 =    -0.2318262161D+00 EUMP2 =    -0.33834356599198D+02
 CCSD(T)
 CCSD(T)= -0.33851582602D+02

 The electronic state is 1-A'.
 Alpha  occ. eigenvalues --   -1.33003  -1.30710  -0.68227  -0.66608  -0.57913
 Alpha  occ. eigenvalues --   -0.47923  -0.44387  -0.42495
 Alpha virt. eigenvalues --    0.21523   0.25737   0.32834   0.33358   0.78526
 Alpha virt. eigenvalues --    0.80514   0.90205   0.96960   1.02257   1.19065
 Alpha virt. eigenvalues --    1.20284   1.23000   1.24468   1.27313   2.49324

 Mulliken charges:
               1
     1  O   -0.700930
     2  H    0.344010
     3  H    0.355495
     4  O   -0.695607
     5  H    0.350587
     6  H    0.346446
 Sum of Mulliken charges =  -0.00000

 Dipole moment (field-independent basis, Debye):
    X=             -0.4397    Y=             -0.0509    Z=              0.0000  Tot=              0.4427
 Quadrupole moment (field-independent basis, Debye-Ang):
   XX=             -8.3941   YY=             -3.1188   ZZ=            -15.0205
   XY=             -0.2609   XZ=              0.0000   YZ=              0.0000

 MP4DQ=-33.845433\MP4SDQ=-33.8476535\CCSD=-33.8486744\CCSD(T)=-33.85158
 Normal termination of Gaussian 16 at Sun Dec 10 06:33:14 2023.
