 Gaussian 16, Revision A.03,
 Gaussian 16:  ES64L-G16RevA.03 25-Dec-2016

 ------------------
 #p CCSD(T)/CEP-31G
 ------------------

 ------------
 H2O_H2O_4148
 ------------
 Symbolic Z-matrix:
 Charge =  0 Multiplicity = 1

                         Standard orientation:
 ---------------------------------------------------------------------
 Center     Atomic      Atomic             Coordinates (Angstroms)
 Number     Number       Type             X           Y           Z
 ---------------------------------------------------------------------
      1          8           0        0.057078   -2.939549    0.000000
      2          1           0       -0.743428   -3.509369    0.000000
      3          1           0        0.855712   -3.511991    0.000000
      4          8           0        0.057078    3.046117    0.000000
      5          1           0       -0.459167    3.882178    0.000000
      6          1           0       -0.566371    2.286632    0.000000
 ---------------------------------------------------------------------

 SCF Done:  E(RHF) =  -33.6520931191     A.U. after   11 cycles
 E2 =    -0.2283725753D+00 EUMP2 =    -0.33880465694347D+02
 CCSD(T)
 CCSD(T)= -0.33897456843D+02

 The electronic state is 1-A'.
 Alpha  occ. eigenvalues --   -1.35718  -1.34836  -0.71352  -0.70454  -0.55470
 Alpha  occ. eigenvalues --   -0.54574  -0.50294  -0.49412
 Alpha virt. eigenvalues --    0.20069   0.20980   0.30312   0.31218   0.80258
 Alpha virt. eigenvalues --    0.81125   0.83247   0.84151   0.86376   0.87323
 Alpha virt. eigenvalues --    1.17197   1.18075   1.21652   1.22551   2.57205

 Mulliken charges:
               1
     1  O   -0.742222
     2  H    0.369540
     3  H    0.372682
     4  O   -0.742029
     5  H    0.367142
     6  H    0.374886
 Sum of Mulliken charges =  -0.00000

 Dipole moment (field-independent basis, Debye):
    X=             -2.6322    Y=             -2.4979    Z=              0.0000  Tot=              3.6288
 Quadrupole moment (field-independent basis, Debye-Ang):
   XX=            -10.1555   YY=              6.5965   ZZ=            -14.9894
   XY=             -8.0830   XZ=              0.0000   YZ=              0.0000

 \MP4DQ=-33.891815\MP4SDQ=-33.8938419\CCSD=-33.8948964\CCSD(T)=-33.8974
 Normal termination of Gaussian 16 at Sun Dec 10 06:54:48 2023.
