 Gaussian 16, Revision A.03,
 Gaussian 16:  ES64L-G16RevA.03 25-Dec-2016

 ------------------
 #p CCSD(T)/CEP-31G
 ------------------

 ----------
 H2O_H2O_22
 ----------
 Symbolic Z-matrix:
 Charge =  0 Multiplicity = 1

                         Standard orientation:
 ---------------------------------------------------------------------
 Center     Atomic      Atomic             Coordinates (Angstroms)
 Number     Number       Type             X           Y           Z
 ---------------------------------------------------------------------
      1          8           0        0.056926   -0.750027    0.000000
      2          1           0       -0.746113   -1.316272    0.000000
      3          1           0        0.853000   -1.326024    0.000000
      4          8           0        0.056926    0.848651    0.000000
      5          1           0       -0.399657    1.718731    0.000000
      6          1           0       -0.618052    0.134571    0.000000
 ---------------------------------------------------------------------

 SCF Done:  E(RHF) =  -33.3837924927     A.U. after   12 cycles
 E2 =    -0.2378743482D+00 EUMP2 =    -0.33621666840881D+02
 CCSD(T)
 CCSD(T)= -0.33637037972D+02

 The electronic state is 1-A'.
 Alpha  occ. eigenvalues --   -1.48080  -1.27190  -0.83350  -0.75075  -0.58066
 Alpha  occ. eigenvalues --   -0.49249  -0.41720  -0.38046
 Alpha virt. eigenvalues --    0.18518   0.26340   0.32032   0.36742   0.78196
 Alpha virt. eigenvalues --    0.82508   0.89948   0.92297   0.97078   1.13371
 Alpha virt. eigenvalues --    1.17692   1.29564   1.33037   1.44168   2.88267

 Mulliken charges:
               1
     1  O   -0.734053
     2  H    0.347438
     3  H    0.459151
     4  O   -0.674999
     5  H    0.252467
     6  H    0.349996
 Sum of Mulliken charges =  -0.00000

 Dipole moment (field-independent basis, Debye):
    X=             -1.9192    Y=             -3.0287    Z=              0.0000  Tot=              3.5855
 Quadrupole moment (field-independent basis, Debye-Ang):
   XX=            -10.1074   YY=             -9.6973   ZZ=            -14.8261
   XY=             -1.9690   XZ=              0.0000   YZ=              0.0000

 4DQ=-33.6296942\MP4SDQ=-33.6327175\CCSD=-33.6330426\CCSD(T)=-33.637038
 Normal termination of Gaussian 16 at Sun Dec 10 06:25:08 2023.
