 Gaussian 16, Revision A.03,
 Gaussian 16:  ES64L-G16RevA.03 25-Dec-2016

 ------------------
 #p CCSD(T)/CEP-31G
 ------------------

 ------------
 H2O_H2O_2751
 ------------
 Symbolic Z-matrix:
 Charge =  0 Multiplicity = 1

                         Standard orientation:
 ---------------------------------------------------------------------
 Center     Atomic      Atomic             Coordinates (Angstroms)
 Number     Number       Type             X           Y           Z
 ---------------------------------------------------------------------
      1          8           0        0.003735   -2.266017    0.000000
      2          1           0       -0.795917   -2.837035    0.000000
      3          1           0        0.803225   -2.837262    0.000000
      4          8           0        0.003735    2.266260    0.000000
      5          1           0        0.764330    2.888356    0.000000
      6          1           0       -0.831404    2.783994    0.000000
 ---------------------------------------------------------------------

 SCF Done:  E(RHF) =  -33.6485606255     A.U. after   10 cycles
 E2 =    -0.2285711729D+00 EUMP2 =    -0.33877131798435D+02
 CCSD(T)
 CCSD(T)= -0.33894225439D+02

 The electronic state is 1-A'.
 Alpha  occ. eigenvalues --   -1.34442  -1.34437  -0.70064  -0.70059  -0.54060
 Alpha  occ. eigenvalues --   -0.53909  -0.48971  -0.48955
 Alpha virt. eigenvalues --    0.21033   0.21279   0.31353   0.31414   0.81457
 Alpha virt. eigenvalues --    0.81715   0.82893   0.87082   0.87625   0.88204
 Alpha virt. eigenvalues --    1.18326   1.18329   1.22775   1.22856   2.58361

 Mulliken charges:
               1
     1  O   -0.729889
     2  H    0.364700
     3  H    0.365189
     4  O   -0.729876
     5  H    0.364633
     6  H    0.365242
 Sum of Mulliken charges =   0.00000

 Dipole moment (field-independent basis, Debye):
    X=             -0.1714    Y=             -0.0058    Z=              0.0000  Tot=              0.1715
 Quadrupole moment (field-independent basis, Debye-Ang):
   XX=             -8.0795   YY=             11.8917   ZZ=            -14.9849
   XY=             -0.2790   XZ=              0.0000   YZ=              0.0000

 MP4DQ=-33.8885541\MP4SDQ=-33.8905916\CCSD=-33.8916516\CCSD(T)=-33.8942
 Normal termination of Gaussian 16 at Sun Dec 10 06:29:25 2023.
