 Gaussian 16, Revision A.03,
 Gaussian 16:  ES64L-G16RevA.03 25-Dec-2016

 ------------------
 #p CCSD(T)/CEP-31G
 ------------------

 ------------
 H2O_H2O_3922
 ------------
 Symbolic Z-matrix:
 Charge =  0 Multiplicity = 1

                         Standard orientation:
 ---------------------------------------------------------------------
 Center     Atomic      Atomic             Coordinates (Angstroms)
 Number     Number       Type             X           Y           Z
 ---------------------------------------------------------------------
      1          8           0        0.056709   -2.823928    0.000000
      2          1           0       -0.743830   -3.393703    0.000000
      3          1           0        0.855310   -3.396415    0.000000
      4          8           0        0.056709    2.923052    0.000000
      5          1           0       -0.403700    3.791114    0.000000
      6          1           0       -0.615120    2.206008    0.000000
 ---------------------------------------------------------------------

 SCF Done:  E(RHF) =  -33.6520087773     A.U. after   11 cycles
 E2 =    -0.2283815169D+00 EUMP2 =    -0.33880390294201D+02
 CCSD(T)
 CCSD(T)= -0.33897383881D+02

 The electronic state is 1-A'.
 Alpha  occ. eigenvalues --   -1.35672  -1.34775  -0.71306  -0.70390  -0.55420
 Alpha  occ. eigenvalues --   -0.54508  -0.50247  -0.49349
 Alpha virt. eigenvalues --    0.20108   0.21039   0.30352   0.31271   0.80306
 Alpha virt. eigenvalues --    0.81187   0.83298   0.84223   0.86428   0.87405
 Alpha virt. eigenvalues --    1.17239   1.18131   1.21695   1.22610   2.57248

 Mulliken charges:
               1
     1  O   -0.741926
     2  H    0.369189
     3  H    0.372739
     4  O   -0.741616
     5  H    0.366632
     6  H    0.374983
 Sum of Mulliken charges =   0.00000

 Dipole moment (field-independent basis, Debye):
    X=             -2.6141    Y=             -2.3272    Z=              0.0000  Tot=              3.4999
 Quadrupole moment (field-independent basis, Debye-Ang):
   XX=            -10.1268   YY=              6.9084   ZZ=            -14.9893
   XY=             -7.5844   XZ=              0.0000   YZ=              0.0000

 MP4DQ=-33.8917413\MP4SDQ=-33.8937685\CCSD=-33.894823\CCSD(T)=-33.89738
 Normal termination of Gaussian 16 at Sun Dec 10 06:50:40 2023.
