 Gaussian 16, Revision A.03,
 Gaussian 16:  ES64L-G16RevA.03 25-Dec-2016

 ------------------
 #p CCSD(T)/CEP-31G
 ------------------

 ------------
 H2O_H2O_3236
 ------------
 Symbolic Z-matrix:
 Charge =  0 Multiplicity = 1

                         Standard orientation:
 ---------------------------------------------------------------------
 Center     Atomic      Atomic             Coordinates (Angstroms)
 Number     Number       Type             X           Y           Z
 ---------------------------------------------------------------------
      1          8           0        0.037676   -2.503428    0.000000
      2          1           0       -0.762630   -3.073530    0.000000
      3          1           0        0.836511   -3.075589    0.000000
      4          8           0        0.037676    2.531678    0.000000
      5          1           0        0.263483    3.487982    0.000000
      6          1           0       -0.940173    2.435143    0.000000
 ---------------------------------------------------------------------

 SCF Done:  E(RHF) =  -33.6501873754     A.U. after   11 cycles
 E2 =    -0.2284873743D+00 EUMP2 =    -0.33878674749628D+02
 CCSD(T)
 CCSD(T)= -0.33895721486D+02

 The electronic state is 1-A'.
 Alpha  occ. eigenvalues --   -1.34954  -1.34614  -0.70581  -0.70229  -0.54598
 Alpha  occ. eigenvalues --   -0.54257  -0.49501  -0.49163
 Alpha virt. eigenvalues --    0.20718   0.21085   0.30962   0.31290   0.81049
 Alpha virt. eigenvalues --    0.81386   0.83863   0.84876   0.87277   0.87774
 Alpha virt. eigenvalues --    1.17881   1.18216   1.22352   1.22689   2.57935

 Mulliken charges:
               1
     1  O   -0.735539
     2  H    0.365939
     3  H    0.369602
     4  O   -0.734809
     5  H    0.364674
     6  H    0.370133
 Sum of Mulliken charges =  -0.00000

 Dipole moment (field-independent basis, Debye):
    X=             -1.7330    Y=             -0.6671    Z=              0.0000  Tot=              1.8569
 Quadrupole moment (field-independent basis, Debye-Ang):
   XX=             -8.9657   YY=             12.1313   ZZ=            -14.9867
   XY=             -3.5701   XZ=              0.0000   YZ=              0.0000

 \MP4DQ=-33.8900643\MP4SDQ=-33.8920967\CCSD=-33.8931541\CCSD(T)=-33.895
 Normal termination of Gaussian 16 at Sun Dec 10 06:38:07 2023.
