 Gaussian 16, Revision A.03,
 Gaussian 16:  ES64L-G16RevA.03 25-Dec-2016

 ------------------
 #p CCSD(T)/CEP-31G
 ------------------

 ------------
 H2O_H2O_1080
 ------------
 Symbolic Z-matrix:
 Charge =  0 Multiplicity = 1

                         Standard orientation:
 ---------------------------------------------------------------------
 Center     Atomic      Atomic             Coordinates (Angstroms)
 Number     Number       Type             X           Y           Z
 ---------------------------------------------------------------------
      1          8           0        0.018362   -1.372053    0.000000
      2          1           0       -0.781865   -1.942266    0.000000
      3          1           0        0.817276   -1.944104    0.000000
      4          8           0        0.018362    1.378073    0.000000
      5          1           0        0.592833    2.175249    0.000000
      6          1           0       -0.922033    1.662962    0.000000
 ---------------------------------------------------------------------

 SCF Done:  E(RHF) =  -33.6374917642     A.U. after   11 cycles
 E2 =    -0.2295495256D+00 EUMP2 =    -0.33867041289854D+02
 CCSD(T)
 CCSD(T)= -0.33884455387D+02

 The electronic state is 1-A'.
 Alpha  occ. eigenvalues --   -1.33103  -1.32668  -0.68686  -0.68301  -0.54086
 Alpha  occ. eigenvalues --   -0.49743  -0.47735  -0.46841
 Alpha virt. eigenvalues --    0.21257   0.23579   0.32332   0.32643   0.79485
 Alpha virt. eigenvalues --    0.80807   0.82472   0.87408   0.99854   1.11454
 Alpha virt. eigenvalues --    1.19359   1.21003   1.24202   1.24446   2.58141

 Mulliken charges:
               1
     1  O   -0.706820
     2  H    0.348535
     3  H    0.357628
     4  O   -0.702721
     5  H    0.349237
     6  H    0.354141
 Sum of Mulliken charges =   0.00000

 Dipole moment (field-independent basis, Debye):
    X=             -0.8050    Y=             -0.1486    Z=              0.0000  Tot=              0.8186
 Quadrupole moment (field-independent basis, Debye-Ang):
   XX=             -8.4121   YY=              1.5864   ZZ=            -14.9881
   XY=             -0.7054   XZ=              0.0000   YZ=              0.0000

 \MP4DQ=-33.8785976\MP4SDQ=-33.8806981\CCSD=-33.8817868\CCSD(T)=-33.884
 Normal termination of Gaussian 16 at Sun Dec 10 06:44:57 2023.
