 Gaussian 16, Revision A.03,
 Gaussian 16:  ES64L-G16RevA.03 25-Dec-2016

 ------------------
 #p CCSD(T)/CEP-31G
 ------------------

 ------------
 H2O_H2O_1849
 ------------
 Symbolic Z-matrix:
 Charge =  0 Multiplicity = 1

                         Standard orientation:
 ---------------------------------------------------------------------
 Center     Atomic      Atomic             Coordinates (Angstroms)
 Number     Number       Type             X           Y           Z
 ---------------------------------------------------------------------
      1          8           0        0.057272   -1.712336    0.000000
      2          1           0       -0.743883   -2.281244    0.000000
      3          1           0        0.855253   -2.285688    0.000000
      4          8           0        0.057272    1.826245    0.000000
      5          1           0       -0.511636    2.627401    0.000000
      6          1           0       -0.516080    1.028264    0.000000
 ---------------------------------------------------------------------

 SCF Done:  E(RHF) =  -33.6545192740     A.U. after   11 cycles
 E2 =    -0.2287083110D+00 EUMP2 =    -0.33883227584951D+02
 CCSD(T)
 CCSD(T)= -0.33900193632D+02

 The electronic state is 1-A'.
 Alpha  occ. eigenvalues --   -1.36278  -1.33264  -0.71923  -0.68831  -0.56183
 Alpha  occ. eigenvalues --   -0.53045  -0.50885  -0.47869
 Alpha virt. eigenvalues --    0.18960   0.23640   0.29796   0.33656   0.78650
 Alpha virt. eigenvalues --    0.79169   0.83159   0.85843   0.87112   0.97851
 Alpha virt. eigenvalues --    1.16654   1.20159   1.21252   1.28402   2.53802

 Mulliken charges:
               1
     1  O   -0.750286
     2  H    0.369002
     3  H    0.382876
     4  O   -0.749280
     5  H    0.355324
     6  H    0.392365
 Sum of Mulliken charges =  -0.00000

 Dipole moment (field-independent basis, Debye):
    X=             -2.5993    Y=             -2.8209    Z=              0.0000  Tot=              3.8359
 Quadrupole moment (field-independent basis, Debye-Ang):
   XX=            -10.1449   YY=             -1.1438   ZZ=            -14.9956
   XY=             -5.0603   XZ=              0.0000   YZ=              0.0000

 9\MP4DQ=-33.8944939\MP4SDQ=-33.8965599\CCSD=-33.8975928\CCSD(T)=-33.90
 Normal termination of Gaussian 16 at Sun Dec 10 06:59:14 2023.
