 Gaussian 16, Revision A.03,
 Gaussian 16:  ES64L-G16RevA.03 25-Dec-2016

 ------------------
 #p CCSD(T)/CEP-31G
 ------------------

 ------------
 H2O_H2O_3352
 ------------
 Symbolic Z-matrix:
 Charge =  0 Multiplicity = 1

                         Standard orientation:
 ---------------------------------------------------------------------
 Center     Atomic      Atomic             Coordinates (Angstroms)
 Number     Number       Type             X           Y           Z
 ---------------------------------------------------------------------
      1          8           0        0.007455   -2.584722    0.000000
      2          1           0       -0.792258   -3.155656    0.000000
      3          1           0        0.806884   -3.156053    0.000000
      4          8           0        0.007455    2.585696    0.000000
      5          1           0        0.725804    3.256128    0.000000
      6          1           0       -0.859709    3.047791    0.000000
 ---------------------------------------------------------------------

 SCF Done:  E(RHF) =  -33.6496185987     A.U. after   11 cycles
 E2 =    -0.2285006056D+00 EUMP2 =    -0.33878119204300D+02
 CCSD(T)
 CCSD(T)= -0.33895182028D+02

 The electronic state is 1-A'.
 Alpha  occ. eigenvalues --   -1.34705  -1.34694  -0.70330  -0.70318  -0.54326
 Alpha  occ. eigenvalues --   -0.54294  -0.49244  -0.49233
 Alpha virt. eigenvalues --    0.20924   0.20983   0.31174   0.31189   0.81295
 Alpha virt. eigenvalues --    0.81333   0.84153   0.84976   0.87533   0.87617
 Alpha virt. eigenvalues --    1.18105   1.18116   1.22579   1.22596   2.58169

 Mulliken charges:
               1
     1  O   -0.733497
     2  H    0.366408
     3  H    0.367089
     4  O   -0.733468
     5  H    0.366288
     6  H    0.367180
 Sum of Mulliken charges =  -0.00000

 Dipole moment (field-independent basis, Debye):
    X=             -0.3432    Y=             -0.0230    Z=              0.0000  Tot=              0.3439
 Quadrupole moment (field-independent basis, Debye-Ang):
   XX=             -8.0898   YY=             15.2735   ZZ=            -14.9857
   XY=             -0.6644   XZ=              0.0000   YZ=              0.0000

 P4DQ=-33.8895206\MP4SDQ=-33.8915543\CCSD=-33.8926133\CCSD(T)=-33.89518
 Normal termination of Gaussian 16 at Sun Dec 10 06:40:11 2023.
