 Gaussian 16, Revision A.03,
 Gaussian 16:  ES64L-G16RevA.03 25-Dec-2016

 ------------------
 #p CCSD(T)/CEP-31G
 ------------------

 ------------
 H2O_H2O_3395
 ------------
 Symbolic Z-matrix:
 Charge =  0 Multiplicity = 1

                         Standard orientation:
 ---------------------------------------------------------------------
 Center     Atomic      Atomic             Coordinates (Angstroms)
 Number     Number       Type             X           Y           Z
 ---------------------------------------------------------------------
      1          8           0        0.055244   -2.552677    0.000000
      2          1           0       -0.745370   -3.122344    0.000000
      3          1           0        0.853769   -3.125271    0.000000
      4          8           0        0.055244    2.637137    0.000000
      5          1           0       -0.287798    3.557913    0.000000
      6          1           0       -0.704512    2.014019    0.000000
 ---------------------------------------------------------------------

 SCF Done:  E(RHF) =  -33.6517491666     A.U. after   11 cycles
 E2 =    -0.2284107180D+00 EUMP2 =    -0.33880159884618D+02
 CCSD(T)
 CCSD(T)= -0.33897161163D+02

 The electronic state is 1-A'.
 Alpha  occ. eigenvalues --   -1.35553  -1.34600  -0.71186  -0.70207  -0.55288
 Alpha  occ. eigenvalues --   -0.54318  -0.50124  -0.49171
 Alpha virt. eigenvalues --    0.20195   0.21216   0.30453   0.31423   0.80430
 Alpha virt. eigenvalues --    0.81363   0.83372   0.84481   0.86564   0.87660
 Alpha virt. eigenvalues --    1.17347   1.18297   1.21802   1.22787   2.57355

 Mulliken charges:
               1
     1  O   -0.741028
     2  H    0.368161
     3  H    0.372875
     4  O   -0.740320
     5  H    0.365138
     6  H    0.375173
 Sum of Mulliken charges =  -0.00000

 Dipole moment (field-independent basis, Debye):
    X=             -2.5429    Y=             -1.9927    Z=              0.0000  Tot=              3.2306
 Quadrupole moment (field-independent basis, Debye-Ang):
   XX=            -10.0172   YY=              6.9264   ZZ=            -14.9891
   XY=             -6.4249   XZ=              0.0000   YZ=              0.0000

 5\MP4DQ=-33.8915161\MP4SDQ=-33.8935444\CCSD=-33.8945986\CCSD(T)=-33.89
 Normal termination of Gaussian 16 at Sun Dec 10 06:40:58 2023.
