 Gaussian 16, Revision A.03,
 Gaussian 16:  ES64L-G16RevA.03 25-Dec-2016

 ------------------
 #p CCSD(T)/CEP-31G
 ------------------

 -----------
 H2O_H2O_146
 -----------
 Symbolic Z-matrix:
 Charge =  0 Multiplicity = 1

                         Standard orientation:
 ---------------------------------------------------------------------
 Center     Atomic      Atomic             Coordinates (Angstroms)
 Number     Number       Type             X           Y           Z
 ---------------------------------------------------------------------
      1          8           0        0.056271   -0.820476    0.000000
      2          1           0       -0.746467   -1.387148    0.000000
      3          1           0        0.852650   -1.396051    0.000000
      4          8           0        0.056271    0.911793    0.000000
      5          1           0       -0.342906    1.809659    0.000000
      6          1           0       -0.663611    0.243005    0.000000
 ---------------------------------------------------------------------

 SCF Done:  E(RHF) =  -33.4963786028     A.U. after   11 cycles
 E2 =    -0.2352068667D+00 EUMP2 =    -0.33731585469485D+02
 CCSD(T)
 CCSD(T)= -0.33747621924D+02

 The electronic state is 1-A'.
 Alpha  occ. eigenvalues --   -1.42295  -1.28265  -0.78770  -0.72345  -0.54796
 Alpha  occ. eigenvalues --   -0.50484  -0.42930  -0.42719
 Alpha virt. eigenvalues --    0.18933   0.28073   0.30453   0.36135   0.78807
 Alpha virt. eigenvalues --    0.83390   0.90002   0.94134   0.97694   1.17265
 Alpha virt. eigenvalues --    1.18581   1.26098   1.31924   1.38003   2.77699

 Mulliken charges:
               1
     1  O   -0.789525
     2  H    0.358249
     3  H    0.442412
     4  O   -0.659534
     5  H    0.281609
     6  H    0.366789
 Sum of Mulliken charges =   0.00000

 Dipole moment (field-independent basis, Debye):
    X=             -2.0289    Y=             -2.6042    Z=              0.0000  Tot=              3.3013
 Quadrupole moment (field-independent basis, Debye-Ang):
   XX=            -10.0506   YY=             -8.0255   ZZ=            -14.9154
   XY=             -2.0831   XZ=              0.0000   YZ=              0.0000

 \MP4DQ=-33.7408199\MP4SDQ=-33.7435029\CCSD=-33.7440998\CCSD(T)=-33.747
 Normal termination of Gaussian 16 at Sun Dec 10 06:27:28 2023.
