 Gaussian 16, Revision A.03,
 Gaussian 16:  ES64L-G16RevA.03 25-Dec-2016

 ------------------
 #p CCSD(T)/CEP-31G
 ------------------

 ------------
 H2O_H2O_4906
 ------------
 Symbolic Z-matrix:
 Charge =  0 Multiplicity = 1

                         Standard orientation:
 ---------------------------------------------------------------------
 Center     Atomic      Atomic             Coordinates (Angstroms)
 Number     Number       Type             X           Y           Z
 ---------------------------------------------------------------------
      1          8           0        0.021859   -3.404888    0.000000
      2          1           0       -0.778027   -3.975579    0.000000
      3          1           0        0.821114   -3.976461    0.000000
      4          8           0        0.021859    3.413559    0.000000
      5          1           0        0.542464    4.246912    0.000000
      6          1           0       -0.935289    3.635761    0.000000
 ---------------------------------------------------------------------

 SCF Done:  E(RHF) =  -33.6509423357     A.U. after   11 cycles
 E2 =    -0.2284227536D+00 EUMP2 =    -0.33879365089280D+02
 CCSD(T)
 CCSD(T)= -0.33896389865D+02

 The electronic state is 1-A'.
 Alpha  occ. eigenvalues --   -1.35130  -1.35074  -0.70758  -0.70701  -0.54817
 Alpha  occ. eigenvalues --   -0.54762  -0.49688  -0.49632
 Alpha virt. eigenvalues --    0.20595   0.20651   0.30828   0.30883   0.80865
 Alpha virt. eigenvalues --    0.80921   0.83971   0.84026   0.87053   0.87117
 Alpha virt. eigenvalues --    1.17736   1.17791   1.22201   1.22256   2.57774

 Mulliken charges:
               1
     1  O   -0.738095
     2  H    0.368585
     3  H    0.369509
     4  O   -0.738027
     5  H    0.368333
     6  H    0.369694
 Sum of Mulliken charges =   0.00000

 Dipole moment (field-independent basis, Debye):
    X=             -1.0096    Y=             -0.2024    Z=              0.0000  Tot=              1.0297
 Quadrupole moment (field-independent basis, Debye-Ang):
   XX=             -8.3450   YY=             23.0859   ZZ=            -14.9872
   XY=             -2.8192   XZ=              0.0000   YZ=              0.0000

 MP4DQ=-33.8907391\MP4SDQ=-33.892769\CCSD=-33.8938261\CCSD(T)=-33.89638
 Normal termination of Gaussian 16 at Sun Dec 10 07:10:06 2023.
