 Gaussian 16, Revision A.03,
 Gaussian 16:  ES64L-G16RevA.03 25-Dec-2016

 ------------------
 #p CCSD(T)/CEP-31G
 ------------------

 -----------
 H2O_H2O_437
 -----------
 Symbolic Z-matrix:
 Charge =  0 Multiplicity = 1

                         Standard orientation:
 ---------------------------------------------------------------------
 Center     Atomic      Atomic             Coordinates (Angstroms)
 Number     Number       Type             X           Y           Z
 ---------------------------------------------------------------------
      1          8           0        0.040441   -1.011604    0.000000
      2          1           0       -0.761056   -1.580029    0.000000
      3          1           0        0.838077   -1.585436    0.000000
      4          8           0        0.040441    1.044787    0.000000
      5          1           0        0.205249    2.013468    0.000000
      6          1           0       -0.929333    0.886534    0.000000
 ---------------------------------------------------------------------

 SCF Done:  E(RHF) =  -33.6072952721     A.U. after   11 cycles
 E2 =    -0.2319487616D+00 EUMP2 =    -0.33839244033738D+02
 CCSD(T)
 CCSD(T)= -0.33856533169D+02

 The electronic state is 1-A'.
 Alpha  occ. eigenvalues --   -1.34207  -1.30814  -0.69736  -0.67444  -0.56734
 Alpha  occ. eigenvalues --   -0.49013  -0.44752  -0.44607
 Alpha virt. eigenvalues --    0.20566   0.26528   0.31841   0.33317   0.79775
 Alpha virt. eigenvalues --    0.83637   0.89959   0.97436   0.99328   1.15720
 Alpha virt. eigenvalues --    1.19252   1.23738   1.25184   1.31436   2.52784

 Mulliken charges:
               1
     1  O   -0.743573
     2  H    0.345018
     3  H    0.380950
     4  O   -0.672974
     5  H    0.341727
     6  H    0.348853
 Sum of Mulliken charges =   0.00000

 Dipole moment (field-independent basis, Debye):
    X=             -1.6080    Y=             -0.8019    Z=              0.0000  Tot=              1.7968
 Quadrupole moment (field-independent basis, Debye-Ang):
   XX=             -9.2439   YY=             -3.7496   ZZ=            -15.0004
   XY=             -1.2770   XZ=              0.0000   YZ=              0.0000

 P4DQ=-33.8503494\MP4SDQ=-33.8526259\CCSD=-33.8536223\CCSD(T)=-33.85653
 Normal termination of Gaussian 16 at Sun Dec 10 06:32:56 2023.
