 Gaussian 16, Revision A.03,
 Gaussian 16:  ES64L-G16RevA.03 25-Dec-2016

 ------------------
 #p CCSD(T)/CEP-31G
 ------------------

 ---------
 H2O_H2O_6
 ---------
 Symbolic Z-matrix:
 Charge =  0 Multiplicity = 1

                         Standard orientation:
 ---------------------------------------------------------------------
 Center     Atomic      Atomic             Coordinates (Angstroms)
 Number     Number       Type             X           Y           Z
 ---------------------------------------------------------------------
      1          8           0        0.021866   -0.798930    0.000000
      2          1           0       -0.779040   -1.368188    0.000000
      3          1           0        0.820097   -1.371934    0.000000
      4          8           0        0.021866    0.807523    0.000000
      5          1           0        0.543963    1.639942    0.000000
      6          1           0       -0.934882    1.031440    0.000000
 ---------------------------------------------------------------------

 SCF Done:  E(RHF) =  -33.4597603234     A.U. after   12 cycles
 E2 =    -0.2403277738D+00 EUMP2 =    -0.33700088097168D+02
 CCSD(T)
 CCSD(T)= -0.33716250284D+02

 The electronic state is 1-A'.
 Alpha  occ. eigenvalues --   -1.38588  -1.28733  -0.72261  -0.68845  -0.63654
 Alpha  occ. eigenvalues --   -0.52933  -0.42406  -0.30290
 Alpha virt. eigenvalues --    0.20707   0.28899   0.31411   0.33635   0.82049
 Alpha virt. eigenvalues --    0.82246   0.88558   0.88746   1.00314   1.19170
 Alpha virt. eigenvalues --    1.21489   1.24017   1.27189   1.41133   2.54343

 Mulliken charges:
               1
     1  O   -0.694919
     2  H    0.325510
     3  H    0.366993
     4  O   -0.673206
     5  H    0.332719
     6  H    0.342903
 Sum of Mulliken charges =  -0.00000

 Dipole moment (field-independent basis, Debye):
    X=             -0.7904    Y=             -0.2619    Z=              0.0000  Tot=              0.8327
 Quadrupole moment (field-independent basis, Debye-Ang):
   XX=             -8.8231   YY=             -8.4634   ZZ=            -14.9953
   XY=             -0.5755   XZ=              0.0000   YZ=              0.0000

 DQ=-33.7091593\MP4SDQ=-33.7120985\CCSD=-33.7125053\CCSD(T)=-33.7162503
 Normal termination of Gaussian 16 at Sun Dec 10 06:24:50 2023.
