 Gaussian 16, Revision A.03,
 Gaussian 16:  ES64L-G16RevA.03 25-Dec-2016

 ------------------
 #p CCSD(T)/CEP-31G
 ------------------

 ------------
 H2O_H2O_3686
 ------------
 Symbolic Z-matrix:
 Charge =  0 Multiplicity = 1

                         Standard orientation:
 ---------------------------------------------------------------------
 Center     Atomic      Atomic             Coordinates (Angstroms)
 Number     Number       Type             X           Y           Z
 ---------------------------------------------------------------------
      1          8           0        0.037674   -2.742750    0.000000
      2          1           0       -0.762568   -3.312942    0.000000
      3          1           0        0.836573   -3.314822    0.000000
      4          8           0        0.037674    2.771008    0.000000
      5          1           0        0.263375    3.727338    0.000000
      6          1           0       -0.940164    2.674364    0.000000
 ---------------------------------------------------------------------

 SCF Done:  E(RHF) =  -33.6505680863     A.U. after   11 cycles
 E2 =    -0.2284569218D+00 EUMP2 =    -0.33879025008061D+02
 CCSD(T)
 CCSD(T)= -0.33896060535D+02

 The electronic state is 1-A'.
 Alpha  occ. eigenvalues --   -1.35057  -1.34775  -0.70685  -0.70395  -0.54723
 Alpha  occ. eigenvalues --   -0.54441  -0.49610  -0.49329
 Alpha virt. eigenvalues --    0.20646   0.20934   0.30880   0.31154   0.80943
 Alpha virt. eigenvalues --    0.81220   0.84042   0.84405   0.87149   0.87493
 Alpha virt. eigenvalues --    1.17793   1.18071   1.22261   1.22541   2.57839

 Mulliken charges:
               1
     1  O   -0.736831
     2  H    0.366990
     3  H    0.369842
     4  O   -0.736353
     5  H    0.365998
     6  H    0.370355
 Sum of Mulliken charges =   0.00000

 Dipole moment (field-independent basis, Debye):
    X=             -1.7359    Y=             -0.6642    Z=              0.0000  Tot=              1.8586
 Quadrupole moment (field-independent basis, Debye-Ang):
   XX=             -8.9622   YY=             14.3913   ZZ=            -14.9870
   XY=             -3.9777   XZ=              0.0000   YZ=              0.0000

 MP4DQ=-33.8904067\MP4SDQ=-33.8924378\CCSD=-33.893495\CCSD(T)=-33.89606
 Normal termination of Gaussian 16 at Sun Dec 10 06:46:17 2023.
