 Gaussian 16, Revision A.03,
 Gaussian 16:  ES64L-G16RevA.03 25-Dec-2016

 ------------------
 #p CCSD(T)/CEP-31G
 ------------------

 ------------
 H2O_H2O_1787
 ------------
 Symbolic Z-matrix:
 Charge =  0 Multiplicity = 1

                         Standard orientation:
 ---------------------------------------------------------------------
 Center     Atomic      Atomic             Coordinates (Angstroms)
 Number     Number       Type             X           Y           Z
 ---------------------------------------------------------------------
      1          8           0        0.040418   -1.729524    0.000000
      2          1           0       -0.760288   -2.299063    0.000000
      3          1           0        0.838851   -2.302247    0.000000
      4          8           0        0.040418    1.762820    0.000000
      5          1           0        0.203879    2.731730    0.000000
      6          1           0       -0.929135    1.603219    0.000000
 ---------------------------------------------------------------------

 SCF Done:  E(RHF) =  -33.6475015952     A.U. after   11 cycles
 E2 =    -0.2288790580D+00 EUMP2 =    -0.33876380653124D+02
 CCSD(T)
 CCSD(T)= -0.33893533279D+02

 The electronic state is 1-A'.
 Alpha  occ. eigenvalues --   -1.34478  -1.33619  -0.70106  -0.69198  -0.54132
 Alpha  occ. eigenvalues --   -0.52923  -0.48998  -0.48131
 Alpha virt. eigenvalues --    0.20472   0.22516   0.31282   0.32118   0.75863
 Alpha virt. eigenvalues --    0.80471   0.83504   0.85384   0.89397   1.02859
 Alpha virt. eigenvalues --    1.18235   1.19538   1.22734   1.23746   2.57849

 Mulliken charges:
               1
     1  O   -0.726992
     2  H    0.358390
     3  H    0.368897
     4  O   -0.722782
     5  H    0.354171
     6  H    0.368315
 Sum of Mulliken charges =   0.00000

 Dipole moment (field-independent basis, Debye):
    X=             -1.8292    Y=             -0.8196    Z=              0.0000  Tot=              2.0044
 Quadrupole moment (field-independent basis, Debye-Ang):
   XX=             -9.1293   YY=              4.4277   ZZ=            -14.9859
   XY=             -2.5130   XZ=              0.0000   YZ=              0.0000

 \MP4DQ=-33.8878148\MP4SDQ=-33.889882\CCSD=-33.8909339\CCSD(T)=-33.8935
 Normal termination of Gaussian 16 at Sun Dec 10 06:58:05 2023.
