 Gaussian 16, Revision A.03,
 Gaussian 16:  ES64L-G16RevA.03 25-Dec-2016

 ------------------
 #p CCSD(T)/CEP-31G
 ------------------

 ------------
 H2O_H2O_4183
 ------------
 Symbolic Z-matrix:
 Charge =  0 Multiplicity = 1

                         Standard orientation:
 ---------------------------------------------------------------------
 Center     Atomic      Atomic             Coordinates (Angstroms)
 Number     Number       Type             X           Y           Z
 ---------------------------------------------------------------------
      1          8           0        0.028563   -3.015730    0.000000
      2          1           0       -0.771472   -3.586211    0.000000
      3          1           0        0.827669   -3.587512    0.000000
      4          8           0        0.028563    3.030986    0.000000
      5          1           0        0.436174    3.925056    0.000000
      6          1           0       -0.949375    3.126612    0.000000
 ---------------------------------------------------------------------

 SCF Done:  E(RHF) =  -33.6506626810     A.U. after   11 cycles
 E2 =    -0.2284427174D+00 EUMP2 =    -0.33879105398434D+02
 CCSD(T)
 CCSD(T)= -0.33896138142D+02

 The electronic state is 1-A'.
 Alpha  occ. eigenvalues --   -1.35050  -1.34924  -0.70677  -0.70548  -0.54721
 Alpha  occ. eigenvalues --   -0.54596  -0.49604  -0.49479
 Alpha virt. eigenvalues --    0.20660   0.20787   0.30892   0.31015   0.80950
 Alpha virt. eigenvalues --    0.81073   0.84081   0.84210   0.87152   0.87302
 Alpha virt. eigenvalues --    1.17804   1.17929   1.22271   1.22396   2.57849

 Mulliken charges:
               1
     1  O   -0.737127
     2  H    0.367721
     3  H    0.369406
     4  O   -0.736932
     5  H    0.367229
     6  H    0.369703
 Sum of Mulliken charges =   0.00000

 Dipole moment (field-independent basis, Debye):
    X=             -1.3178    Y=             -0.3573    Z=              0.0000  Tot=              1.3653
 Quadrupole moment (field-independent basis, Debye-Ang):
   XX=             -8.5689   YY=             18.3857   ZZ=            -14.9869
   XY=             -3.2420   XZ=              0.0000   YZ=              0.0000

 4DQ=-33.8904852\MP4SDQ=-33.8925159\CCSD=-33.8935733\CCSD(T)=-33.896138
 Normal termination of Gaussian 16 at Sun Dec 10 06:55:25 2023.
