 Gaussian 16, Revision A.03,
 Gaussian 16:  ES64L-G16RevA.03 25-Dec-2016

 ------------------
 #p CCSD(T)/CEP-31G
 ------------------

 ------------
 H2O_H2O_3187
 ------------
 Symbolic Z-matrix:
 Charge =  0 Multiplicity = 1

                         Standard orientation:
 ---------------------------------------------------------------------
 Center     Atomic      Atomic             Coordinates (Angstroms)
 Number     Number       Type             X           Y           Z
 ---------------------------------------------------------------------
      1          8           0        0.040408   -2.474070    0.000000
      2          1           0       -0.759959   -3.044086    0.000000
      3          1           0        0.839182   -3.046318    0.000000
      4          8           0        0.040408    2.507414    0.000000
      5          1           0        0.203292    3.476420    0.000000
      6          1           0       -0.929050    2.347236    0.000000
 ---------------------------------------------------------------------

 SCF Done:  E(RHF) =  -33.6502812833     A.U. after   11 cycles
 E2 =    -0.2284861524D+00 EUMP2 =    -0.33878767435713D+02
 CCSD(T)
 CCSD(T)= -0.33895811524D+02

 The electronic state is 1-A'.
 Alpha  occ. eigenvalues --   -1.34997  -1.34587  -0.70624  -0.70200  -0.54646
 Alpha  occ. eigenvalues --   -0.54234  -0.49546  -0.49137
 Alpha virt. eigenvalues --    0.20676   0.21123   0.30924   0.31322   0.81005
 Alpha virt. eigenvalues --    0.81411   0.83765   0.84906   0.87227   0.87840
 Alpha virt. eigenvalues --    1.17842   1.18247   1.22312   1.22721   2.57893

 Mulliken charges:
               1
     1  O   -0.735879
     2  H    0.365922
     3  H    0.369960
     4  O   -0.735027
     5  H    0.364428
     6  H    0.370597
 Sum of Mulliken charges =  -0.00000

 Dipole moment (field-independent basis, Debye):
    X=             -1.8582    Y=             -0.7879    Z=              0.0000  Tot=              2.0184
 Quadrupole moment (field-independent basis, Debye-Ang):
   XX=             -9.1029   YY=             11.4064   ZZ=            -14.9868
   XY=             -3.8460   XZ=              0.0000   YZ=              0.0000

 MP4DQ=-33.890155\MP4SDQ=-33.8921872\CCSD=-33.8932443\CCSD(T)=-33.89581
 Normal termination of Gaussian 16 at Sun Dec 10 06:37:14 2023.
