 Gaussian 16, Revision A.03,
 Gaussian 16:  ES64L-G16RevA.03 25-Dec-2016

 ------------------
 #p CCSD(T)/CEP-31G
 ------------------

 ------------
 H2O_H2O_3578
 ------------
 Symbolic Z-matrix:
 Charge =  0 Multiplicity = 1

                         Standard orientation:
 ---------------------------------------------------------------------
 Center     Atomic      Atomic             Coordinates (Angstroms)
 Number     Number       Type             X           Y           Z
 ---------------------------------------------------------------------
      1          8           0        0.011143   -2.703726    0.000000
      2          1           0       -0.788631   -3.274575    0.000000
      3          1           0        0.810511   -3.275142    0.000000
      4          8           0        0.011143    2.705913    0.000000
      5          1           0        0.684182    3.421821    0.000000
      6          1           0       -0.884344    3.110400    0.000000
 ---------------------------------------------------------------------

 SCF Done:  E(RHF) =  -33.6499207579     A.U. after   11 cycles
 E2 =    -0.2284827566D+00 EUMP2 =    -0.33878403514451D+02
 CCSD(T)
 CCSD(T)= -0.33895457595D+02

 The electronic state is 1-A'.
 Alpha  occ. eigenvalues --   -1.34791  -1.34769  -0.70417  -0.70394  -0.54423
 Alpha  occ. eigenvalues --   -0.54395  -0.49335  -0.49312
 Alpha virt. eigenvalues --    0.20870   0.20908   0.31106   0.31128   0.81216
 Alpha virt. eigenvalues --    0.81243   0.84244   0.84645   0.87453   0.87499
 Alpha virt. eigenvalues --    1.18031   1.18054   1.22505   1.22528   2.58091

 Mulliken charges:
               1
     1  O   -0.734537
     2  H    0.366819
     3  H    0.367718
     4  O   -0.734484
     5  H    0.366641
     6  H    0.367843
 Sum of Mulliken charges =   0.00000

 Dipole moment (field-independent basis, Debye):
    X=             -0.5133    Y=             -0.0515    Z=              0.0000  Tot=              0.5159
 Quadrupole moment (field-independent basis, Debye-Ang):
   XX=             -8.1296   YY=             16.4423   ZZ=            -14.9860
   XY=             -1.0572   XZ=              0.0000   YZ=              0.0000

 \MP4DQ=-33.8897987\MP4SDQ=-33.8918315\CCSD=-33.8928901\CCSD(T)=-33.895
 Normal termination of Gaussian 16 at Sun Dec 10 06:44:18 2023.
