 Gaussian 16, Revision A.03,
 Gaussian 16:  ES64L-G16RevA.03 25-Dec-2016

 ------------------
 #p CCSD(T)/CEP-31G
 ------------------

 ------------
 H2O_H2O_4503
 ------------
 Symbolic Z-matrix:
 Charge =  0 Multiplicity = 1

                         Standard orientation:
 ---------------------------------------------------------------------
 Center     Atomic      Atomic             Coordinates (Angstroms)
 Number     Number       Type             X           Y           Z
 ---------------------------------------------------------------------
      1          8           0        0.011143   -3.195674    0.000000
      2          1           0       -0.788600   -3.766566    0.000000
      3          1           0        0.810542   -3.767046    0.000000
      4          8           0        0.011143    3.197862    0.000000
      5          1           0        0.684142    3.913807    0.000000
      6          1           0       -0.884366    3.602301    0.000000
 ---------------------------------------------------------------------

 SCF Done:  E(RHF) =  -33.6506676837     A.U. after   11 cycles
 E2 =    -0.2284376417D+00 EUMP2 =    -0.33879105325397D+02
 CCSD(T)
 CCSD(T)= -0.33896137940D+02

 The electronic state is 1-A'.
 Alpha  occ. eigenvalues --   -1.35020  -1.35004  -0.70647  -0.70631  -0.54692
 Alpha  occ. eigenvalues --   -0.54676  -0.49574  -0.49558
 Alpha virt. eigenvalues --    0.20690   0.20706   0.30922   0.30937   0.80980
 Alpha virt. eigenvalues --    0.80996   0.84111   0.84131   0.87183   0.87202
 Alpha virt. eigenvalues --    1.17834   1.17850   1.22301   1.22317   2.57879

 Mulliken charges:
               1
     1  O   -0.737125
     2  H    0.368280
     3  H    0.368846
     4  O   -0.737101
     5  H    0.368152
     6  H    0.368948
 Sum of Mulliken charges =   0.00000

 Dipole moment (field-independent basis, Debye):
    X=             -0.5144    Y=             -0.0512    Z=              0.0000  Tot=              0.5169
 Quadrupole moment (field-independent basis, Debye-Ang):
   XX=             -8.1182   YY=             21.6633   ZZ=            -14.9868
   XY=             -1.3057   XZ=              0.0000   YZ=              0.0000

 P4DQ=-33.8904851\MP4SDQ=-33.8925157\CCSD=-33.8935733\CCSD(T)=-33.89613
 Normal termination of Gaussian 16 at Sun Dec 10 07:01:55 2023.
