 Gaussian 16, Revision A.03,
 Gaussian 16:  ES64L-G16RevA.03 25-Dec-2016

 ------------------
 #p CCSD(T)/CEP-31G
 ------------------

 ------------
 H2O_H2O_1845
 ------------
 Symbolic Z-matrix:
 Charge =  0 Multiplicity = 1

                         Standard orientation:
 ---------------------------------------------------------------------
 Center     Atomic      Atomic             Coordinates (Angstroms)
 Number     Number       Type             X           Y           Z
 ---------------------------------------------------------------------
      1          8           0        0.055280   -1.728379    0.000000
      2          1           0       -0.745820   -2.297365    0.000000
      3          1           0        0.853317   -2.301654    0.000000
      4          8           0        0.055280    1.812745    0.000000
      5          1           0       -0.286977    2.733814    0.000000
      6          1           0       -0.705007    1.190276    0.000000
 ---------------------------------------------------------------------

 SCF Done:  E(RHF) =  -33.6519249644     A.U. after   11 cycles
 E2 =    -0.2287585948D+00 EUMP2 =    -0.33880683559173D+02
 CCSD(T)
 CCSD(T)= -0.33897713902D+02

 The electronic state is 1-A'.
 Alpha  occ. eigenvalues --   -1.35626  -1.33435  -0.71266  -0.68989  -0.55369
 Alpha  occ. eigenvalues --   -0.53130  -0.50199  -0.48015
 Alpha virt. eigenvalues --    0.19460   0.23166   0.30293   0.32783   0.76904
 Alpha virt. eigenvalues --    0.79724   0.83158   0.86067   0.86922   1.00168
 Alpha virt. eigenvalues --    1.17224   1.20177   1.21714   1.25997   2.55540

 Mulliken charges:
               1
     1  O   -0.741485
     2  H    0.364416
     3  H    0.378093
     4  O   -0.737712
     5  H    0.354554
     6  H    0.382134
 Sum of Mulliken charges =  -0.00000

 Dipole moment (field-independent basis, Debye):
    X=             -2.5063    Y=             -2.0785    Z=              0.0000  Tot=              3.2560
 Quadrupole moment (field-independent basis, Debye-Ang):
   XX=            -10.0055   YY=              1.2441   ZZ=            -14.9915
   XY=             -4.3725   XZ=              0.0000   YZ=              0.0000

 \MP4DQ=-33.8920175\MP4SDQ=-33.8940805\CCSD=-33.8951197\CCSD(T)=-33.897
 Normal termination of Gaussian 16 at Sun Dec 10 06:59:09 2023.
