 Gaussian 16, Revision A.03,
 Gaussian 16:  ES64L-G16RevA.03 25-Dec-2016

 ------------------
 #p CCSD(T)/CEP-31G
 ------------------

 ------------
 H2O_H2O_3457
 ------------
 Symbolic Z-matrix:
 Charge =  0 Multiplicity = 1

                         Standard orientation:
 ---------------------------------------------------------------------
 Center     Atomic      Atomic             Coordinates (Angstroms)
 Number     Number       Type             X           Y           Z
 ---------------------------------------------------------------------
      1          8           0        0.025265   -2.632059    0.000000
      2          1           0       -0.774776   -3.202532    0.000000
      3          1           0        0.824365   -3.203850    0.000000
      4          8           0        0.025265    2.643798    0.000000
      5          1           0        0.490487    3.509288    0.000000
      6          1           0       -0.944323    2.803188    0.000000
 ---------------------------------------------------------------------

 SCF Done:  E(RHF) =  -33.6500014038     A.U. after   11 cycles
 E2 =    -0.2284845850D+00 EUMP2 =    -0.33878485988852D+02
 CCSD(T)
 CCSD(T)= -0.33895537856D+02

 The electronic state is 1-A'.
 Alpha  occ. eigenvalues --   -1.34846  -1.34718  -0.70472  -0.70339  -0.54480
 Alpha  occ. eigenvalues --   -0.54350  -0.49390  -0.49263
 Alpha virt. eigenvalues --    0.20823   0.20961   0.31058   0.31181   0.81161
 Alpha virt. eigenvalues --    0.81289   0.84144   0.84708   0.87398   0.87574
 Alpha virt. eigenvalues --    1.17981   1.18107   1.22454   1.22580   2.58040

 Mulliken charges:
               1
     1  O   -0.734843
     2  H    0.366334
     3  H    0.368509
     4  O   -0.734550
     5  H    0.365765
     6  H    0.368784
 Sum of Mulliken charges =   0.00000

 Dipole moment (field-independent basis, Debye):
    X=             -1.1633    Y=             -0.2765    Z=              0.0000  Tot=              1.1957
 Quadrupole moment (field-independent basis, Debye-Ang):
   XX=             -8.4618   YY=             14.8531   ZZ=            -14.9862
   XY=             -2.3981   XZ=              0.0000   YZ=              0.0000

 P4DQ=-33.8898795\MP4SDQ=-33.8919121\CCSD=-33.8929704\CCSD(T)=-33.89553
 Normal termination of Gaussian 16 at Sun Dec 10 06:42:06 2023.
