 Gaussian 16, Revision A.03,
 Gaussian 16:  ES64L-G16RevA.03 25-Dec-2016

 ------------------
 #p CCSD(T)/CEP-31G
 ------------------

 ------------
 H2O_H2O_4386
 ------------
 Symbolic Z-matrix:
 Charge =  0 Multiplicity = 1

                         Standard orientation:
 ---------------------------------------------------------------------
 Center     Atomic      Atomic             Coordinates (Angstroms)
 Number     Number       Type             X           Y           Z
 ---------------------------------------------------------------------
      1          8           0        0.037672   -3.115030    0.000000
      2          1           0       -0.762490   -3.685334    0.000000
      3          1           0        0.836651   -3.686990    0.000000
      4          8           0        0.037672    3.143299    0.000000
      5          1           0        0.263239    4.099660    0.000000
      6          1           0       -0.940153    3.046518    0.000000
 ---------------------------------------------------------------------

 SCF Done:  E(RHF) =  -33.6509604359     A.U. after   11 cycles
 E2 =    -0.2284277555D+00 EUMP2 =    -0.33879388191447D+02
 CCSD(T)
 CCSD(T)= -0.33896412368D+02

 The electronic state is 1-A'.
 Alpha  occ. eigenvalues --   -1.35178  -1.34961  -0.70807  -0.70584  -0.54866
 Alpha  occ. eigenvalues --   -0.54649  -0.49736  -0.49520
 Alpha virt. eigenvalues --    0.20548   0.20768   0.30782   0.30996   0.80817
 Alpha virt. eigenvalues --    0.81031   0.83921   0.84135   0.87002   0.87253
 Alpha virt. eigenvalues --    1.17689   1.17904   1.22154   1.22370   2.57726

 Mulliken charges:
               1
     1  O   -0.738181
     2  H    0.368088
     3  H    0.370093
     4  O   -0.737917
     5  H    0.367380
     6  H    0.370537
 Sum of Mulliken charges =  -0.00000

 Dipole moment (field-independent basis, Debye):
    X=             -1.7386    Y=             -0.6614    Z=              0.0000  Tot=              1.8602
 Quadrupole moment (field-independent basis, Debye-Ang):
   XX=             -8.9588   YY=             17.8894   ZZ=            -14.9873
   XY=             -4.6157   XZ=              0.0000   YZ=              0.0000

 \MP4DQ=-33.8907618\MP4SDQ=-33.8927917\CCSD=-33.8938485\CCSD(T)=-33.896
 Normal termination of Gaussian 16 at Sun Dec 10 06:58:58 2023.
