 Gaussian 16, Revision A.03,
 Gaussian 16:  ES64L-G16RevA.03 25-Dec-2016

 ------------------
 #p CCSD(T)/CEP-31G
 ------------------

 ------------
 H2O_H2O_2057
 ------------
 Symbolic Z-matrix:
 Charge =  0 Multiplicity = 1

                         Standard orientation:
 ---------------------------------------------------------------------
 Center     Atomic      Atomic             Coordinates (Angstroms)
 Number     Number       Type             X           Y           Z
 ---------------------------------------------------------------------
      1          8           0        0.025267   -1.887497    0.000000
      2          1           0       -0.774959   -2.457710    0.000000
      3          1           0        0.824182   -2.459547    0.000000
      4          8           0        0.025267    1.899219    0.000000
      5          1           0        0.490769    2.764559    0.000000
      6          1           0       -0.944269    2.058923    0.000000
 ---------------------------------------------------------------------

 SCF Done:  E(RHF) =  -33.6470552747     A.U. after   11 cycles
 E2 =    -0.2287540197D+00 EUMP2 =    -0.33875809294321D+02
 CCSD(T)
 CCSD(T)= -0.33892954874D+02

 The electronic state is 1-A'.
 Alpha  occ. eigenvalues --   -1.34210  -1.33955  -0.69833  -0.69562  -0.53866
 Alpha  occ. eigenvalues --   -0.53195  -0.48723  -0.48453
 Alpha virt. eigenvalues --    0.20925   0.21927   0.31537   0.31779   0.78158
 Alpha virt. eigenvalues --    0.81135   0.82777   0.86232   0.89440   0.96005
 Alpha virt. eigenvalues --    1.18498   1.18776   1.23010   1.23298   2.58179

 Mulliken charges:
               1
     1  O   -0.724997
     2  H    0.359868
     3  H    0.365205
     4  O   -0.723725
     5  H    0.358507
     6  H    0.365142
 Sum of Mulliken charges =  -0.00000

 Dipole moment (field-independent basis, Debye):
    X=             -1.1510    Y=             -0.2856    Z=              0.0000  Tot=              1.1859
 Quadrupole moment (field-independent basis, Debye-Ang):
   XX=             -8.5019   YY=              7.1679   ZZ=            -14.9844
   XY=             -1.5661   XZ=              0.0000   YZ=              0.0000

 MP4DQ=-33.8872552\MP4SDQ=-33.8893084\CCSD=-33.8903656\CCSD(T)=-33.8929
 Normal termination of Gaussian 16 at Sun Dec 10 07:04:26 2023.
