 Gaussian 16, Revision A.03,
 Gaussian 16:  ES64L-G16RevA.03 25-Dec-2016

 ------------------
 #p CCSD(T)/CEP-31G
 ------------------

 ------------
 H2O_H2O_1709
 ------------
 Symbolic Z-matrix:
 Charge =  0 Multiplicity = 1

                         Standard orientation:
 ---------------------------------------------------------------------
 Center     Atomic      Atomic             Coordinates (Angstroms)
 Number     Number       Type             X           Y           Z
 ---------------------------------------------------------------------
      1          8           0        0.031746   -1.697320    0.000000
      2          1           0       -0.768738   -2.267171    0.000000
      3          1           0        0.830402   -2.269730    0.000000
      4          8           0        0.031746    1.716469    0.000000
      5          1           0        0.380731    2.635008    0.000000
      6          1           0       -0.950327    1.748701    0.000000
 ---------------------------------------------------------------------

 SCF Done:  E(RHF) =  -33.6459107790     A.U. after   11 cycles
 E2 =    -0.2289376783D+00 EUMP2 =    -0.33874848457330D+02
 CCSD(T)
 CCSD(T)= -0.33892050739D+02

 The electronic state is 1-A'.
 Alpha  occ. eigenvalues --   -1.34105  -1.33590  -0.69728  -0.69182  -0.53866
 Alpha  occ. eigenvalues --   -0.52601  -0.48615  -0.48066
 Alpha virt. eigenvalues --    0.20766   0.22480   0.31605   0.32068   0.75923
 Alpha virt. eigenvalues --    0.80530   0.83899   0.85020   0.90875   1.03834
 Alpha virt. eigenvalues --    1.18556   1.19346   1.23137   1.23638   2.58346

 Mulliken charges:
               1
     1  O   -0.722004
     2  H    0.356677
     3  H    0.365471
     4  O   -0.718824
     5  H    0.354014
     6  H    0.364666
 Sum of Mulliken charges =   0.00000

 Dipole moment (field-independent basis, Debye):
    X=             -1.4353    Y=             -0.4735    Z=              0.0000  Tot=              1.5113
 Quadrupole moment (field-independent basis, Debye-Ang):
   XX=             -8.7503   YY=              4.8054   ZZ=            -14.9847
   XY=             -1.7857   XZ=              0.0000   YZ=              0.0000

 \MP4DQ=-33.8863153\MP4SDQ=-33.8883876\CCSD=-33.8894447\CCSD(T)=-33.892
 Normal termination of Gaussian 16 at Sun Dec 10 06:56:39 2023.
