 Gaussian 16, Revision A.03,
 Gaussian 16:  ES64L-G16RevA.03 25-Dec-2016

 ------------------
 #p CCSD(T)/CEP-31G
 ------------------

 ------------
 H2O_H2O_2697
 ------------
 Symbolic Z-matrix:
 Charge =  0 Multiplicity = 1

                         Standard orientation:
 ---------------------------------------------------------------------
 Center     Atomic      Atomic             Coordinates (Angstroms)
 Number     Number       Type             X           Y           Z
 ---------------------------------------------------------------------
      1          8           0        0.056733   -2.172458    0.000000
      2          1           0       -0.744089   -2.741834    0.000000
      3          1           0        0.855050   -2.745342    0.000000
      4          8           0        0.056733    2.271526    0.000000
      5          1           0       -0.403244    3.139816    0.000000
      6          1           0       -0.615452    1.554816    0.000000
 ---------------------------------------------------------------------

 SCF Done:  E(RHF) =  -33.6524315516     A.U. after   10 cycles
 E2 =    -0.2284406889D+00 EUMP2 =    -0.33880872240518D+02
 CCSD(T)
 CCSD(T)= -0.33897855079D+02

 The electronic state is 1-A'.
 Alpha  occ. eigenvalues --   -1.35761  -1.34193  -0.71398  -0.69780  -0.55535
 Alpha  occ. eigenvalues --   -0.53927  -0.50341  -0.48773
 Alpha virt. eigenvalues --    0.19798   0.21857   0.30253   0.31918   0.80205
 Alpha virt. eigenvalues --    0.81757   0.82238   0.85284   0.86240   0.88838
 Alpha virt. eigenvalues --    1.17165   1.18858   1.21572   1.23673   2.57133

 Mulliken charges:
               1
     1  O   -0.743261
     2  H    0.368100
     3  H    0.375384
     4  O   -0.742279
     5  H    0.362382
     6  H    0.379674
 Sum of Mulliken charges =  -0.00000

 Dipole moment (field-independent basis, Debye):
    X=             -2.6017    Y=             -2.3682    Z=              0.0000  Tot=              3.5181
 Quadrupole moment (field-independent basis, Debye-Ang):
   XX=            -10.1199   YY=              2.9251   ZZ=            -14.9907
   XY=             -5.9035   XZ=              0.0000   YZ=              0.0000

 P4DQ=-33.8922087\MP4SDQ=-33.8942407\CCSD=-33.8952894\CCSD(T)=-33.89785
 Normal termination of Gaussian 16 at Sun Dec 10 06:28:25 2023.
