 Gaussian 16, Revision A.03,
 Gaussian 16:  ES64L-G16RevA.03 25-Dec-2016

 ------------------
 #p CCSD(T)/CEP-31G
 ------------------

 ------------
 H2O_H2O_4165
 ------------
 Symbolic Z-matrix:
 Charge =  0 Multiplicity = 1

                         Standard orientation:
 ---------------------------------------------------------------------
 Center     Atomic      Atomic             Coordinates (Angstroms)
 Number     Number       Type             X           Y           Z
 ---------------------------------------------------------------------
      1          8           0        0.047522   -2.983219    0.000000
      2          1           0       -0.752824   -3.553264    0.000000
      3          1           0        0.846317   -3.555437    0.000000
      4          8           0        0.047522    3.033856    0.000000
      5          1           0        0.018196    4.016020    0.000000
      6          1           0       -0.872046    2.687589    0.000000
 ---------------------------------------------------------------------

 SCF Done:  E(RHF) =  -33.6512112242     A.U. after   11 cycles
 E2 =    -0.2284195077D+00 EUMP2 =    -0.33879630731875D+02
 CCSD(T)
 CCSD(T)= -0.33896647608D+02

 The electronic state is 1-A'.
 Alpha  occ. eigenvalues --   -1.35311  -1.34891  -0.70941  -0.70511  -0.55014
 Alpha  occ. eigenvalues --   -0.54590  -0.49874  -0.49454
 Alpha virt. eigenvalues --    0.20428   0.20858   0.30665   0.31082   0.80679
 Alpha virt. eigenvalues --    0.81093   0.83758   0.84177   0.86849   0.87328
 Alpha virt. eigenvalues --    1.17566   1.17983   1.22029   1.22450   2.57597

 Mulliken charges:
               1
     1  O   -0.739087
     2  H    0.368154
     3  H    0.370934
     4  O   -0.738671
     5  H    0.366899
     6  H    0.371771
 Sum of Mulliken charges =  -0.00000

 Dipole moment (field-independent basis, Debye):
    X=             -2.1922    Y=             -1.1863    Z=              0.0000  Tot=              2.4926
 Quadrupole moment (field-independent basis, Debye-Ang):
   XX=             -9.5039   YY=             14.0849   ZZ=            -14.9878
   XY=             -5.9046   XZ=              0.0000   YZ=              0.0000

 \MP4DQ=-33.8909989\MP4SDQ=-33.8930283\CCSD=-33.8940844\CCSD(T)=-33.896
 Normal termination of Gaussian 16 at Sun Dec 10 06:55:06 2023.
