 Gaussian 16, Revision A.03,
 Gaussian 16:  ES64L-G16RevA.03 25-Dec-2016

 ------------------
 #p CCSD(T)/CEP-31G
 ------------------

 -----------
 H2O_H2O_993
 -----------
 Symbolic Z-matrix:
 Charge =  0 Multiplicity = 1

                         Standard orientation:
 ---------------------------------------------------------------------
 Center     Atomic      Atomic             Coordinates (Angstroms)
 Number     Number       Type             X           Y           Z
 ---------------------------------------------------------------------
      1          8           0        0.052887   -1.284037    0.000000
      2          1           0       -0.748646   -1.852412    0.000000
      3          1           0        0.850486   -1.857919    0.000000
      4          8           0        0.052887    1.354187    0.000000
      5          1           0       -0.165489    2.312215    0.000000
      6          1           0       -0.782539    0.836917    0.000000
 ---------------------------------------------------------------------

 SCF Done:  E(RHF) =  -33.6457160004     A.U. after   11 cycles
 E2 =    -0.2298917851D+00 EUMP2 =    -0.33875607785568D+02
 CCSD(T)
 CCSD(T)= -0.33892815586D+02

 The electronic state is 1-A'.
 Alpha  occ. eigenvalues --   -1.35222  -1.32091  -0.70880  -0.67954  -0.54829
 Alpha  occ. eigenvalues --   -0.51332  -0.49801  -0.46589
 Alpha virt. eigenvalues --    0.19656   0.25347   0.30699   0.33732   0.77905
 Alpha virt. eigenvalues --    0.81569   0.87530   0.87910   0.92657   1.15927
 Alpha virt. eigenvalues --    1.19083   1.21155   1.22595   1.29391   2.65493

 Mulliken charges:
               1
     1  O   -0.745380
     2  H    0.356835
     3  H    0.385633
     4  O   -0.712757
     5  H    0.339197
     6  H    0.376472
 Sum of Mulliken charges =   0.00000

 Dipole moment (field-independent basis, Debye):
    X=             -2.2939    Y=             -1.7800    Z=              0.0000  Tot=              2.9036
 Quadrupole moment (field-independent basis, Debye-Ang):
   XX=             -9.8481   YY=             -1.5263   ZZ=            -14.9950
   XY=             -2.8855   XZ=              0.0000   YZ=              0.0000

 MP4DQ=-33.8869227\MP4SDQ=-33.889073\CCSD=-33.8901119\CCSD(T)=-33.89281
 Normal termination of Gaussian 16 at Sun Dec 10 06:43:19 2023.
