 Gaussian 16, Revision A.03,
 Gaussian 16:  ES64L-G16RevA.03 25-Dec-2016

 ------------------
 #p CCSD(T)/CEP-31G
 ------------------

 -----------
 H2O_H2O_743
 -----------
 Symbolic Z-matrix:
 Charge =  0 Multiplicity = 1

                         Standard orientation:
 ---------------------------------------------------------------------
 Center     Atomic      Atomic             Coordinates (Angstroms)
 Number     Number       Type             X           Y           Z
 ---------------------------------------------------------------------
      1          8           0        0.052900   -1.151099    0.000000
      2          1           0       -0.748852   -1.719165    0.000000
      3          1           0        0.850278   -1.725289    0.000000
      4          8           0        0.052900    1.221208    0.000000
      5          1           0       -0.165106    2.179321    0.000000
      6          1           0       -0.782726    0.704261    0.000000
 ---------------------------------------------------------------------

 SCF Done:  E(RHF) =  -33.6377866850     A.U. after   11 cycles
 E2 =    -0.2306064474D+00 EUMP2 =    -0.33868393132391D+02
 CCSD(T)
 CCSD(T)= -0.33885579508D+02

 The electronic state is 1-A'.
 Alpha  occ. eigenvalues --   -1.35335  -1.31470  -0.71025  -0.67962  -0.54608
 Alpha  occ. eigenvalues --   -0.50223  -0.49937  -0.45886
 Alpha virt. eigenvalues --    0.19657   0.26269   0.30660   0.34144   0.77807
 Alpha virt. eigenvalues --    0.84014   0.88914   0.92877   0.95323   1.14783
 Alpha virt. eigenvalues --    1.19186   1.21247   1.23983   1.30808   2.64752

 Mulliken charges:
               1
     1  O   -0.757023
     2  H    0.356141
     3  H    0.392579
     4  O   -0.697630
     5  H    0.333067
     6  H    0.372867
 Sum of Mulliken charges =  -0.00000

 Dipole moment (field-independent basis, Debye):
    X=             -2.2264    Y=             -1.7849    Z=              0.0000  Tot=              2.8535
 Quadrupole moment (field-independent basis, Debye-Ang):
   XX=             -9.8536   YY=             -2.8583   ZZ=            -14.9977
   XY=             -2.5635   XZ=              0.0000   YZ=              0.0000

 \MP4DQ=-33.8795738\MP4SDQ=-33.8817738\CCSD=-33.8827898\CCSD(T)=-33.885
 Normal termination of Gaussian 16 at Sun Dec 10 06:38:38 2023.
