 Gaussian 16, Revision A.03,
 Gaussian 16:  ES64L-G16RevA.03 25-Dec-2016

 ------------------
 #p CCSD(T)/CEP-31G
 ------------------

 ------------
 H2O_H2O_4043
 ------------
 Symbolic Z-matrix:
 Charge =  0 Multiplicity = 1

                         Standard orientation:
 ---------------------------------------------------------------------
 Center     Atomic      Atomic             Coordinates (Angstroms)
 Number     Number       Type             X           Y           Z
 ---------------------------------------------------------------------
      1          8           0        0.052820   -2.906034    0.000000
      2          1           0       -0.747632   -3.475930    0.000000
      3          1           0        0.851508   -3.478400    0.000000
      4          8           0        0.052820    2.976384    0.000000
      5          1           0       -0.167375    3.933996    0.000000
      6          1           0       -0.781622    2.457528    0.000000
 ---------------------------------------------------------------------

 SCF Done:  E(RHF) =  -33.6515070644     A.U. after   11 cycles
 E2 =    -0.2284067473D+00 EUMP2 =    -0.33879913811714D+02
 CCSD(T)
 CCSD(T)= -0.33896922057D+02

 The electronic state is 1-A'.
 Alpha  occ. eigenvalues --   -1.35451  -1.34840  -0.71082  -0.70458  -0.55170
 Alpha  occ. eigenvalues --   -0.54553  -0.50018  -0.49408
 Alpha virt. eigenvalues --    0.20304   0.20932   0.30543   0.31157   0.80535
 Alpha virt. eigenvalues --    0.81135   0.83582   0.84199   0.86687   0.87370
 Alpha virt. eigenvalues --    1.17439   1.18045   1.21899   1.22515   2.57462

 Mulliken charges:
               1
     1  O   -0.740145
     2  H    0.368458
     3  H    0.371688
     4  O   -0.739696
     5  H    0.366689
     6  H    0.373007
 Sum of Mulliken charges =  -0.00000

 Dipole moment (field-independent basis, Debye):
    X=             -2.4359    Y=             -1.6498    Z=              0.0000  Tot=              2.9420
 Quadrupole moment (field-independent basis, Debye-Ang):
   XX=             -9.8493   YY=             11.0940   ZZ=            -14.9884
   XY=             -6.7370   XZ=              0.0000   YZ=              0.0000

 7\MP4DQ=-33.8912757\MP4SDQ=-33.8933042\CCSD=-33.8943597\CCSD(T)=-33.89
 Normal termination of Gaussian 16 at Sun Dec 10 06:52:52 2023.
