 Gaussian 16, Revision A.03,
 Gaussian 16:  ES64L-G16RevA.03 25-Dec-2016

 ------------------
 #p CCSD(T)/CEP-31G
 ------------------

 ------------
 H2O_H2O_4237
 ------------
 Symbolic Z-matrix:
 Charge =  0 Multiplicity = 1

                         Standard orientation:
 ---------------------------------------------------------------------
 Center     Atomic      Atomic             Coordinates (Angstroms)
 Number     Number       Type             X           Y           Z
 ---------------------------------------------------------------------
      1          8           0        0.040404   -3.032487    0.000000
      2          1           0       -0.759817   -3.602707    0.000000
      3          1           0        0.839324   -3.604531    0.000000
      4          8           0        0.040404    3.065851    0.000000
      5          1           0        0.203040    4.034901    0.000000
      6          1           0       -0.929013    2.905426    0.000000
 ---------------------------------------------------------------------

 SCF Done:  E(RHF) =  -33.6509695626     A.U. after   11 cycles
 E2 =    -0.2284294058D+00 EUMP2 =    -0.33879398968406D+02
 CCSD(T)
 CCSD(T)= -0.33896422865D+02

 The electronic state is 1-A'.
 Alpha  occ. eigenvalues --   -1.35192  -1.34923  -0.70822  -0.70545  -0.54881
 Alpha  occ. eigenvalues --   -0.54611  -0.49751  -0.49482
 Alpha virt. eigenvalues --    0.20534   0.20808   0.30768   0.31034   0.80802
 Alpha virt. eigenvalues --    0.81068   0.83905   0.84172   0.86986   0.87299
 Alpha virt. eigenvalues --    1.17674   1.17942   1.22139   1.22408   2.57711

 Mulliken charges:
               1
     1  O   -0.738221
     2  H    0.367958
     3  H    0.370263
     4  O   -0.737891
     5  H    0.367095
     6  H    0.370796
 Sum of Mulliken charges =  -0.00000

 Dipole moment (field-independent basis, Debye):
    X=             -1.8642    Y=             -0.7812    Z=              0.0000  Tot=              2.0213
 Quadrupole moment (field-independent basis, Debye-Ang):
   XX=             -9.0977   YY=             16.5347   ZZ=            -14.9874
   XY=             -4.8696   XZ=              0.0000   YZ=              0.0000

 P4DQ=-33.8907723\MP4SDQ=-33.8928023\CCSD=-33.893859\CCSD(T)=-33.896422
 Normal termination of Gaussian 16 at Sun Dec 10 06:56:22 2023.
