 Gaussian 16, Revision A.03,
 Gaussian 16:  ES64L-G16RevA.03 25-Dec-2016

 ------------------
 #p CCSD(T)/CEP-31G
 ------------------

 ------------
 H2O_H2O_3039
 ------------
 Symbolic Z-matrix:
 Charge =  0 Multiplicity = 1

                         Standard orientation:
 ---------------------------------------------------------------------
 Center     Atomic      Atomic             Coordinates (Angstroms)
 Number     Number       Type             X           Y           Z
 ---------------------------------------------------------------------
      1          8           0        0.045347   -2.388212    0.000000
      2          1           0       -0.755147   -2.958050    0.000000
      3          1           0        0.843993   -2.960637    0.000000
      4          8           0        0.045347    2.432755    0.000000
      5          1           0        0.080575    3.414725    0.000000
      6          1           0       -0.894974    2.147617    0.000000
 ---------------------------------------------------------------------

 SCF Done:  E(RHF) =  -33.6504845375     A.U. after   11 cycles
 E2 =    -0.2284864909D+00 EUMP2 =    -0.33878971028448D+02
 CCSD(T)
 CCSD(T)= -0.33896009428D+02

 The electronic state is 1-A'.
 Alpha  occ. eigenvalues --   -1.35090  -1.34503  -0.70719  -0.70111  -0.54752
 Alpha  occ. eigenvalues --   -0.54160  -0.49642  -0.49058
 Alpha virt. eigenvalues --    0.20574   0.21239   0.30841   0.31418   0.80906
 Alpha virt. eigenvalues --    0.81489   0.83435   0.85044   0.87118   0.88089
 Alpha virt. eigenvalues --    1.17757   1.18340   1.22221   1.22817   2.57803

 Mulliken charges:
               1
     1  O   -0.736620
     2  H    0.365850
     3  H    0.370778
     4  O   -0.735476
     5  H    0.363746
     6  H    0.371722
 Sum of Mulliken charges =  -0.00000

 Dipole moment (field-independent basis, Debye):
    X=             -2.0837    Y=             -1.0548    Z=              0.0000  Tot=              2.3355
 Quadrupole moment (field-independent basis, Debye-Ang):
   XX=             -9.3751   YY=              9.6423   ZZ=            -14.9873
   XY=             -4.3141   XZ=              0.0000   YZ=              0.0000

 MP4DQ=-33.8903541\MP4SDQ=-33.8923861\CCSD=-33.8934423\CCSD(T)=-33.8960
 Normal termination of Gaussian 16 at Sun Dec 10 06:34:38 2023.
