 Gaussian 16, Revision A.03,
 Gaussian 16:  ES64L-G16RevA.03 25-Dec-2016

 ------------------
 #p CCSD(T)/CEP-31G
 ------------------

 ------------
 H2O_H2O_1547
 ------------
 Symbolic Z-matrix:
 Charge =  0 Multiplicity = 1

                         Standard orientation:
 ---------------------------------------------------------------------
 Center     Atomic      Atomic             Coordinates (Angstroms)
 Number     Number       Type             X           Y           Z
 ---------------------------------------------------------------------
      1          8           0        0.056775   -1.560895    0.000000
      2          1           0       -0.744521   -2.129604    0.000000
      3          1           0        0.854613   -2.134445    0.000000
      4          8           0        0.056775    1.659869    0.000000
      5          1           0       -0.402479    2.528542    0.000000
      6          1           0       -0.616007    0.943719    0.000000
 ---------------------------------------------------------------------

 SCF Done:  E(RHF) =  -33.6533901113     A.U. after   11 cycles
 E2 =    -0.2289760918D+00 EUMP2 =    -0.33882366203077D+02
 CCSD(T)
 CCSD(T)= -0.33899385143D+02

 The electronic state is 1-A'.
 Alpha  occ. eigenvalues --   -1.36058  -1.32890  -0.71705  -0.68484  -0.55875
 Alpha  occ. eigenvalues --   -0.52646  -0.50653  -0.47487
 Alpha virt. eigenvalues --    0.19118   0.24256   0.29976   0.33931   0.76550
 Alpha virt. eigenvalues --    0.78698   0.84330   0.86396   0.88510   1.05783
 Alpha virt. eigenvalues --    1.16781   1.20425   1.21692   1.28557   2.53950

 Mulliken charges:
               1
     1  O   -0.748764
     2  H    0.365697
     3  H    0.384593
     4  O   -0.742311
     5  H    0.350192
     6  H    0.390593
 Sum of Mulliken charges =  -0.00000

 Dipole moment (field-independent basis, Debye):
    X=             -2.5530    Y=             -2.4837    Z=              0.0000  Tot=              3.5618
 Quadrupole moment (field-independent basis, Debye-Ang):
   XX=            -10.1028   YY=             -0.9507   ZZ=            -14.9956
   XY=             -4.3434   XZ=              0.0000   YZ=              0.0000

 MP4DQ=-33.8936416\MP4SDQ=-33.8957284\CCSD=-33.8967599\CCSD(T)=-33.8993
 Normal termination of Gaussian 16 at Sun Dec 10 06:53:39 2023.
