 Gaussian 16, Revision A.03,
 Gaussian 16:  ES64L-G16RevA.03 25-Dec-2016

 ------------------
 #p CCSD(T)/CEP-31G
 ------------------

 ------------
 H2O_H2O_3050
 ------------
 Symbolic Z-matrix:
 Charge =  0 Multiplicity = 1

                         Standard orientation:
 ---------------------------------------------------------------------
 Center     Atomic      Atomic             Coordinates (Angstroms)
 Number     Number       Type             X           Y           Z
 ---------------------------------------------------------------------
      1          8           0        0.000000   -0.000000    2.425700
      2          1           0        0.000000    0.799571    2.996832
      3          1           0       -0.000000   -0.799571    2.996832
      4          8           0        0.000000   -0.000000   -2.425700
      5          1           0       -0.000000   -0.799571   -2.996832
      6          1           0        0.000000    0.799571   -2.996832
 ---------------------------------------------------------------------

 SCF Done:  E(RHF) =  -33.6491369462     A.U. after   10 cycles
 E2 =    -0.2285305256D+00 EUMP2 =    -0.33877667471740D+02
 CCSD(T)
 CCSD(T)= -0.33894744279D+02

 The electronic state is 1-AG.
 Alpha  occ. eigenvalues --   -1.34578  -1.34577  -0.70202  -0.70200  -0.54195
 Alpha  occ. eigenvalues --   -0.54123  -0.49113  -0.49106
 Alpha virt. eigenvalues --    0.20987   0.21112   0.31263   0.31290   0.81391
 Alpha virt. eigenvalues --    0.81492   0.83772   0.85742   0.87606   0.87841
 Alpha virt. eigenvalues --    1.18213   1.18213   1.22677   1.22712   2.58292

 Mulliken charges:
               1
     1  O   -0.731848
     2  H    0.365924
     3  H    0.365924
     4  O   -0.731848
     5  H    0.365924
     6  H    0.365924
 Sum of Mulliken charges =  -0.00000

 Dipole moment (field-independent basis, Debye):
    X=             -0.0000    Y=              0.0000    Z=              0.0000  Tot=              0.0000
 Quadrupole moment (field-independent basis, Debye-Ang):
   XX=            -14.9853   YY=             -8.0614   ZZ=             13.6373
   XY=              0.0000   XZ=              0.0000   YZ=             -0.0000

 -33.8890787\MP4SDQ=-33.8911138\CCSD=-33.8921734\CCSD(T)=-33.8947443\RM
 Normal termination of Gaussian 16 at Sun Dec 10 06:34:50 2023.
