 Gaussian 16, Revision A.03,
 Gaussian 16:  ES64L-G16RevA.03 25-Dec-2016

 ------------------
 #p CCSD(T)/CEP-31G
 ------------------

 ------------
 H2O_H2O_2773
 ------------
 Symbolic Z-matrix:
 Charge =  0 Multiplicity = 1

                         Standard orientation:
 ---------------------------------------------------------------------
 Center     Atomic      Atomic             Coordinates (Angstroms)
 Number     Number       Type             X           Y           Z
 ---------------------------------------------------------------------
      1          8           0        0.057107   -2.208305    0.000000
      2          1           0       -0.743701   -2.777701    0.000000
      3          1           0        0.855437   -2.781170    0.000000
      4          8           0        0.057107    2.314813    0.000000
      5          1           0       -0.458695    3.151147    0.000000
      6          1           0       -0.566746    1.555659    0.000000
 ---------------------------------------------------------------------

 SCF Done:  E(RHF) =  -33.6526803000     A.U. after   11 cycles
 E2 =    -0.2284190733D+00 EUMP2 =    -0.33881099373358D+02
 CCSD(T)
 CCSD(T)= -0.33898074555D+02

 The electronic state is 1-A'.
 Alpha  occ. eigenvalues --   -1.35847  -1.34226  -0.71484  -0.69816  -0.55636
 Alpha  occ. eigenvalues --   -0.53970  -0.50431  -0.48809
 Alpha virt. eigenvalues --    0.19746   0.21822   0.30187   0.31907   0.80122
 Alpha virt. eigenvalues --    0.81712   0.82447   0.85172   0.86140   0.88453
 Alpha virt. eigenvalues --    1.17090   1.18822   1.21503   1.23656   2.57069

 Mulliken charges:
               1
     1  O   -0.744114
     2  H    0.368727
     3  H    0.375604
     4  O   -0.743449
     5  H    0.362921
     6  H    0.380311
 Sum of Mulliken charges =   0.00000

 Dipole moment (field-independent basis, Debye):
    X=             -2.6200    Y=             -2.5425    Z=              0.0000  Tot=              3.6508
 Quadrupole moment (field-independent basis, Debye-Ang):
   XX=            -10.1485   YY=              2.3876   ZZ=            -14.9911
   XY=             -6.1803   XZ=              0.0000   YZ=              0.0000

 8\MP4DQ=-33.8924306\MP4SDQ=-33.8944616\CCSD=-33.8955101\CCSD(T)=-33.89
 Normal termination of Gaussian 16 at Sun Dec 10 06:29:49 2023.
