 Gaussian 16, Revision A.03,
 Gaussian 16:  ES64L-G16RevA.03 25-Dec-2016

 ------------------
 #p CCSD(T)/CEP-31G
 ------------------

 -----------
 H2O_H2O_609
 -----------
 Symbolic Z-matrix:
 Charge =  0 Multiplicity = 1

                         Standard orientation:
 ---------------------------------------------------------------------
 Center     Atomic      Atomic             Coordinates (Angstroms)
 Number     Number       Type             X           Y           Z
 ---------------------------------------------------------------------
      1          8           0        0.031754   -1.112327    0.000000
      2          1           0       -0.769205   -1.681511    0.000000
      3          1           0        0.829932   -1.685404    0.000000
      4          8           0        0.031754    1.131423    0.000000
      5          1           0        0.381505    2.049672    0.000000
      6          1           0       -0.950292    1.164475    0.000000
 ---------------------------------------------------------------------

 SCF Done:  E(RHF) =  -33.6219844031     A.U. after   11 cycles
 E2 =    -0.2308863495D+00 EUMP2 =    -0.33852870752637D+02
 CCSD(T)
 CCSD(T)= -0.33870245330D+02

 The electronic state is 1-A'.
 Alpha  occ. eigenvalues --   -1.33274  -1.31448  -0.68767  -0.67342  -0.56052
 Alpha  occ. eigenvalues --   -0.48085  -0.46070  -0.45382
 Alpha virt. eigenvalues --    0.20982   0.25382   0.32360   0.33073   0.79495
 Alpha virt. eigenvalues --    0.81164   0.89703   0.95345   1.00636   1.13618
 Alpha virt. eigenvalues --    1.19527   1.22949   1.24607   1.29080   2.52616

 Mulliken charges:
               1
     1  O   -0.720762
     2  H    0.343814
     3  H    0.368640
     4  O   -0.687569
     5  H    0.347374
     6  H    0.348504
 Sum of Mulliken charges =   0.00000

 Dipole moment (field-independent basis, Debye):
    X=             -1.3056    Y=             -0.4564    Z=              0.0000  Tot=              1.3831
 Quadrupole moment (field-independent basis, Debye-Ang):
   XX=             -8.8693   YY=             -2.0782   ZZ=            -15.0019
   XY=             -1.0004   XZ=              0.0000   YZ=              0.0000

 MP4DQ=-33.8642041\MP4SDQ=-33.8663843\CCSD=-33.867445\CCSD(T)=-33.87024
 Normal termination of Gaussian 16 at Sun Dec 10 06:36:08 2023.
