 Gaussian 16, Revision A.03,
 Gaussian 16:  ES64L-G16RevA.03 25-Dec-2016

 ------------------
 #p CCSD(T)/CEP-31G
 ------------------

 ------------
 H2O_H2O_2079
 ------------
 Symbolic Z-matrix:
 Charge =  0 Multiplicity = 1

                         Standard orientation:
 ---------------------------------------------------------------------
 Center     Atomic      Atomic             Coordinates (Angstroms)
 Number     Number       Type             X           Y           Z
 ---------------------------------------------------------------------
      1          8           0        0.014783   -1.905056    0.000000
      2          1           0       -0.785169   -2.475654    0.000000
      3          1           0        0.813973   -2.476722    0.000000
      4          8           0        0.014783    1.908929    0.000000
      5          1           0        0.639796    2.667127    0.000000
      6          1           0       -0.905133    2.254269    0.000000
 ---------------------------------------------------------------------

 SCF Done:  E(RHF) =  -33.6466595207     A.U. after   11 cycles
 E2 =    -0.2287487927D+00 EUMP2 =    -0.33875408313431D+02
 CCSD(T)
 CCSD(T)= -0.33892563526D+02

 The electronic state is 1-A'.
 Alpha  occ. eigenvalues --   -1.34081  -1.33996  -0.69702  -0.69611  -0.53780
 Alpha  occ. eigenvalues --   -0.53142  -0.48599  -0.48474
 Alpha virt. eigenvalues --    0.21041   0.21866   0.31589   0.31784   0.78566
 Alpha virt. eigenvalues --    0.81242   0.82772   0.86520   0.89881   0.94812
 Alpha virt. eigenvalues --    1.18613   1.18702   1.23038   1.23326   2.58226

 Mulliken charges:
               1
     1  O   -0.723616
     2  H    0.360286
     3  H    0.363355
     4  O   -0.723181
     5  H    0.359734
     6  H    0.363421
 Sum of Mulliken charges =   0.00000

 Dipole moment (field-independent basis, Debye):
    X=             -0.6741    Y=             -0.0943    Z=              0.0000  Tot=              0.6806
 Quadrupole moment (field-independent basis, Debye-Ang):
   XX=             -8.2401   YY=              7.7668   ZZ=            -14.9840
   XY=             -0.8899   XZ=              0.0000   YZ=              0.0000

 \MP4DQ=-33.8868626\MP4SDQ=-33.8889152\CCSD=-33.8899742\CCSD(T)=-33.892
 Normal termination of Gaussian 16 at Sun Dec 10 07:04:49 2023.
