 Gaussian 16, Revision A.03,
 Gaussian 16:  ES64L-G16RevA.03 25-Dec-2016

 ------------------
 #p CCSD(T)/CEP-31G
 ------------------

 ------------
 H2O_H2O_4459
 ------------
 Symbolic Z-matrix:
 Charge =  0 Multiplicity = 1

                         Standard orientation:
 ---------------------------------------------------------------------
 Center     Atomic      Atomic             Coordinates (Angstroms)
 Number     Number       Type             X           Y           Z
 ---------------------------------------------------------------------
      1          8           0        0.031739   -3.159846    0.000000
      2          1           0       -0.768324   -3.730288    0.000000
      3          1           0        0.830817   -3.731667    0.000000
      4          8           0        0.031739    3.179042    0.000000
      5          1           0        0.380046    4.097839    0.000000
      6          1           0       -0.950358    3.210548    0.000000
 ---------------------------------------------------------------------

 SCF Done:  E(RHF) =  -33.6508691692     A.U. after   11 cycles
 E2 =    -0.2284305116D+00 EUMP2 =    -0.33879299680842D+02
 CCSD(T)
 CCSD(T)= -0.33896326499D+02

 The electronic state is 1-A'.
 Alpha  occ. eigenvalues --   -1.35126  -1.34983  -0.70755  -0.70608  -0.54810
 Alpha  occ. eigenvalues --   -0.54666  -0.49684  -0.49541
 Alpha virt. eigenvalues --    0.20594   0.20740   0.30828   0.30968   0.80870
 Alpha virt. eigenvalues --    0.81011   0.83983   0.84124   0.87061   0.87228
 Alpha virt. eigenvalues --    1.17736   1.17878   1.22202   1.22344   2.57776

 Mulliken charges:
               1
     1  O   -0.737850
     2  H    0.368106
     3  H    0.369744
     4  O   -0.737662
     5  H    0.367591
     6  H    0.370071
 Sum of Mulliken charges =   0.00000

 Dipole moment (field-independent basis, Debye):
    X=             -1.4650    Y=             -0.4489    Z=              0.0000  Tot=              1.5323
 Quadrupole moment (field-independent basis, Debye-Ang):
   XX=             -8.6913   YY=             19.3728   ZZ=            -14.9872
   XY=             -3.8540   XZ=              0.0000   YZ=              0.0000

 MP4DQ=-33.8906752\MP4SDQ=-33.8927053\CCSD=-33.8937624\CCSD(T)=-33.8963
 Normal termination of Gaussian 16 at Sun Dec 10 07:00:35 2023.
