 Gaussian 16, Revision A.03,
 Gaussian 16:  ES64L-G16RevA.03 25-Dec-2016

 ------------------
 #p CCSD(T)/CEP-31G
 ------------------

 ------------
 H2O_H2O_3969
 ------------
 Symbolic Z-matrix:
 Charge =  0 Multiplicity = 1

                         Standard orientation:
 ---------------------------------------------------------------------
 Center     Atomic      Atomic             Coordinates (Angstroms)
 Number     Number       Type             X           Y           Z
 ---------------------------------------------------------------------
      1          8           0        0.054144   -2.862352    0.000000
      2          1           0       -0.746342   -3.432200    0.000000
      3          1           0        0.852798   -3.434767    0.000000
      4          8           0        0.054144    2.939688    0.000000
      5          1           0       -0.228155    3.880864    0.000000
      6          1           0       -0.744611    2.367415    0.000000
 ---------------------------------------------------------------------

 SCF Done:  E(RHF) =  -33.6516196485     A.U. after   11 cycles
 E2 =    -0.2284021345D+00 EUMP2 =    -0.33880021783086D+02
 CCSD(T)
 CCSD(T)= -0.33897026739D+02

 The electronic state is 1-A'.
 Alpha  occ. eigenvalues --   -1.35502  -1.34812  -0.71134  -0.70428  -0.55228
 Alpha  occ. eigenvalues --   -0.54529  -0.50071  -0.49381
 Alpha virt. eigenvalues --    0.20259   0.20970   0.30499   0.31196   0.80482
 Alpha virt. eigenvalues --    0.81160   0.83516   0.84218   0.86627   0.87396
 Alpha virt. eigenvalues --    1.17393   1.18078   1.21852   1.22550   2.57413

 Mulliken charges:
               1
     1  O   -0.740548
     2  H    0.368568
     3  H    0.371980
     4  O   -0.740096
     5  H    0.366568
     6  H    0.373528
 Sum of Mulliken charges =  -0.00000

 Dipole moment (field-independent basis, Debye):
    X=             -2.4965    Y=             -1.8146    Z=              0.0000  Tot=              3.0863
 Quadrupole moment (field-independent basis, Debye-Ang):
   XX=             -9.9413   YY=              9.9173   ZZ=            -14.9886
   XY=             -6.9287   XZ=              0.0000   YZ=              0.0000

 P4DQ=-33.8913812\MP4SDQ=-33.8934095\CCSD=-33.8944647\CCSD(T)=-33.89702
 Normal termination of Gaussian 16 at Sun Dec 10 06:51:31 2023.
