 Gaussian 16, Revision A.03,
 Gaussian 16:  ES64L-G16RevA.03 25-Dec-2016

 ------------------
 #p CCSD(T)/CEP-31G
 ------------------

 ------------
 H2O_H2O_1114
 ------------
 Symbolic Z-matrix:
 Charge =  0 Multiplicity = 1

                         Standard orientation:
 ---------------------------------------------------------------------
 Center     Atomic      Atomic             Coordinates (Angstroms)
 Number     Number       Type             X           Y           Z
 ---------------------------------------------------------------------
      1          8           0        0.045374   -1.364484    0.000000
      2          1           0       -0.755801   -1.933364    0.000000
      3          1           0        0.843335   -1.937862    0.000000
      4          8           0        0.045374    1.408918    0.000000
      5          1           0        0.081775    2.390845    0.000000
      6          1           0       -0.895287    1.124903    0.000000
 ---------------------------------------------------------------------

 SCF Done:  E(RHF) =  -33.6437978741     A.U. after   11 cycles
 E2 =    -0.2296105179D+00 EUMP2 =    -0.33873408392026D+02
 CCSD(T)
 CCSD(T)= -0.33890718594D+02

 The electronic state is 1-A'.
 Alpha  occ. eigenvalues --   -1.34329  -1.32584  -0.69963  -0.68202  -0.54423
 Alpha  occ. eigenvalues --   -0.51186  -0.48884  -0.47017
 Alpha virt. eigenvalues --    0.20226   0.24264   0.31398   0.32840   0.78735
 Alpha virt. eigenvalues --    0.80362   0.84295   0.86904   0.93004   1.15883
 Alpha virt. eigenvalues --    1.18372   1.22445   1.22955   1.27337   2.60382

 Mulliken charges:
               1
     1  O   -0.728200
     2  H    0.352533
     3  H    0.373539
     4  O   -0.708208
     5  H    0.344120
     6  H    0.366215
 Sum of Mulliken charges =   0.00000

 Dipole moment (field-independent basis, Debye):
    X=             -1.9902    Y=             -1.1115    Z=              0.0000  Tot=              2.2795
 Quadrupole moment (field-independent basis, Debye-Ang):
   XX=             -9.4170   YY=              0.3135   ZZ=            -14.9895
   XY=             -2.2695   XZ=              0.0000   YZ=              0.0000

 MP4DQ=-33.8848692\MP4SDQ=-33.8869937\CCSD=-33.8880562\CCSD(T)=-33.8907
 Normal termination of Gaussian 16 at Sun Dec 10 06:45:35 2023.
