 Gaussian 16, Revision A.03,
 Gaussian 16:  ES64L-G16RevA.03 25-Dec-2016

 ------------------
 #p CCSD(T)/CEP-31G
 ------------------

 ------------
 H2O_H2O_3350
 ------------
 Symbolic Z-matrix:
 Charge =  0 Multiplicity = 1

                         Standard orientation:
 ---------------------------------------------------------------------
 Center     Atomic      Atomic             Coordinates (Angstroms)
 Number     Number       Type             X           Y           Z
 ---------------------------------------------------------------------
      1          8           0        0.000000   -0.000000    2.585251
      2          1           0        0.000000    0.799571    3.156383
      3          1           0       -0.000000   -0.799571    3.156383
      4          8           0        0.000000   -0.000000   -2.585251
      5          1           0       -0.000000   -0.799571   -3.156383
      6          1           0        0.000000    0.799571   -3.156383
 ---------------------------------------------------------------------

 SCF Done:  E(RHF) =  -33.6495941664     A.U. after   10 cycles
 E2 =    -0.2285013330D+00 EUMP2 =    -0.33878095499425D+02
 CCSD(T)
 CCSD(T)= -0.33895159016D+02

 The electronic state is 1-AG.
 Alpha  occ. eigenvalues --   -1.34695  -1.34695  -0.70320  -0.70319  -0.54320
 Alpha  occ. eigenvalues --   -0.54289  -0.49235  -0.49232
 Alpha virt. eigenvalues --    0.20928   0.20985   0.31179   0.31190   0.81301
 Alpha virt. eigenvalues --    0.81337   0.84158   0.84988   0.87536   0.87621
 Alpha virt. eigenvalues --    1.18114   1.18114   1.22585   1.22598   2.58175

 Mulliken charges:
               1
     1  O   -0.733410
     2  H    0.366705
     3  H    0.366705
     4  O   -0.733410
     5  H    0.366705
     6  H    0.366705
 Sum of Mulliken charges =   0.00000

 Dipole moment (field-independent basis, Debye):
    X=             -0.0000    Y=              0.0000    Z=              0.0000  Tot=              0.0000
 Quadrupole moment (field-independent basis, Debye-Ang):
   XX=            -14.9857   YY=             -8.0542   ZZ=             15.3589
   XY=              0.0000   XZ=              0.0000   YZ=             -0.0000

 -33.8894974\MP4SDQ=-33.8915311\CCSD=-33.8925902\CCSD(T)=-33.895159\RMS
 Normal termination of Gaussian 16 at Sun Dec 10 06:40:09 2023.
