 Gaussian 16, Revision A.03,
 Gaussian 16:  ES64L-G16RevA.03 25-Dec-2016

 ------------------
 #p CCSD(T)/CEP-31G
 ------------------

 ------------
 H2O_H2O_4136
 ------------
 Symbolic Z-matrix:
 Charge =  0 Multiplicity = 1

                         Standard orientation:
 ---------------------------------------------------------------------
 Center     Atomic      Atomic             Coordinates (Angstroms)
 Number     Number       Type             X           Y           Z
 ---------------------------------------------------------------------
      1          8           0        0.037673   -2.982073    0.000000
      2          1           0       -0.762516   -3.552340    0.000000
      3          1           0        0.836625   -3.554070    0.000000
      4          8           0        0.037673    3.010338    0.000000
      5          1           0        0.263283    3.966689    0.000000
      6          1           0       -0.940157    2.913601    0.000000
 ---------------------------------------------------------------------

 SCF Done:  E(RHF) =  -33.6508415468     A.U. after   11 cycles
 E2 =    -0.2284364095D+00 EUMP2 =    -0.33879277956239D+02
 CCSD(T)
 CCSD(T)= -0.33896305547D+02

 The electronic state is 1-A'.
 Alpha  occ. eigenvalues --   -1.35139  -1.34902  -0.70768  -0.70524  -0.54821
 Alpha  occ. eigenvalues --   -0.54583  -0.49696  -0.49460
 Alpha virt. eigenvalues --    0.20580   0.20821   0.30814   0.31046   0.80857
 Alpha virt. eigenvalues --    0.81091   0.83972   0.84208   0.87049   0.87327
 Alpha virt. eigenvalues --    1.17722   1.17957   1.22188   1.22424   2.57763

 Mulliken charges:
               1
     1  O   -0.737770
     2  H    0.367753
     3  H    0.370017
     4  O   -0.737446
     5  H    0.366958
     6  H    0.370487
 Sum of Mulliken charges =   0.00000

 Dipole moment (field-independent basis, Debye):
    X=             -1.7378    Y=             -0.6622    Z=              0.0000  Tot=              1.8597
 Quadrupole moment (field-independent basis, Debye-Ang):
   XX=             -8.9598   YY=             16.6421   ZZ=            -14.9872
   XY=             -4.3874   XZ=              0.0000   YZ=              0.0000

 4DQ=-33.890654\MP4SDQ=-33.8926843\CCSD=-33.8937412\CCSD(T)=-33.8963055
 Normal termination of Gaussian 16 at Sun Dec 10 06:54:36 2023.
