 Gaussian 16, Revision A.03,
 Gaussian 16:  ES64L-G16RevA.03 25-Dec-2016

 ------------------
 #p CCSD(T)/CEP-31G
 ------------------

 -----------
 H2O_H2O_700
 -----------
 Symbolic Z-matrix:
 Charge =  0 Multiplicity = 1

                         Standard orientation:
 ---------------------------------------------------------------------
 Center     Atomic      Atomic             Coordinates (Angstroms)
 Number     Number       Type             X           Y           Z
 ---------------------------------------------------------------------
      1          8           0        0.000000   -0.000000    1.175885
      2          1           0        0.000000    0.799571    1.747017
      3          1           0       -0.000000   -0.799571    1.747017
      4          8           0        0.000000   -0.000000   -1.175885
      5          1           0       -0.000000   -0.799571   -1.747017
      6          1           0        0.000000    0.799571   -1.747017
 ---------------------------------------------------------------------

 SCF Done:  E(RHF) =  -33.6236857988     A.U. after   10 cycles
 E2 =    -0.2304756349D+00 EUMP2 =    -0.33854161433752D+02
 CCSD(T)
 CCSD(T)= -0.33871551670D+02

 The electronic state is 1-AG.
 Alpha  occ. eigenvalues --   -1.32681  -1.31605  -0.68129  -0.67336  -0.55585
 Alpha  occ. eigenvalues --   -0.47464  -0.46099  -0.45483
 Alpha virt. eigenvalues --    0.21580   0.24628   0.32825   0.33108   0.78478
 Alpha virt. eigenvalues --    0.79714   0.89532   0.94106   1.03237   1.12081
 Alpha virt. eigenvalues --    1.19859   1.21898   1.23986   1.26008   2.53277

 Mulliken charges:
               1
     1  O   -0.697967
     2  H    0.348984
     3  H    0.348984
     4  O   -0.697967
     5  H    0.348984
     6  H    0.348984
 Sum of Mulliken charges =   0.00000

 Dipole moment (field-independent basis, Debye):
    X=             -0.0000    Y=              0.0000    Z=             -0.0000  Tot=              0.0000
 Quadrupole moment (field-independent basis, Debye-Ang):
   XX=            -15.0037   YY=             -8.2704   ZZ=             -0.9806
   XY=              0.0000   XZ=             -0.0000   YZ=             -0.0000

 3.8655712\MP4SDQ=-33.8676972\CCSD=-33.8687805\CCSD(T)=-33.8715517\RMSD
 Normal termination of Gaussian 16 at Sun Dec 10 06:37:49 2023.
