 Gaussian 16, Revision A.03,
 Gaussian 16:  ES64L-G16RevA.03 25-Dec-2016

 ------------------
 #p CCSD(T)/CEP-31G
 ------------------

 ------------
 H2O_H2O_2014
 ------------
 Symbolic Z-matrix:
 Charge =  0 Multiplicity = 1

                         Standard orientation:
 ---------------------------------------------------------------------
 Center     Atomic      Atomic             Coordinates (Angstroms)
 Number     Number       Type             X           Y           Z
 ---------------------------------------------------------------------
      1          8           0        0.045358   -1.843102    0.000000
      2          1           0       -0.755406   -2.412561    0.000000
      3          1           0        0.843733   -2.415905    0.000000
      4          8           0        0.045358    1.887602    0.000000
      5          1           0        0.081050    2.869556    0.000000
      6          1           0       -0.895098    1.602909    0.000000
 ---------------------------------------------------------------------

 SCF Done:  E(RHF) =  -33.6490818548     A.U. after   11 cycles
 E2 =    -0.2287348848D+00 EUMP2 =    -0.33877816739606D+02
 CCSD(T)
 CCSD(T)= -0.33894908864D+02

 The electronic state is 1-A'.
 Alpha  occ. eigenvalues --   -1.34817  -1.33807  -0.70447  -0.69384  -0.54437
 Alpha  occ. eigenvalues --   -0.53325  -0.49352  -0.48346
 Alpha virt. eigenvalues --    0.20318   0.22277   0.30998   0.32037   0.77259
 Alpha virt. eigenvalues --    0.80654   0.82739   0.85831   0.87990   0.98057
 Alpha virt. eigenvalues --    1.17962   1.19276   1.22384   1.23669   2.57575

 Mulliken charges:
               1
     1  O   -0.731907
     2  H    0.361174
     3  H    0.371050
     4  O   -0.728346
     5  H    0.356602
     6  H    0.371427
 Sum of Mulliken charges =   0.00000

 Dipole moment (field-independent basis, Debye):
    X=             -2.0621    Y=             -1.0842    Z=              0.0000  Tot=              2.3298
 Quadrupole moment (field-independent basis, Debye-Ang):
   XX=             -9.3847   YY=              4.8409   ZZ=            -14.9870
   XY=             -3.2121   XZ=              0.0000   YZ=              0.0000

 \MP4DQ=-33.8892195\MP4SDQ=-33.8912723\CCSD=-33.8923222\CCSD(T)=-33.894
 Normal termination of Gaussian 16 at Sun Dec 10 07:03:39 2023.
