 Gaussian 16, Revision A.03,
 Gaussian 16:  ES64L-G16RevA.03 25-Dec-2016

 ------------------
 #p CCSD(T)/CEP-31G
 ------------------

 -----------
 H2O_H2O_152
 -----------
 Symbolic Z-matrix:
 Charge =  0 Multiplicity = 1

                         Standard orientation:
 ---------------------------------------------------------------------
 Center     Atomic      Atomic             Coordinates (Angstroms)
 Number     Number       Type             X           Y           Z
 ---------------------------------------------------------------------
      1          8           0        0.007455   -0.882849    0.000000
      2          1           0       -0.792530   -1.453401    0.000000
      3          1           0        0.806611   -1.454562    0.000000
      4          8           0        0.007455    0.883816    0.000000
      5          1           0        0.726125    1.553904    0.000000
      6          1           0       -0.859488    1.346326    0.000000
 ---------------------------------------------------------------------

 SCF Done:  E(RHF) =  -33.5314568793     A.U. after   11 cycles
 E2 =    -0.2359951130D+00 EUMP2 =    -0.33767451992270D+02
 CCSD(T)
 CCSD(T)= -0.33784124474D+02

 The electronic state is 1-A'.
 Alpha  occ. eigenvalues --   -1.35100  -1.29325  -0.69399  -0.65744  -0.63391
 Alpha  occ. eigenvalues --   -0.50013  -0.42806  -0.34943
 Alpha virt. eigenvalues --    0.21358   0.27661   0.32197   0.33683   0.79269
 Alpha virt. eigenvalues --    0.82013   0.89551   0.89684   1.06459   1.20197
 Alpha virt. eigenvalues --    1.20908   1.24392   1.28144   1.34059   2.49318

 Mulliken charges:
               1
     1  O   -0.696499
     2  H    0.342032
     3  H    0.353822
     4  O   -0.693465
     5  H    0.348518
     6  H    0.345593
 Sum of Mulliken charges =  -0.00000

 Dipole moment (field-independent basis, Debye):
    X=             -0.2743    Y=             -0.0258    Z=              0.0000  Tot=              0.2755
 Quadrupole moment (field-independent basis, Debye-Ang):
   XX=             -8.4835   YY=             -6.3133   ZZ=            -15.0370
   XY=             -0.1592   XZ=              0.0000   YZ=              0.0000

 DQ=-33.7774831\MP4SDQ=-33.7800683\CCSD=-33.7808171\CCSD(T)=-33.7841245
 Normal termination of Gaussian 16 at Sun Dec 10 06:27:35 2023.
