 Gaussian 16, Revision A.03,
 Gaussian 16:  ES64L-G16RevA.03 25-Dec-2016

 ------------------
 #p CCSD(T)/CEP-31G
 ------------------

 -----------
 H2O_H2O_179
 -----------
 Symbolic Z-matrix:
 Charge =  0 Multiplicity = 1

                         Standard orientation:
 ---------------------------------------------------------------------
 Center     Atomic      Atomic             Coordinates (Angstroms)
 Number     Number       Type             X           Y           Z
 ---------------------------------------------------------------------
      1          8           0        0.014785   -0.894578    0.000000
      2          1           0       -0.785596   -1.464575    0.000000
      3          1           0        0.813544   -1.466845    0.000000
      4          8           0        0.014785    0.898428    0.000000
      5          1           0        0.640368    1.656157    0.000000
      6          1           0       -0.904872    1.244461    0.000000
 ---------------------------------------------------------------------

 SCF Done:  E(RHF) =  -33.5422753676     A.U. after   11 cycles
 E2 =    -0.2353260828D+00 EUMP2 =    -0.33777601450345D+02
 CCSD(T)
 CCSD(T)= -0.33794375916D+02

 The electronic state is 1-A'.
 Alpha  occ. eigenvalues --   -1.34885  -1.29466  -0.69416  -0.66096  -0.62321
 Alpha  occ. eigenvalues --   -0.49799  -0.42984  -0.36068
 Alpha virt. eigenvalues --    0.21292   0.27479   0.32229   0.33634   0.79882
 Alpha virt. eigenvalues --    0.81838   0.89781   0.90648   1.05284   1.20086
 Alpha virt. eigenvalues --    1.21924   1.23614   1.27923   1.33193   2.49241

 Mulliken charges:
               1
     1  O   -0.702833
     2  H    0.339137
     3  H    0.360969
     4  O   -0.690781
     5  H    0.349619
     6  H    0.343890
 Sum of Mulliken charges =   0.00000

 Dipole moment (field-independent basis, Debye):
    X=             -0.5467    Y=             -0.0999    Z=              0.0000  Tot=              0.5558
 Quadrupole moment (field-independent basis, Debye-Ang):
   XX=             -8.5516   YY=             -5.9890   ZZ=            -15.0311
   XY=             -0.3187   XZ=              0.0000   YZ=              0.0000

 MP4DQ=-33.7878081\MP4SDQ=-33.7903389\CCSD=-33.7911321\CCSD(T)=-33.7943
 Normal termination of Gaussian 16 at Sun Dec 10 06:28:05 2023.
