 Gaussian 16, Revision A.03,
 Gaussian 16:  ES64L-G16RevA.03 25-Dec-2016

 ------------------
 #p CCSD(T)/CEP-31G
 ------------------

 ------------
 H2O_H2O_1086
 ------------
 Symbolic Z-matrix:
 Charge =  0 Multiplicity = 1

                         Standard orientation:
 ---------------------------------------------------------------------
 Center     Atomic      Atomic             Coordinates (Angstroms)
 Number     Number       Type             X           Y           Z
 ---------------------------------------------------------------------
      1          8           0        0.037691   -1.360022    0.000000
      2          1           0       -0.763225   -1.929267    0.000000
      3          1           0        0.835912   -1.933039    0.000000
      4          8           0        0.037691    1.388191    0.000000
      5          1           0        0.264523    2.344253    0.000000
      6          1           0       -0.940261    1.292703    0.000000
 ---------------------------------------------------------------------

 SCF Done:  E(RHF) =  -33.6409866582     A.U. after   11 cycles
 E2 =    -0.2296144575D+00 EUMP2 =    -0.33870601115697D+02
 CCSD(T)
 CCSD(T)= -0.33887969367D+02

 The electronic state is 1-A'.
 Alpha  occ. eigenvalues --   -1.33771  -1.32635  -0.69389  -0.68242  -0.54278
 Alpha  occ. eigenvalues --   -0.50555  -0.48341  -0.46975
 Alpha virt. eigenvalues --    0.20641   0.23971   0.31843   0.32676   0.79039
 Alpha virt. eigenvalues --    0.81294   0.82712   0.87184   0.95349   1.15185
 Alpha virt. eigenvalues --    1.18795   1.22493   1.23537   1.26085   2.58638

 Mulliken charges:
               1
     1  O   -0.719809
     2  H    0.349849
     3  H    0.367787
     4  O   -0.703934
     5  H    0.345808
     6  H    0.360298
 Sum of Mulliken charges =   0.00000

 Dipole moment (field-independent basis, Debye):
    X=             -1.6509    Y=             -0.7002    Z=              0.0000  Tot=              1.7933
 Quadrupole moment (field-independent basis, Debye-Ang):
   XX=             -9.0466   YY=              0.8310   ZZ=            -14.9885
   XY=             -1.6875   XZ=              0.0000   YZ=              0.0000

 \MP4DQ=-33.8821117\MP4SDQ=-33.8842302\CCSD=-33.885305\CCSD(T)=-33.8879
 Normal termination of Gaussian 16 at Sun Dec 10 06:45:04 2023.
