 Gaussian 16, Revision A.03,
 Gaussian 16:  ES64L-G16RevA.03 25-Dec-2016

 ------------------
 #p CCSD(T)/CEP-31G
 ------------------

 ------------
 H2O_H2O_2989
 ------------
 Symbolic Z-matrix:
 Charge =  0 Multiplicity = 1

                         Standard orientation:
 ---------------------------------------------------------------------
 Center     Atomic      Atomic             Coordinates (Angstroms)
 Number     Number       Type             X           Y           Z
 ---------------------------------------------------------------------
      1          8           0        0.045347   -2.361621    0.000000
      2          1           0       -0.755157   -2.931444    0.000000
      3          1           0        0.843983   -2.934060    0.000000
      4          8           0        0.045347    2.406162    0.000000
      5          1           0        0.080593    3.388132    0.000000
      6          1           0       -0.894978    2.121042    0.000000
 ---------------------------------------------------------------------

 SCF Done:  E(RHF) =  -33.6504425490     A.U. after   11 cycles
 E2 =    -0.2284914890D+00 EUMP2 =    -0.33878934037991D+02
 CCSD(T)
 CCSD(T)= -0.33895973713D+02

 The electronic state is 1-A'.
 Alpha  occ. eigenvalues --   -1.35080  -1.34479  -0.70709  -0.70086  -0.54739
 Alpha  occ. eigenvalues --   -0.54133  -0.49631  -0.49033
 Alpha virt. eigenvalues --    0.20575   0.21267   0.30848   0.31439   0.80915
 Alpha virt. eigenvalues --    0.81515   0.83329   0.85128   0.87132   0.88197
 Alpha virt. eigenvalues --    1.17765   1.18363   1.22229   1.22841   2.57814

 Mulliken charges:
               1
     1  O   -0.736479
     2  H    0.365704
     3  H    0.370786
     4  O   -0.735275
     5  H    0.363532
     6  H    0.371732
 Sum of Mulliken charges =   0.00000

 Dipole moment (field-independent basis, Debye):
    X=             -2.0832    Y=             -1.0556    Z=              0.0000  Tot=              2.3353
 Quadrupole moment (field-independent basis, Debye-Ang):
   XX=             -9.3754   YY=              9.4103   ZZ=            -14.9873
   XY=             -4.2598   XZ=              0.0000   YZ=              0.0000

 P4DQ=-33.8903179\MP4SDQ=-33.8923502\CCSD=-33.8934063\CCSD(T)=-33.89597
 Normal termination of Gaussian 16 at Sun Dec 10 06:33:46 2023.
