 Gaussian 16, Revision A.03,
 Gaussian 16:  ES64L-G16RevA.03 25-Dec-2016

 ------------------
 #p CCSD(T)/CEP-31G
 ------------------

 ------------
 H2O_H2O_4093
 ------------
 Symbolic Z-matrix:
 Charge =  0 Multiplicity = 1

                         Standard orientation:
 ---------------------------------------------------------------------
 Center     Atomic      Atomic             Coordinates (Angstroms)
 Number     Number       Type             X           Y           Z
 ---------------------------------------------------------------------
      1          8           0        0.052820   -2.932624    0.000000
      2          1           0       -0.747625   -3.502532    0.000000
      3          1           0        0.851515   -3.504980    0.000000
      4          8           0        0.052820    3.002977    0.000000
      5          1           0       -0.167389    3.960586    0.000000
      6          1           0       -0.781616    2.484109    0.000000
 ---------------------------------------------------------------------

 SCF Done:  E(RHF) =  -33.6515143597     A.U. after   11 cycles
 E2 =    -0.2284055903D+00 EUMP2 =    -0.33879919949932D+02
 CCSD(T)
 CCSD(T)= -0.33896927985D+02

 The electronic state is 1-A'.
 Alpha  occ. eigenvalues --   -1.35453  -1.34854  -0.71085  -0.70472  -0.55173
 Alpha  occ. eigenvalues --   -0.54568  -0.50021  -0.49422
 Alpha virt. eigenvalues --    0.20302   0.20918   0.30541   0.31143   0.80532
 Alpha virt. eigenvalues --    0.81121   0.83579   0.84184   0.86684   0.87353
 Alpha virt. eigenvalues --    1.17437   1.18032   1.21897   1.22501   2.57460

 Mulliken charges:
               1
     1  O   -0.740169
     2  H    0.368510
     3  H    0.371659
     4  O   -0.739739
     5  H    0.366787
     6  H    0.372951
 Sum of Mulliken charges =   0.00000

 Dipole moment (field-independent basis, Debye):
    X=             -2.4362    Y=             -1.6492    Z=              0.0000  Tot=              2.9419
 Quadrupole moment (field-independent basis, Debye-Ang):
   XX=             -9.8494   YY=             11.2914   ZZ=            -14.9884
   XY=             -6.8011   XZ=              0.0000   YZ=              0.0000

 6\MP4DQ=-33.8912817\MP4SDQ=-33.8933102\CCSD=-33.8943657\CCSD(T)=-33.89
 Normal termination of Gaussian 16 at Sun Dec 10 06:53:49 2023.
