 Gaussian 16, Revision A.03,
 Gaussian 16:  ES64L-G16RevA.03 25-Dec-2016

 ------------------
 #p CCSD(T)/CEP-31G
 ------------------

 ------------
 H2O_H2O_1036
 ------------
 Symbolic Z-matrix:
 Charge =  0 Multiplicity = 1

                         Standard orientation:
 ---------------------------------------------------------------------
 Center     Atomic      Atomic             Coordinates (Angstroms)
 Number     Number       Type             X           Y           Z
 ---------------------------------------------------------------------
      1          8           0        0.037691   -1.333432    0.000000
      2          1           0       -0.763251   -1.902639    0.000000
      3          1           0        0.835886   -1.906486    0.000000
      4          8           0        0.037691    1.361597    0.000000
      5          1           0        0.264568    2.317648    0.000000
      6          1           0       -0.940265    1.266156    0.000000
 ---------------------------------------------------------------------

 SCF Done:  E(RHF) =  -33.6401190621     A.U. after   11 cycles
 E2 =    -0.2297021215D+00 EUMP2 =    -0.33869821183575D+02
 CCSD(T)
 CCSD(T)= -0.33887200896D+02

 The electronic state is 1-A'.
 Alpha  occ. eigenvalues --   -1.33724  -1.32538  -0.69340  -0.68159  -0.54360
 Alpha  occ. eigenvalues --   -0.50277  -0.48309  -0.46854
 Alpha virt. eigenvalues --    0.20653   0.24113   0.31882   0.32719   0.78970
 Alpha virt. eigenvalues --    0.82455   0.82588   0.87488   0.95875   1.15330
 Alpha virt. eigenvalues --    1.18850   1.22536   1.23592   1.26637   2.58271

 Mulliken charges:
               1
     1  O   -0.720080
     2  H    0.349281
     3  H    0.368079
     4  O   -0.702195
     5  H    0.345428
     6  H    0.359488
 Sum of Mulliken charges =   0.00000

 Dipole moment (field-independent basis, Debye):
    X=             -1.6439    Y=             -0.6988    Z=              0.0000  Tot=              1.7862
 Quadrupole moment (field-independent basis, Debye-Ang):
   XX=             -9.0513   YY=              0.5310   ZZ=            -14.9892
   XY=             -1.6449   XZ=              0.0000   YZ=              0.0000

 \MP4DQ=-33.8813293\MP4SDQ=-33.883452\CCSD=-33.8845283\CCSD(T)=-33.8872
 Normal termination of Gaussian 16 at Sun Dec 10 06:44:08 2023.
