 Gaussian 16, Revision A.03,
 Gaussian 16:  ES64L-G16RevA.03 25-Dec-2016

 ------------------
 #p CCSD(T)/CEP-31G
 ------------------

 -----------
 H2O_H2O_676
 -----------
 Symbolic Z-matrix:
 Charge =  0 Multiplicity = 1

                         Standard orientation:
 ---------------------------------------------------------------------
 Center     Atomic      Atomic             Coordinates (Angstroms)
 Number     Number       Type             X           Y           Z
 ---------------------------------------------------------------------
      1          8           0        0.003735   -1.162457    0.000000
      2          1           0       -0.795994   -1.733368    0.000000
      3          1           0        0.803148   -1.733810    0.000000
      4          8           0        0.003735    1.162699    0.000000
      5          1           0        0.764413    1.784692    0.000000
      6          1           0       -0.831334    1.680545    0.000000
 ---------------------------------------------------------------------

 SCF Done:  E(RHF) =  -33.6222879290     A.U. after   11 cycles
 E2 =    -0.2305730071D+00 EUMP2 =    -0.33852860936032D+02
 CCSD(T)
 CCSD(T)= -0.33870241213D+02

 The electronic state is 1-A'.
 Alpha  occ. eigenvalues --   -1.32686  -1.31527  -0.68119  -0.67267  -0.55759
 Alpha  occ. eigenvalues --   -0.47482  -0.45804  -0.45385
 Alpha virt. eigenvalues --    0.21578   0.24725   0.32842   0.33131   0.78432
 Alpha virt. eigenvalues --    0.79765   0.89633   0.94972   1.02622   1.12852
 Alpha virt. eigenvalues --    1.19891   1.22048   1.23923   1.26133   2.52852

 Mulliken charges:
               1
     1  O   -0.698115
     2  H    0.347528
     3  H    0.350484
     4  O   -0.697709
     5  H    0.349128
     6  H    0.348684
 Sum of Mulliken charges =  -0.00000

 Dipole moment (field-independent basis, Debye):
    X=             -0.1547    Y=             -0.0057    Z=              0.0000  Tot=              0.1548
 Quadrupole moment (field-independent basis, Debye-Ang):
   XX=             -8.2829   YY=             -1.1829   ZZ=            -15.0052
   XY=             -0.1026   XZ=              0.0000   YZ=              0.0000

 MP4DQ=-33.8642484\MP4SDQ=-33.8663799\CCSD=-33.8674599\CCSD(T)=-33.8702
 Normal termination of Gaussian 16 at Sun Dec 10 06:37:22 2023.
