 Gaussian 16, Revision A.03,
 Gaussian 16:  ES64L-G16RevA.03 25-Dec-2016

 ------------------
 #p CCSD(T)/CEP-31G
 ------------------

 ------------
 H2O_H2O_2979
 ------------
 Symbolic Z-matrix:
 Charge =  0 Multiplicity = 1

                         Standard orientation:
 ---------------------------------------------------------------------
 Center     Atomic      Atomic             Coordinates (Angstroms)
 Number     Number       Type             X           Y           Z
 ---------------------------------------------------------------------
      1          8           0        0.014783   -2.383707    0.000000
      2          1           0       -0.785092   -2.954412    0.000000
      3          1           0        0.814049   -2.955265    0.000000
      4          8           0        0.014783    2.387583    0.000000
      5          1           0        0.639695    3.145866    0.000000
      6          1           0       -0.905180    2.732801    0.000000
 ---------------------------------------------------------------------

 SCF Done:  E(RHF) =  -33.6491278424     A.U. after   11 cycles
 E2 =    -0.2285362455D+00 EUMP2 =    -0.33877664087873D+02
 CCSD(T)
 CCSD(T)= -0.33894741277D+02

 The electronic state is 1-A'.
 Alpha  occ. eigenvalues --   -1.34592  -1.34540  -0.70215  -0.70161  -0.54196
 Alpha  occ. eigenvalues --   -0.54097  -0.49124  -0.49072
 Alpha virt. eigenvalues --    0.20978   0.21143   0.31259   0.31315   0.81384
 Alpha virt. eigenvalues --    0.81522   0.83590   0.85882   0.87636   0.87928
 Alpha virt. eigenvalues --    1.18199   1.18249   1.22676   1.22737   2.58279

 Mulliken charges:
               1
     1  O   -0.731835
     2  H    0.365078
     3  H    0.366757
     4  O   -0.731670
     5  H    0.364750
     6  H    0.366919
 Sum of Mulliken charges =   0.00000

 Dipole moment (field-independent basis, Debye):
    X=             -0.6793    Y=             -0.0919    Z=              0.0000  Tot=              0.6855
 Quadrupole moment (field-independent basis, Debye-Ang):
   XX=             -8.2026   YY=             12.8999   ZZ=            -14.9854
   XY=             -1.1991   XZ=              0.0000   YZ=              0.0000

 \MP4DQ=-33.8890754\MP4SDQ=-33.8911108\CCSD=-33.8921701\CCSD(T)=-33.894
 Normal termination of Gaussian 16 at Sun Dec 10 06:33:35 2023.
