 Gaussian 16, Revision A.03,
 Gaussian 16:  ES64L-G16RevA.03 25-Dec-2016

 ------------------
 #p CCSD(T)/CEP-31G
 ------------------

 ------------
 H2O_H2O_1647
 ------------
 Symbolic Z-matrix:
 Charge =  0 Multiplicity = 1

                         Standard orientation:
 ---------------------------------------------------------------------
 Center     Atomic      Atomic             Coordinates (Angstroms)
 Number     Number       Type             X           Y           Z
 ---------------------------------------------------------------------
      1          8           0        0.056770   -1.614073    0.000000
      2          1           0       -0.744471   -2.182860    0.000000
      3          1           0        0.854664   -2.187545    0.000000
      4          8           0        0.056770    1.713057    0.000000
      5          1           0       -0.402568    2.581686    0.000000
      6          1           0       -0.615943    0.996842    0.000000
 ---------------------------------------------------------------------

 SCF Done:  E(RHF) =  -33.6533615106     A.U. after   11 cycles
 E2 =    -0.2288821421D+00 EUMP2 =    -0.33882243652724D+02
 CCSD(T)
 CCSD(T)= -0.33899255876D+02

 The electronic state is 1-A'.
 Alpha  occ. eigenvalues --   -1.36018  -1.33057  -0.71664  -0.68629  -0.55842
 Alpha  occ. eigenvalues --   -0.52809  -0.50611  -0.47653
 Alpha virt. eigenvalues --    0.19137   0.23954   0.29997   0.33655   0.76763
 Alpha virt. eigenvalues --    0.78981   0.83884   0.86253   0.87806   1.03462
 Alpha virt. eigenvalues --    1.16837   1.20396   1.21596   1.28127   2.54044

 Mulliken charges:
               1
     1  O   -0.747490
     2  H    0.365992
     3  H    0.382990
     4  O   -0.742829
     5  H    0.351911
     6  H    0.389426
 Sum of Mulliken charges =  -0.00000

 Dipole moment (field-independent basis, Debye):
    X=             -2.5617    Y=             -2.4703    Z=              0.0000  Tot=              3.5587
 Quadrupole moment (field-independent basis, Debye-Ang):
   XX=            -10.1048   YY=             -0.5956   ZZ=            -14.9948
   XY=             -4.4791   XZ=              0.0000   YZ=              0.0000

 4DQ=-33.8935303\MP4SDQ=-33.8956087\CCSD=-33.8966419\CCSD(T)=-33.899255
 Normal termination of Gaussian 16 at Sun Dec 10 06:55:30 2023.
