 Gaussian 16, Revision A.03,
 Gaussian 16:  ES64L-G16RevA.03 25-Dec-2016

 ------------------
 #p CCSD(T)/CEP-31G
 ------------------

 ------------
 H2O_H2O_1237
 ------------
 Symbolic Z-matrix:
 Charge =  0 Multiplicity = 1

                         Standard orientation:
 ---------------------------------------------------------------------
 Center     Atomic      Atomic             Coordinates (Angstroms)
 Number     Number       Type             X           Y           Z
 ---------------------------------------------------------------------
      1          8           0        0.040425   -1.437031    0.000000
      2          1           0       -0.760510   -2.006249    0.000000
      3          1           0        0.838628   -2.010074    0.000000
      4          8           0        0.040425    1.470294    0.000000
      5          1           0        0.204274    2.439139    0.000000
      6          1           0       -0.929192    1.311082    0.000000
 ---------------------------------------------------------------------

 SCF Done:  E(RHF) =  -33.6437286109     A.U. after   11 cycles
 E2 =    -0.2293988643D+00 EUMP2 =    -0.33873127475152D+02
 CCSD(T)
 CCSD(T)= -0.33890438767D+02

 The electronic state is 1-A'.
 Alpha  occ. eigenvalues --   -1.34070  -1.32873  -0.69697  -0.68457  -0.54176
 Alpha  occ. eigenvalues --   -0.51405  -0.48607  -0.47297
 Alpha virt. eigenvalues --    0.20478   0.23674   0.31600   0.32588   0.78315
 Alpha virt. eigenvalues --    0.79223   0.83560   0.86233   0.93199   1.14308
 Alpha virt. eigenvalues --    1.18519   1.22146   1.23210   1.25170   2.59754

 Mulliken charges:
               1
     1  O   -0.722203
     2  H    0.352242
     3  H    0.368965
     4  O   -0.709735
     5  H    0.346770
     6  H    0.363961
 Sum of Mulliken charges =   0.00000

 Dipole moment (field-independent basis, Debye):
    X=             -1.7894    Y=             -0.8302    Z=              0.0000  Tot=              1.9726
 Quadrupole moment (field-independent basis, Debye-Ang):
   XX=             -9.1599   YY=              1.4904   ZZ=            -14.9873
   XY=             -2.0062   XZ=              0.0000   YZ=              0.0000

 \MP4DQ=-33.88462\MP4SDQ=-33.8867289\CCSD=-33.8877946\CCSD(T)=-33.89043
 Normal termination of Gaussian 16 at Sun Dec 10 06:47:53 2023.
