 Gaussian 16, Revision A.03,
 Gaussian 16:  ES64L-G16RevA.03 25-Dec-2016

 ------------------
 #p CCSD(T)/CEP-31G
 ------------------

 -----------
 H2O_H2O_501
 -----------
 Symbolic Z-matrix:
 Charge =  0 Multiplicity = 1

                         Standard orientation:
 ---------------------------------------------------------------------
 Center     Atomic      Atomic             Coordinates (Angstroms)
 Number     Number       Type             X           Y           Z
 ---------------------------------------------------------------------
      1          8           0        0.003735   -1.069385    0.000000
      2          1           0       -0.796007   -1.640277    0.000000
      3          1           0        0.803135   -1.640758    0.000000
      4          8           0        0.003735    1.069628    0.000000
      5          1           0        0.764428    1.691603    0.000000
      6          1           0       -0.831322    1.587494    0.000000
 ---------------------------------------------------------------------

 SCF Done:  E(RHF) =  -33.6078491074     A.U. after   11 cycles
 E2 =    -0.2314875118D+00 EUMP2 =    -0.33839336619206D+02
 CCSD(T)
 CCSD(T)= -0.33856602387D+02

 The electronic state is 1-A'.
 Alpha  occ. eigenvalues --   -1.32834  -1.30886  -0.68106  -0.66721  -0.57371
 Alpha  occ. eigenvalues --   -0.47729  -0.44593  -0.43229
 Alpha virt. eigenvalues --    0.21596   0.25463   0.32912   0.33326   0.78150
 Alpha virt. eigenvalues --    0.80344   0.90155   0.98025   1.01156   1.18578
 Alpha virt. eigenvalues --    1.20129   1.22832   1.23374   1.27028   2.49925

 Mulliken charges:
               1
     1  O   -0.697796
     2  H    0.346992
     3  H    0.350657
     4  O   -0.697243
     5  H    0.349331
     6  H    0.348060
 Sum of Mulliken charges =   0.00000

 Dipole moment (field-independent basis, Debye):
    X=             -0.1490    Y=             -0.0057    Z=              0.0000  Tot=              0.1491
 Quadrupole moment (field-independent basis, Debye-Ang):
   XX=             -8.3177   YY=             -2.6572   ZZ=            -15.0181
   XY=             -0.0886   XZ=              0.0000   YZ=              0.0000

 4DQ=-33.8504963\MP4SDQ=-33.852687\CCSD=-33.8537264\CCSD(T)=-33.8566024
 Normal termination of Gaussian 16 at Sun Dec 10 06:34:07 2023.
