 Gaussian 16, Revision A.03,
 Gaussian 16:  ES64L-G16RevA.03 25-Dec-2016

 ------------------
 #p CCSD(T)/CEP-31G
 ------------------

 ------------
 H2O_H2O_4606
 ------------
 Symbolic Z-matrix:
 Charge =  0 Multiplicity = 1

                         Standard orientation:
 ---------------------------------------------------------------------
 Center     Atomic      Atomic             Coordinates (Angstroms)
 Number     Number       Type             X           Y           Z
 ---------------------------------------------------------------------
      1          8           0        0.021859   -3.245338    0.000000
      2          1           0       -0.778043   -3.816007    0.000000
      3          1           0        0.821099   -3.816933    0.000000
      4          8           0        0.021859    3.254007    0.000000
      5          1           0        0.542486    4.087346    0.000000
      6          1           0       -0.935283    3.476236    0.000000
 ---------------------------------------------------------------------

 SCF Done:  E(RHF) =  -33.6508052201     A.U. after   11 cycles
 E2 =    -0.2284312106D+00 EUMP2 =    -0.33879236430712D+02
 CCSD(T)
 CCSD(T)= -0.33896265107D+02

 The electronic state is 1-A'.
 Alpha  occ. eigenvalues --   -1.35081  -1.35020  -0.70709  -0.70646  -0.54761
 Alpha  occ. eigenvalues --   -0.54700  -0.49638  -0.49576
 Alpha virt. eigenvalues --    0.20636   0.20698   0.30869   0.30929   0.80916
 Alpha virt. eigenvalues --    0.80977   0.84036   0.84096   0.87111   0.87183
 Alpha virt. eigenvalues --    1.17779   1.17840   1.22244   1.22306   2.57820

 Mulliken charges:
               1
     1  O   -0.737614
     2  H    0.368278
     3  H    0.369336
     4  O   -0.737529
     5  H    0.367996
     6  H    0.369533
 Sum of Mulliken charges =   0.00000

 Dipole moment (field-independent basis, Debye):
    X=             -1.0092    Y=             -0.2026    Z=              0.0000  Tot=              1.0294
 Quadrupole moment (field-independent basis, Debye-Ang):
   XX=             -8.3468   YY=             21.4473   ZZ=            -14.9870
   XY=             -2.6599   XZ=              0.0000   YZ=              0.0000

 \MP4DQ=-33.8906133\MP4SDQ=-33.8926436\CCSD=-33.8937009\CCSD(T)=-33.896
 Normal termination of Gaussian 16 at Sun Dec 10 07:04:33 2023.
