 Gaussian 16, Revision A.03,
 Gaussian 16:  ES64L-G16RevA.03 25-Dec-2016

 ------------------
 #p CCSD(T)/CEP-31G
 ------------------

 -----------
 H2O_H2O_565
 -----------
 Symbolic Z-matrix:
 Charge =  0 Multiplicity = 1

                         Standard orientation:
 ---------------------------------------------------------------------
 Center     Atomic      Atomic             Coordinates (Angstroms)
 Number     Number       Type             X           Y           Z
 ---------------------------------------------------------------------
      1          8           0        0.047582   -1.068726    0.000000
      2          1           0       -0.754117   -1.636866    0.000000
      3          1           0        0.845014   -1.642842    0.000000
      4          8           0        0.047582    1.119137    0.000000
      5          1           0        0.020592    2.101368    0.000000
      6          1           0       -0.872807    0.775058    0.000000
 ---------------------------------------------------------------------

 SCF Done:  E(RHF) =  -33.6235597160     A.U. after   11 cycles
 E2 =    -0.2312781494D+00 EUMP2 =    -0.33854837865353D+02
 CCSD(T)
 CCSD(T)= -0.33872133453D+02

 The electronic state is 1-A'.
 Alpha  occ. eigenvalues --   -1.34625  -1.31196  -0.70284  -0.67812  -0.55297
 Alpha  occ. eigenvalues --   -0.49317  -0.47631  -0.45381
 Alpha virt. eigenvalues --    0.20130   0.26410   0.31330   0.33547   0.78770
 Alpha virt. eigenvalues --    0.84395   0.89641   0.95929   0.98365   1.14295
 Alpha virt. eigenvalues --    1.18901   1.22540   1.24579   1.31678   2.57312

 Mulliken charges:
               1
     1  O   -0.753060
     2  H    0.350181
     3  H    0.386879
     4  O   -0.678479
     5  H    0.335357
     6  H    0.359122
 Sum of Mulliken charges =   0.00000

 Dipole moment (field-independent basis, Debye):
    X=             -1.9460    Y=             -1.2479    Z=              0.0000  Tot=              2.3118
 Quadrupole moment (field-independent basis, Debye-Ang):
   XX=             -9.5698   YY=             -3.2433   ZZ=            -14.9965
   XY=             -1.8493   XZ=              0.0000   YZ=              0.0000

 \MP4DQ=-33.866036\MP4SDQ=-33.8682725\CCSD=-33.8692872\CCSD(T)=-33.8721
 Normal termination of Gaussian 16 at Sun Dec 10 06:35:18 2023.
