 Gaussian 16, Revision A.03,
 Gaussian 16:  ES64L-G16RevA.03 25-Dec-2016

 ------------------
 #p CCSD(T)/CEP-31G
 ------------------

 -----------
 H2O_H2O_937
 -----------
 Symbolic Z-matrix:
 Charge =  0 Multiplicity = 1

                         Standard orientation:
 ---------------------------------------------------------------------
 Center     Atomic      Atomic             Coordinates (Angstroms)
 Number     Number       Type             X           Y           Z
 ---------------------------------------------------------------------
      1          8           0        0.040430   -1.277493    0.000000
      2          1           0       -0.760672   -1.846475    0.000000
      3          1           0        0.838464   -1.850771    0.000000
      4          8           0        0.040430    1.310732    0.000000
      5          1           0        0.204564    2.279528    0.000000
      6          1           0       -0.929234    1.151805    0.000000
 ---------------------------------------------------------------------

 SCF Done:  E(RHF) =  -33.6388514960     A.U. after   11 cycles
 E2 =    -0.2299210491D+00 EUMP2 =    -0.33868772545139D+02
 CCSD(T)
 CCSD(T)= -0.33886155962D+02

 The electronic state is 1-A'.
 Alpha  occ. eigenvalues --   -1.33816  -1.32308  -0.69433  -0.67978  -0.54585
 Alpha  occ. eigenvalues --   -0.49864  -0.48426  -0.46603
 Alpha virt. eigenvalues --    0.20538   0.24532   0.31816   0.32854   0.78767
 Alpha virt. eigenvalues --    0.82744   0.85183   0.88037   0.96128   1.15705
 Alpha virt. eigenvalues --    1.18853   1.22487   1.23539   1.28318   2.57866

 Mulliken charges:
               1
     1  O   -0.724446
     2  H    0.348991
     3  H    0.371022
     4  O   -0.698914
     5  H    0.343940
     6  H    0.359407
 Sum of Mulliken charges =   0.00000

 Dipole moment (field-independent basis, Debye):
    X=             -1.7460    Y=             -0.8230    Z=              0.0000  Tot=              1.9303
 Quadrupole moment (field-independent basis, Debye-Ang):
   XX=             -9.1842   YY=             -0.2576   ZZ=            -14.9910
   XY=             -1.7314   XZ=              0.0000   YZ=              0.0000

 P4DQ=-33.8802528\MP4SDQ=-33.8823894\CCSD=-33.8834632\CCSD(T)=-33.88615
 Normal termination of Gaussian 16 at Sun Dec 10 06:42:17 2023.
