 Gaussian 16, Revision A.03,
 Gaussian 16:  ES64L-G16RevA.03 25-Dec-2016

 ------------------
 #p CCSD(T)/CEP-31G
 ------------------

 ------------
 H2O_H2O_1684
 ------------
 Symbolic Z-matrix:
 Charge =  0 Multiplicity = 1

                         Standard orientation:
 ---------------------------------------------------------------------
 Center     Atomic      Atomic             Coordinates (Angstroms)
 Number     Number       Type             X           Y           Z
 ---------------------------------------------------------------------
      1          8           0        0.031746   -1.684024    0.000000
      2          1           0       -0.768745   -2.253866    0.000000
      3          1           0        0.830395   -2.256445    0.000000
      4          8           0        0.031746    1.703173    0.000000
      5          1           0        0.380743    2.621707    0.000000
      6          1           0       -0.950326    1.735417    0.000000
 ---------------------------------------------------------------------

 SCF Done:  E(RHF) =  -33.6457612007     A.U. after   11 cycles
 E2 =    -0.2289544105D+00 EUMP2 =    -0.33874715611176D+02
 CCSD(T)
 CCSD(T)= -0.33891924512D+02

 The electronic state is 1-A'.
 Alpha  occ. eigenvalues --   -1.34084  -1.33562  -0.69707  -0.69153  -0.53862
 Alpha  occ. eigenvalues --   -0.52541  -0.48595  -0.48034
 Alpha virt. eigenvalues --    0.20766   0.22521   0.31620   0.32089   0.75869
 Alpha virt. eigenvalues --    0.80481   0.84004   0.84918   0.91048   1.04409
 Alpha virt. eigenvalues --    1.18571   1.19400   1.23159   1.23662   2.58415

 Mulliken charges:
               1
     1  O   -0.721635
     2  H    0.356397
     3  H    0.365373
     4  O   -0.718320
     5  H    0.353700
     6  H    0.364485
 Sum of Mulliken charges =  -0.00000

 Dipole moment (field-independent basis, Debye):
    X=             -1.4343    Y=             -0.4740    Z=              0.0000  Tot=              1.5106
 Quadrupole moment (field-independent basis, Debye-Ang):
   XX=             -8.7520   YY=              4.6661   ZZ=            -14.9847
   XY=             -1.7678   XZ=              0.0000   YZ=              0.0000

 P4DQ=-33.8861855\MP4SDQ=-33.8882594\CCSD=-33.8893169\CCSD(T)=-33.89192
 Normal termination of Gaussian 16 at Sun Dec 10 06:56:11 2023.
