 Gaussian 16, Revision A.03,
 Gaussian 16:  ES64L-G16RevA.03 25-Dec-2016

 ------------------
 #p CCSD(T)/CEP-31G
 ------------------

 ------------
 H2O_H2O_2393
 ------------
 Symbolic Z-matrix:
 Charge =  0 Multiplicity = 1

                         Standard orientation:
 ---------------------------------------------------------------------
 Center     Atomic      Atomic             Coordinates (Angstroms)
 Number     Number       Type             X           Y           Z
 ---------------------------------------------------------------------
      1          8           0        0.052843   -2.028540    0.000000
      2          1           0       -0.747983   -2.597910    0.000000
      3          1           0        0.851155   -2.601430    0.000000
      4          8           0        0.052843    2.098821    0.000000
      5          1           0       -0.166723    3.056577    0.000000
      6          1           0       -0.781940    1.580512    0.000000
 ---------------------------------------------------------------------

 SCF Done:  E(RHF) =  -33.6511164079     A.U. after   11 cycles
 E2 =    -0.2285487564D+00 EUMP2 =    -0.33879665164301D+02
 CCSD(T)
 CCSD(T)= -0.33896688550D+02

 The electronic state is 1-A'.
 Alpha  occ. eigenvalues --   -1.35349  -1.34049  -0.70983  -0.69629  -0.55046
 Alpha  occ. eigenvalues --   -0.53723  -0.49910  -0.48614
 Alpha virt. eigenvalues --    0.20053   0.21995   0.30570   0.31952   0.80470
 Alpha virt. eigenvalues --    0.80547   0.82010   0.85685   0.86785   0.91749
 Alpha virt. eigenvalues --    1.17519   1.19001   1.21907   1.23635   2.57390

 Mulliken charges:
               1
     1  O   -0.738769
     2  H    0.365186
     3  H    0.373822
     4  O   -0.736457
     5  H    0.360048
     6  H    0.376170
 Sum of Mulliken charges =  -0.00000

 Dipole moment (field-independent basis, Debye):
    X=             -2.4162    Y=             -1.6906    Z=              0.0000  Tot=              2.9489
 Quadrupole moment (field-independent basis, Debye-Ang):
   XX=             -9.8444   YY=              4.5248   ZZ=            -14.9890
   XY=             -4.6370   XZ=              0.0000   YZ=              0.0000

 4\MP4DQ=-33.891029\MP4SDQ=-33.8930666\CCSD=-33.8941162\CCSD(T)=-33.896
 Normal termination of Gaussian 16 at Sun Dec 10 07:10:28 2023.
