 Gaussian 16, Revision A.03,
 Gaussian 16:  ES64L-G16RevA.03 25-Dec-2016

 ------------------
 #p CCSD(T)/CEP-31G
 ------------------

 ------------
 H2O_H2O_2409
 ------------
 Symbolic Z-matrix:
 Charge =  0 Multiplicity = 1

                         Standard orientation:
 ---------------------------------------------------------------------
 Center     Atomic      Atomic             Coordinates (Angstroms)
 Number     Number       Type             X           Y           Z
 ---------------------------------------------------------------------
      1          8           0        0.031743   -2.069596    0.000000
      2          1           0       -0.768578   -2.639677    0.000000
      3          1           0        0.830563   -2.641778    0.000000
      4          8           0        0.031743    2.088763    0.000000
      5          1           0        0.380465    3.007403    0.000000
      6          1           0       -0.950339    2.120714    0.000000
 ---------------------------------------------------------------------

 SCF Done:  E(RHF) =  -33.6485630441     A.U. after   11 cycles
 E2 =    -0.2286251461D+00 EUMP2 =    -0.33877188190202D+02
 CCSD(T)
 CCSD(T)= -0.33894283695D+02

 The electronic state is 1-A'.
 Alpha  occ. eigenvalues --   -1.34542  -1.34199  -0.70166  -0.69806  -0.54133
 Alpha  occ. eigenvalues --   -0.53692  -0.49067  -0.48725
 Alpha virt. eigenvalues --    0.20853   0.21584   0.31286   0.31606   0.80773
 Alpha virt. eigenvalues --    0.81265   0.82034   0.86429   0.88026   0.91408
 Alpha virt. eigenvalues --    1.18226   1.18574   1.22717   1.23065   2.58214

 Mulliken charges:
               1
     1  O   -0.730005
     2  H    0.362422
     3  H    0.367630
     4  O   -0.728710
     5  H    0.360858
     6  H    0.367806
 Sum of Mulliken charges =   0.00000

 Dipole moment (field-independent basis, Debye):
    X=             -1.4518    Y=             -0.4603    Z=              0.0000  Tot=              1.5230
 Quadrupole moment (field-independent basis, Debye-Ang):
   XX=             -8.7182   YY=              8.5988   ZZ=            -14.9854
   XY=             -2.2964   XZ=              0.0000   YZ=              0.0000

 MP4DQ=-33.8886079\MP4SDQ=-33.890649\CCSD=-33.8917062\CCSD(T)=-33.89428
 Normal termination of Gaussian 16 at Sun Dec 10 07:10:45 2023.
