 Gaussian 16, Revision A.03,
 Gaussian 16:  ES64L-G16RevA.03 25-Dec-2016

 ------------------
 #p CCSD(T)/CEP-31G
 ------------------

 -----------
 H2O_H2O_972
 -----------
 Symbolic Z-matrix:
 Charge =  0 Multiplicity = 1

                         Standard orientation:
 ---------------------------------------------------------------------
 Center     Atomic      Atomic             Coordinates (Angstroms)
 Number     Number       Type             X           Y           Z
 ---------------------------------------------------------------------
      1          8           0        0.056810   -1.255131    0.000000
      2          1           0       -0.744890   -1.823272    0.000000
      3          1           0        0.854241   -1.829247    0.000000
      4          8           0        0.056810    1.354024    0.000000
      5          1           0       -0.401827    2.223023    0.000000
      6          1           0       -0.616480    0.638352    0.000000
 ---------------------------------------------------------------------

 SCF Done:  E(RHF) =  -33.6496158537     A.U. after   11 cycles
 E2 =    -0.2298731424D+00 EUMP2 =    -0.33879488996103D+02
 CCSD(T)
 CCSD(T)= -0.33896442983D+02

 The electronic state is 1-A'.
 Alpha  occ. eigenvalues --   -1.36474  -1.31599  -0.72142  -0.68026  -0.55570
 Alpha  occ. eigenvalues --   -0.51428  -0.51073  -0.46166
 Alpha virt. eigenvalues --    0.19039   0.26235   0.29733   0.35715   0.77033
 Alpha virt. eigenvalues --    0.80557   0.87661   0.88051   0.95671   1.12922
 Alpha virt. eigenvalues --    1.18723   1.19918   1.23260   1.30611   2.62263

 Mulliken charges:
               1
     1  O   -0.765386
     2  H    0.365170
     3  H    0.400956
     4  O   -0.728918
     5  H    0.336099
     6  H    0.392079
 Sum of Mulliken charges =   0.00000

 Dipole moment (field-independent basis, Debye):
    X=             -2.4564    Y=             -2.5766    Z=              0.0000  Tot=              3.5599
 Quadrupole moment (field-independent basis, Debye-Ang):
   XX=            -10.0912   YY=             -3.1844   ZZ=            -15.0034
   XY=             -3.5481   XZ=              0.0000   YZ=              0.0000

 4DQ=-33.8905316\MP4SDQ=-33.8926945\CCSD=-33.8936924\CCSD(T)=-33.896443
 Normal termination of Gaussian 16 at Sun Dec 10 06:42:56 2023.
