 Gaussian 16, Revision A.03,
 Gaussian 16:  ES64L-G16RevA.03 25-Dec-2016

 ------------------
 #p CCSD(T)/CEP-31G
 ------------------

 ------------
 H2O_H2O_1049
 ------------
 Symbolic Z-matrix:
 Charge =  0 Multiplicity = 1

                         Standard orientation:
 ---------------------------------------------------------------------
 Center     Atomic      Atomic             Coordinates (Angstroms)
 Number     Number       Type             X           Y           Z
 ---------------------------------------------------------------------
      1          8           0        0.057322   -1.286920    0.000000
      2          1           0       -0.744333   -1.855123    0.000000
      3          1           0        0.854798   -1.860973    0.000000
      4          8           0        0.057322    1.400727    0.000000
      5          1           0       -0.510881    2.202383    0.000000
      6          1           0       -0.516732    0.603251    0.000000
 ---------------------------------------------------------------------

 SCF Done:  E(RHF) =  -33.6533831995     A.U. after   11 cycles
 E2 =    -0.2296147858D+00 EUMP2 =    -0.33882997985235D+02
 CCSD(T)
 CCSD(T)= -0.33899824981D+02

 The electronic state is 1-A'.
 Alpha  occ. eigenvalues --   -1.37040  -1.31547  -0.72689  -0.68070  -0.56361
 Alpha  occ. eigenvalues --   -0.51663  -0.51414  -0.46143
 Alpha virt. eigenvalues --    0.18744   0.26317   0.29302   0.37066   0.76737
 Alpha virt. eigenvalues --    0.78717   0.87227   0.87497   0.96079   1.10572
 Alpha virt. eigenvalues --    1.17461   1.19938   1.23128   1.31419   2.58089

 Mulliken charges:
               1
     1  O   -0.772939
     2  H    0.370326
     3  H    0.405779
     4  O   -0.742649
     5  H    0.338126
     6  H    0.401357
 Sum of Mulliken charges =  -0.00000

 Dipole moment (field-independent basis, Debye):
    X=             -2.4977    Y=             -2.9874    Z=              0.0000  Tot=              3.8939
 Quadrupole moment (field-independent basis, Debye-Ang):
   XX=            -10.1211   YY=             -3.8135   ZZ=            -15.0069
   XY=             -3.9472   XZ=              0.0000   YZ=              0.0000

 \MP4DQ=-33.8939418\MP4SDQ=-33.8960902\CCSD=-33.8970752\CCSD(T)=-33.899
 Normal termination of Gaussian 16 at Sun Dec 10 06:44:22 2023.
