 Gaussian 16, Revision A.03,
 Gaussian 16:  ES64L-G16RevA.03 25-Dec-2016

 ------------------
 #p CCSD(T)/CEP-31G
 ------------------

 ------------
 H2O_H2O_4612
 ------------
 Symbolic Z-matrix:
 Charge =  0 Multiplicity = 1

                         Standard orientation:
 ---------------------------------------------------------------------
 Center     Atomic      Atomic             Coordinates (Angstroms)
 Number     Number       Type             X           Y           Z
 ---------------------------------------------------------------------
      1          8           0        0.040403   -3.231923    0.000000
      2          1           0       -0.759779   -3.802199    0.000000
      3          1           0        0.839362   -3.803911    0.000000
      4          8           0        0.040403    3.265293    0.000000
      5          1           0        0.202971    4.234353    0.000000
      6          1           0       -0.929003    3.104800    0.000000
 ---------------------------------------------------------------------

 SCF Done:  E(RHF) =  -33.6511162149     A.U. after   11 cycles
 E2 =    -0.2284183160D+00 EUMP2 =    -0.33879534530874D+02
 CCSD(T)
 CCSD(T)= -0.33896554232D+02

 The electronic state is 1-A'.
 Alpha  occ. eigenvalues --   -1.35242  -1.35005  -0.70871  -0.70629  -0.54939
 Alpha  occ. eigenvalues --   -0.54701  -0.49803  -0.49567
 Alpha virt. eigenvalues --    0.20493   0.20733   0.30728   0.30962   0.80750
 Alpha virt. eigenvalues --    0.80984   0.83840   0.84073   0.86927   0.87196
 Alpha virt. eigenvalues --    1.17632   1.17866   1.22095   1.22331   2.57665

 Mulliken charges:
               1
     1  O   -0.738729
     2  H    0.368400
     3  H    0.370329
     4  O   -0.738484
     5  H    0.367672
     6  H    0.370812
 Sum of Mulliken charges =   0.00000

 Dipole moment (field-independent basis, Debye):
    X=             -1.8653    Y=             -0.7799    Z=              0.0000  Tot=              2.0218
 Quadrupole moment (field-independent basis, Debye-Ang):
   XX=             -9.0967   YY=             18.3566   ZZ=            -14.9875
   XY=             -5.2374   XZ=              0.0000   YZ=              0.0000

 MP4DQ=-33.8909049\MP4SDQ=-33.8929344\CCSD=-33.893991\CCSD(T)=-33.89655
 Normal termination of Gaussian 16 at Sun Dec 10 07:04:40 2023.
