 Gaussian 16, Revision A.03,
 Gaussian 16:  ES64L-G16RevA.03 25-Dec-2016

 ------------------
 #p CCSD(T)/CEP-31G
 ------------------

 ------------
 H2O_H2O_3269
 ------------
 Symbolic Z-matrix:
 Charge =  0 Multiplicity = 1

                         Standard orientation:
 ---------------------------------------------------------------------
 Center     Atomic      Atomic             Coordinates (Angstroms)
 Number     Number       Type             X           Y           Z
 ---------------------------------------------------------------------
      1          8           0        0.054154   -2.490080    0.000000
      2          1           0       -0.746468   -3.059739    0.000000
      3          1           0        0.852672   -3.062683    0.000000
      4          8           0        0.054154    2.567390    0.000000
      5          1           0       -0.227923    3.508634    0.000000
      6          1           0       -0.744737    1.995306    0.000000
 ---------------------------------------------------------------------

 SCF Done:  E(RHF) =  -33.6515561425     A.U. after   11 cycles
 E2 =    -0.2284259867D+00 EUMP2 =    -0.33879982129164D+02
 CCSD(T)
 CCSD(T)= -0.33896989133D+02

 The electronic state is 1-A'.
 Alpha  occ. eigenvalues --   -1.35479  -1.34556  -0.71111  -0.70162  -0.55202
 Alpha  occ. eigenvalues --   -0.54265  -0.50046  -0.49125
 Alpha virt. eigenvalues --    0.20250   0.21254   0.30515   0.31449   0.80508
 Alpha virt. eigenvalues --    0.81410   0.83390   0.84595   0.86650   0.87762
 Alpha virt. eigenvalues --    1.17413   1.18334   1.21868   1.22824   2.57427

 Mulliken charges:
               1
     1  O   -0.740358
     2  H    0.367678
     3  H    0.372691
     4  O   -0.739479
     5  H    0.364666
     6  H    0.374802
 Sum of Mulliken charges =  -0.00000

 Dipole moment (field-independent basis, Debye):
    X=             -2.4914    Y=             -1.8265    Z=              0.0000  Tot=              3.0892
 Quadrupole moment (field-independent basis, Debye-Ang):
   XX=             -9.9392   YY=              7.2657   ZZ=            -14.9888
   XY=             -6.0106   XZ=              0.0000   YZ=              0.0000

 \MP4DQ=-33.8913424\MP4SDQ=-33.8933714\CCSD=-33.8944257\CCSD(T)=-33.896
 Normal termination of Gaussian 16 at Sun Dec 10 06:38:42 2023.
