 Gaussian 16, Revision A.03,
 Gaussian 16:  ES64L-G16RevA.03 25-Dec-2016

 ------------------
 #p CCSD(T)/CEP-31G
 ------------------

 ------------
 H2O_H2O_2836
 ------------
 Symbolic Z-matrix:
 Charge =  0 Multiplicity = 1

                         Standard orientation:
 ---------------------------------------------------------------------
 Center     Atomic      Atomic             Coordinates (Angstroms)
 Number     Number       Type             X           Y           Z
 ---------------------------------------------------------------------
      1          8           0        0.037677   -2.290699    0.000000
      2          1           0       -0.762696   -2.860705    0.000000
      3          1           0        0.836444   -2.862955    0.000000
      4          8           0        0.037677    2.318939    0.000000
      5          1           0        0.263598    3.275216    0.000000
      6          1           0       -0.940183    2.222520    0.000000
 ---------------------------------------------------------------------

 SCF Done:  E(RHF) =  -33.6497169112     A.U. after   11 cycles
 E2 =    -0.2285304794D+00 EUMP2 =    -0.33878247390647D+02
 CCSD(T)
 CCSD(T)= -0.33895308141D+02

 The electronic state is 1-A'.
 Alpha  occ. eigenvalues --   -1.34838  -1.34431  -0.70465  -0.70040  -0.54459
 Alpha  occ. eigenvalues --   -0.54040  -0.49379  -0.48974
 Alpha virt. eigenvalues --    0.20758   0.21288   0.31050   0.31443   0.81148
 Alpha virt. eigenvalues --    0.81595   0.83009   0.85641   0.87431   0.88578
 Alpha virt. eigenvalues --    1.17977   1.18381   1.22450   1.22860   2.58046

 Mulliken charges:
               1
     1  O   -0.733952
     2  H    0.364650
     3  H    0.369314
     4  O   -0.732856
     5  H    0.363039
     6  H    0.369804
 Sum of Mulliken charges =   0.00000

 Dipole moment (field-independent basis, Debye):
    X=             -1.7292    Y=             -0.6709    Z=              0.0000  Tot=              1.8548
 Quadrupole moment (field-independent basis, Debye-Ang):
   XX=             -8.9702   YY=             10.1124   ZZ=            -14.9863
   XY=             -3.2103   XZ=              0.0000   YZ=              0.0000

 P4DQ=-33.8896462\MP4SDQ=-33.8916807\CCSD=-33.8927379\CCSD(T)=-33.89530
 Normal termination of Gaussian 16 at Sun Dec 10 06:30:59 2023.
