 Gaussian 16, Revision A.03,
 Gaussian 16:  ES64L-G16RevA.03 25-Dec-2016

 ------------------
 #p CCSD(T)/CEP-31G
 ------------------

 -----------
 H2O_H2O_738
 -----------
 Symbolic Z-matrix:
 Charge =  0 Multiplicity = 1

                         Standard orientation:
 ---------------------------------------------------------------------
 Center     Atomic      Atomic             Coordinates (Angstroms)
 Number     Number       Type             X           Y           Z
 ---------------------------------------------------------------------
      1          8           0        0.043000   -1.168189    0.000000
      2          1           0       -0.758345   -1.736829    0.000000
      3          1           0        0.840790   -1.741807    0.000000
      4          8           0        0.043000    1.206833    0.000000
      5          1           0        0.143837    2.184247    0.000000
      6          1           0       -0.914288    0.985236    0.000000
 ---------------------------------------------------------------------

 SCF Done:  E(RHF) =  -33.6331134548     A.U. after   11 cycles
 E2 =    -0.2304888958D+00 EUMP2 =    -0.33863602350667D+02
 CCSD(T)
 CCSD(T)= -0.33880978081D+02

 The electronic state is 1-A'.
 Alpha  occ. eigenvalues --   -1.33947  -1.31801  -0.69557  -0.67706  -0.55102
 Alpha  occ. eigenvalues --   -0.48628  -0.48616  -0.46006
 Alpha virt. eigenvalues --    0.20424   0.25364   0.31745   0.33117   0.78706
 Alpha virt. eigenvalues --    0.83257   0.89050   0.91423   0.97418   1.14973
 Alpha virt. eigenvalues --    1.18981   1.22315   1.23765   1.30433   2.56597

 Mulliken charges:
               1
     1  O   -0.734201
     2  H    0.348335
     3  H    0.376504
     4  O   -0.689656
     5  H    0.341518
     6  H    0.357500
 Sum of Mulliken charges =  -0.00000

 Dipole moment (field-independent basis, Debye):
    X=             -1.8111    Y=             -0.9507    Z=              0.0000  Tot=              2.0455
 Quadrupole moment (field-independent basis, Debye-Ang):
   XX=             -9.3248   YY=             -1.6979   ZZ=            -14.9948
   XY=             -1.7108   XZ=              0.0000   YZ=              0.0000

 MP4DQ=-33.8749925\MP4SDQ=-33.8771655\CCSD=-33.8782255\CCSD(T)=-33.8809
 Normal termination of Gaussian 16 at Sun Dec 10 06:38:32 2023.
