 Gaussian 16, Revision A.03,
 Gaussian 16:  ES64L-G16RevA.03 25-Dec-2016

 ------------------
 #p CCSD(T)/CEP-31G
 ------------------

 -----------
 H2O_H2O_667
 -----------
 Symbolic Z-matrix:
 Charge =  0 Multiplicity = 1

                         Standard orientation:
 ---------------------------------------------------------------------
 Center     Atomic      Atomic             Coordinates (Angstroms)
 Number     Number       Type             X           Y           Z
 ---------------------------------------------------------------------
      1          8           0        0.051345   -1.114904    0.000000
      2          1           0       -0.750416   -1.682956    0.000000
      3          1           0        0.848714   -1.689106    0.000000
      4          8           0        0.051345    1.178214    0.000000
      5          1           0       -0.103515    2.148536    0.000000
      6          1           0       -0.816309    0.717040    0.000000
 ---------------------------------------------------------------------

 SCF Done:  E(RHF) =  -33.6326886464     A.U. after   11 cycles
 E2 =    -0.2308784379D+00 EUMP2 =    -0.33863567084357D+02
 CCSD(T)
 CCSD(T)= -0.33880797159D+02

 The electronic state is 1-A'.
 Alpha  occ. eigenvalues --   -1.35088  -1.31356  -0.70779  -0.67947  -0.54702
 Alpha  occ. eigenvalues --   -0.49712  -0.49389  -0.45698
 Alpha virt. eigenvalues --    0.19816   0.26366   0.30889   0.33918   0.78120
 Alpha virt. eigenvalues --    0.84353   0.89258   0.95228   0.95592   1.14582
 Alpha virt. eigenvalues --    1.18936   1.21714   1.24302   1.31241   2.61796

 Mulliken charges:
               1
     1  O   -0.756740
     2  H    0.354051
     3  H    0.391083
     4  O   -0.689120
     5  H    0.332909
     6  H    0.367817
 Sum of Mulliken charges =  -0.00000

 Dipole moment (field-independent basis, Debye):
    X=             -2.1368    Y=             -1.5977    Z=              0.0000  Tot=              2.6680
 Quadrupole moment (field-independent basis, Debye-Ang):
   XX=             -9.7668   YY=             -3.0305   ZZ=            -14.9969
   XY=             -2.2967   XZ=              0.0000   YZ=              0.0000

 P4DQ=-33.8747537\MP4SDQ=-33.8769689\CCSD=-33.877984\CCSD(T)=-33.880797
 Normal termination of Gaussian 16 at Sun Dec 10 06:37:12 2023.
