 Gaussian 16, Revision A.03,
 Gaussian 16:  ES64L-G16RevA.03 25-Dec-2016

 ------------------
 #p CCSD(T)/CEP-31G
 ------------------

 ------------
 H2O_H2O_2199
 ------------
 Symbolic Z-matrix:
 Charge =  0 Multiplicity = 1

                         Standard orientation:
 ---------------------------------------------------------------------
 Center     Atomic      Atomic             Coordinates (Angstroms)
 Number     Number       Type             X           Y           Z
 ---------------------------------------------------------------------
      1          8           0        0.057257   -1.898463    0.000000
      2          1           0       -0.743748   -2.467583    0.000000
      3          1           0        0.855389   -2.471604    0.000000
      4          8           0        0.057257    2.012402    0.000000
      5          1           0       -0.511863    2.813407    0.000000
      6          1           0       -0.515884    1.214269    0.000000
 ---------------------------------------------------------------------

 SCF Done:  E(RHF) =  -33.6537989537     A.U. after   11 cycles
 E2 =    -0.2285369797D+00 EUMP2 =    -0.33882335933424D+02
 CCSD(T)
 CCSD(T)= -0.33899296283D+02

 The electronic state is 1-A'.
 Alpha  occ. eigenvalues --   -1.36118  -1.33706  -0.71760  -0.69273  -0.55975
 Alpha  occ. eigenvalues --   -0.53473  -0.50717  -0.48303
 Alpha virt. eigenvalues --    0.19171   0.22797   0.29928   0.32733   0.79706
 Alpha virt. eigenvalues --    0.80646   0.82341   0.85474   0.86244   0.92296
 Alpha virt. eigenvalues --    1.16839   1.19688   1.21256   1.26316   2.55560

 Mulliken charges:
               1
     1  O   -0.747334
     2  H    0.369109
     3  H    0.379270
     4  O   -0.747234
     5  H    0.359160
     6  H    0.387029
 Sum of Mulliken charges =   0.00000

 Dipole moment (field-independent basis, Debye):
    X=             -2.6132    Y=             -2.7750    Z=              0.0000  Tot=              3.8117
 Quadrupole moment (field-independent basis, Debye-Ang):
   XX=            -10.1517   YY=             -0.0924   ZZ=            -14.9936
   XY=             -5.5397   XZ=              0.0000   YZ=              0.0000

 MP4DQ=-33.8936305\MP4SDQ=-33.8956787\CCSD=-33.8967172\CCSD(T)=-33.8992
 Normal termination of Gaussian 16 at Sun Dec 10 07:06:59 2023.
