 Gaussian 16, Revision A.03,
 Gaussian 16:  ES64L-G16RevA.03 25-Dec-2016

 ------------------
 #p CCSD(T)/CEP-31G
 ------------------

 ------------
 H2O_H2O_4359
 ------------
 Symbolic Z-matrix:
 Charge =  0 Multiplicity = 1

                         Standard orientation:
 ---------------------------------------------------------------------
 Center     Atomic      Atomic             Coordinates (Angstroms)
 Number     Number       Type             X           Y           Z
 ---------------------------------------------------------------------
      1          8           0        0.031739   -3.106662    0.000000
      2          1           0       -0.768332   -3.677093    0.000000
      3          1           0        0.830809   -3.678495    0.000000
      4          8           0        0.031739    3.125857    0.000000
      5          1           0        0.380059    4.044649    0.000000
      6          1           0       -0.950357    3.157379    0.000000
 ---------------------------------------------------------------------

 SCF Done:  E(RHF) =  -33.6508195935     A.U. after   11 cycles
 E2 =    -0.2284338391D+00 EUMP2 =    -0.33879253432557D+02
 CCSD(T)
 CCSD(T)= -0.33896281669D+02

 The electronic state is 1-A'.
 Alpha  occ. eigenvalues --   -1.35110  -1.34961  -0.70738  -0.70586  -0.54791
 Alpha  occ. eigenvalues --   -0.54642  -0.49667  -0.49518
 Alpha virt. eigenvalues --    0.20608   0.20759   0.30841   0.30987   0.80887
 Alpha virt. eigenvalues --    0.81033   0.84005   0.84151   0.87081   0.87254
 Alpha virt. eigenvalues --    1.17751   1.17898   1.22216   1.22364   2.57791

 Mulliken charges:
               1
     1  O   -0.737678
     2  H    0.367980
     3  H    0.369698
     4  O   -0.737474
     5  H    0.367443
     6  H    0.370031
 Sum of Mulliken charges =   0.00000

 Dipole moment (field-independent basis, Debye):
    X=             -1.4648    Y=             -0.4491    Z=              0.0000  Tot=              1.5321
 Quadrupole moment (field-independent basis, Debye-Ang):
   XX=             -8.6918   YY=             18.8518   ZZ=            -14.9871
   XY=             -3.7771   XZ=              0.0000   YZ=              0.0000

 MP4DQ=-33.89063\MP4SDQ=-33.8926603\CCSD=-33.8937174\CCSD(T)=-33.896281
 Normal termination of Gaussian 16 at Sun Dec 10 06:58:29 2023.
