 Gaussian 16, Revision A.03,
 Gaussian 16:  ES64L-G16RevA.03 25-Dec-2016

 ------------------
 #p CCSD(T)/CEP-31G
 ------------------

 ------------
 H2O_H2O_2635
 ------------
 Symbolic Z-matrix:
 Charge =  0 Multiplicity = 1

                         Standard orientation:
 ---------------------------------------------------------------------
 Center     Atomic      Atomic             Coordinates (Angstroms)
 Number     Number       Type             X           Y           Z
 ---------------------------------------------------------------------
      1          8           0        0.034784   -2.186901    0.000000
      2          1           0       -0.765563   -2.756944    0.000000
      3          1           0        0.833577   -2.759120    0.000000
      4          8           0        0.034784    2.210410    0.000000
      5          1           0        0.322723    3.149876    0.000000
      6          1           0       -0.947287    2.178108    0.000000
 ---------------------------------------------------------------------

 SCF Done:  E(RHF) =  -33.6492213838     A.U. after   11 cycles
 E2 =    -0.2285687619D+00 EUMP2 =    -0.33877790145686D+02
 CCSD(T)
 CCSD(T)= -0.33894865561D+02

 The electronic state is 1-A'.
 Alpha  occ. eigenvalues --   -1.34704  -1.34330  -0.70330  -0.69938  -0.54304
 Alpha  occ. eigenvalues --   -0.53898  -0.49238  -0.48866
 Alpha virt. eigenvalues --    0.20814   0.21408   0.31157   0.31514   0.81234
 Alpha virt. eigenvalues --    0.81756   0.82157   0.86113   0.87637   0.89541
 Alpha virt. eigenvalues --    1.18091   1.18464   1.22570   1.22948   2.58157

 Mulliken charges:
               1
     1  O   -0.732252
     2  H    0.363687
     3  H    0.368589
     4  O   -0.731063
     5  H    0.362109
     6  H    0.368929
 Sum of Mulliken charges =  -0.00000

 Dipole moment (field-independent basis, Debye):
    X=             -1.5941    Y=             -0.5609    Z=              0.0000  Tot=              1.6899
 Quadrupole moment (field-independent basis, Debye-Ang):
   XX=             -8.8404   YY=              9.4649   ZZ=            -14.9859
   XY=             -2.7473   XZ=              0.0000   YZ=              0.0000

 \MP4DQ=-33.8891982\MP4SDQ=-33.8912351\CCSD=-33.8922925\CCSD(T)=-33.894
 Normal termination of Gaussian 16 at Sun Dec 10 06:27:15 2023.
