 Gaussian 16, Revision A.03,
 Gaussian 16:  ES64L-G16RevA.03 25-Dec-2016

 ------------------
 #p CCSD(T)/CEP-31G
 ------------------

 ------------
 H2O_H2O_4169
 ------------
 Symbolic Z-matrix:
 Charge =  0 Multiplicity = 1

                         Standard orientation:
 ---------------------------------------------------------------------
 Center     Atomic      Atomic             Coordinates (Angstroms)
 Number     Number       Type             X           Y           Z
 ---------------------------------------------------------------------
      1          8           0        0.054142   -2.968716    0.000000
      2          1           0       -0.746312   -3.538610    0.000000
      3          1           0        0.852828   -3.541085    0.000000
      4          8           0        0.054142    3.046058    0.000000
      5          1           0       -0.228210    3.987219    0.000000
      6          1           0       -0.744581    2.473740    0.000000
 ---------------------------------------------------------------------

 SCF Done:  E(RHF) =  -33.6516354442     A.U. after   11 cycles
 E2 =    -0.2283981094D+00 EUMP2 =    -0.33880033553602D+02
 CCSD(T)
 CCSD(T)= -0.33897038060D+02

 The electronic state is 1-A'.
 Alpha  occ. eigenvalues --   -1.35508  -1.34868  -0.71140  -0.70487  -0.55235
 Alpha  occ. eigenvalues --   -0.54588  -0.50077  -0.49438
 Alpha virt. eigenvalues --    0.20254   0.20912   0.30494   0.31139   0.80475
 Alpha virt. eigenvalues --    0.81105   0.83511   0.84157   0.86620   0.87327
 Alpha virt. eigenvalues --    1.17387   1.18023   1.21846   1.22493   2.57408

 Mulliken charges:
               1
     1  O   -0.740597
     2  H    0.368757
     3  H    0.371841
     4  O   -0.740218
     5  H    0.366959
     6  H    0.373258
 Sum of Mulliken charges =   0.00000

 Dipole moment (field-independent basis, Debye):
    X=             -2.4975    Y=             -1.8123    Z=              0.0000  Tot=              3.0858
 Quadrupole moment (field-independent basis, Debye-Ang):
   XX=             -9.9418   YY=             10.6721   ZZ=            -14.9886
   XY=             -7.1918   XZ=              0.0000   YZ=              0.0000

 MP4DQ=-33.8913927\MP4SDQ=-33.8934209\CCSD=-33.8944762\CCSD(T)=-33.8970
 Normal termination of Gaussian 16 at Sun Dec 10 06:55:10 2023.
