 Gaussian 16, Revision A.03,
 Gaussian 16:  ES64L-G16RevA.03 25-Dec-2016

 ------------------
 #p CCSD(T)/CEP-31G
 ------------------

 ------------
 H2O_H2O_2045
 ------------
 Symbolic Z-matrix:
 Charge =  0 Multiplicity = 1

                         Standard orientation:
 ---------------------------------------------------------------------
 Center     Atomic      Atomic             Coordinates (Angstroms)
 Number     Number       Type             X           Y           Z
 ---------------------------------------------------------------------
      1          8           0        0.055274   -1.834738    0.000000
      2          1           0       -0.745739   -2.403845    0.000000
      3          1           0        0.853397   -2.407891    0.000000
      4          8           0        0.055274    1.919121    0.000000
      5          1           0       -0.287124    2.840136    0.000000
      6          1           0       -0.704919    1.296535    0.000000
 ---------------------------------------------------------------------

 SCF Done:  E(RHF) =  -33.6519327983     A.U. after   11 cycles
 E2 =    -0.2286473348D+00 EUMP2 =    -0.33880580133127D+02
 CCSD(T)
 CCSD(T)= -0.33897594555D+02

 The electronic state is 1-A'.
 Alpha  occ. eigenvalues --   -1.35605  -1.33671  -0.71244  -0.69231  -0.55348
 Alpha  occ. eigenvalues --   -0.53371  -0.50178  -0.48249
 Alpha virt. eigenvalues --    0.19570   0.22732   0.30317   0.32487   0.78206
 Alpha virt. eigenvalues --    0.80043   0.82611   0.85902   0.86610   0.96265
 Alpha virt. eigenvalues --    1.17271   1.19770   1.21674   1.25144   2.56191

 Mulliken charges:
               1
     1  O   -0.741320
     2  H    0.365256
     3  H    0.376829
     4  O   -0.738569
     5  H    0.356981
     6  H    0.380823
 Sum of Mulliken charges =  -0.00000

 Dipole moment (field-independent basis, Debye):
    X=             -2.5160    Y=             -2.0601    Z=              0.0000  Tot=              3.2518
 Quadrupole moment (field-independent basis, Debye-Ang):
   XX=            -10.0075   YY=              1.9964   ZZ=            -14.9909
   XY=             -4.6353   XZ=              0.0000   YZ=              0.0000

 \MP4DQ=-33.8919182\MP4SDQ=-33.8939694\CCSD=-33.8950113\CCSD(T)=-33.897
 Normal termination of Gaussian 16 at Sun Dec 10 07:04:13 2023.
