 Gaussian 16, Revision A.03,
 Gaussian 16:  ES64L-G16RevA.03 25-Dec-2016

 ------------------
 #p CCSD(T)/CEP-31G
 ------------------

 -----------
 H2O_H2O_528
 -----------
 Symbolic Z-matrix:
 Charge =  0 Multiplicity = 1

                         Standard orientation:
 ---------------------------------------------------------------------
 Center     Atomic      Atomic             Coordinates (Angstroms)
 Number     Number       Type             X           Y           Z
 ---------------------------------------------------------------------
      1          8           0        0.011143   -1.081631    0.000000
      2          1           0       -0.788933   -1.652055    0.000000
      3          1           0        0.810208   -1.653471    0.000000
      4          8           0        0.011143    1.083807    0.000000
      5          1           0        0.684562    1.799356    0.000000
      6          1           0       -0.884128    1.488769    0.000000
 ---------------------------------------------------------------------

 SCF Done:  E(RHF) =  -33.6110831224     A.U. after   11 cycles
 E2 =    -0.2313110198D+00 EUMP2 =    -0.33842394142156D+02
 CCSD(T)
 CCSD(T)= -0.33859688312D+02

 The electronic state is 1-A'.
 Alpha  occ. eigenvalues --   -1.32844  -1.31014  -0.68163  -0.66847  -0.57052
 Alpha  occ. eigenvalues --   -0.47725  -0.44755  -0.43790
 Alpha virt. eigenvalues --    0.21529   0.25378   0.32855   0.33271   0.78492
 Alpha virt. eigenvalues --    0.80193   0.90083   0.98923   0.99952   1.16960
 Alpha virt. eigenvalues --    1.20109   1.23015   1.23927   1.26943   2.50388

 Mulliken charges:
               1
     1  O   -0.700609
     2  H    0.344445
     3  H    0.354903
     4  O   -0.695872
     5  H    0.350146
     6  H    0.346987
 Sum of Mulliken charges =  -0.00000

 Dipole moment (field-independent basis, Debye):
    X=             -0.4476    Y=             -0.0509    Z=              0.0000  Tot=              0.4505
 Quadrupole moment (field-independent basis, Debye-Ang):
   XX=             -8.3766   YY=             -2.4509   ZZ=            -15.0147
   XY=             -0.2768   XZ=              0.0000   YZ=              0.0000

 P4DQ=-33.8536022\MP4SDQ=-33.8557841\CCSD=-33.856832\CCSD(T)=-33.859688
 Normal termination of Gaussian 16 at Sun Dec 10 06:34:37 2023.
