 Gaussian 16, Revision A.03,
 Gaussian 16:  ES64L-G16RevA.03 25-Dec-2016

 ------------------
 #p CCSD(T)/CEP-31G
 ------------------

 ------------
 H2O_H2O_4730
 ------------
 Symbolic Z-matrix:
 Charge =  0 Multiplicity = 1

                         Standard orientation:
 ---------------------------------------------------------------------
 Center     Atomic      Atomic             Coordinates (Angstroms)
 Number     Number       Type             X           Y           Z
 ---------------------------------------------------------------------
      1          8           0        0.018360   -3.313243    0.000000
      2          1           0       -0.781483   -3.883994    0.000000
      3          1           0        0.817659   -3.884756    0.000000
      4          8           0        0.018360    3.319288    0.000000
      5          1           0        0.592294    4.116849    0.000000
      6          1           0       -0.922227    3.603544    0.000000
 ---------------------------------------------------------------------

 SCF Done:  E(RHF) =  -33.6508344931     A.U. after   11 cycles
 E2 =    -0.2284286317D+00 EUMP2 =    -0.33879263124781D+02
 CCSD(T)
 CCSD(T)= -0.33896290974D+02

 The electronic state is 1-A'.
 Alpha  occ. eigenvalues --   -1.35086  -1.35045  -0.70714  -0.70672  -0.54767
 Alpha  occ. eigenvalues --   -0.54726  -0.49643  -0.49601
 Alpha virt. eigenvalues --    0.20633   0.20675   0.30866   0.30906   0.80911
 Alpha virt. eigenvalues --    0.80952   0.84028   0.84068   0.87105   0.87153
 Alpha virt. eigenvalues --    1.17775   1.17816   1.22241   1.22282   2.57816

 Mulliken charges:
               1
     1  O   -0.737713
     2  H    0.368437
     3  H    0.369277
     4  O   -0.737658
     5  H    0.368222
     6  H    0.369436
 Sum of Mulliken charges =  -0.00000

 Dipole moment (field-independent basis, Debye):
    X=             -0.8478    Y=             -0.1412    Z=              0.0000  Tot=              0.8595
 Quadrupole moment (field-independent basis, Debye-Ang):
   XX=             -8.2546   YY=             22.4555   ZZ=            -14.9870
   XY=             -2.2744   XZ=              0.0000   YZ=              0.0000

 \MP4DQ=-33.8906394\MP4SDQ=-33.8926696\CCSD=-33.8937269\CCSD(T)=-33.896
 Normal termination of Gaussian 16 at Sun Dec 10 07:06:50 2023.
