 Gaussian 16, Revision A.03,
 Gaussian 16:  ES64L-G16RevA.03 25-Dec-2016

 ------------------
 #p CCSD(T)/CEP-31G
 ------------------

 -----------
 H2O_H2O_695
 -----------
 Symbolic Z-matrix:
 Charge =  0 Multiplicity = 1

                         Standard orientation:
 ---------------------------------------------------------------------
 Center     Atomic      Atomic             Coordinates (Angstroms)
 Number     Number       Type             X           Y           Z
 ---------------------------------------------------------------------
      1          8           0        0.055340   -1.116849    0.000000
      2          1           0       -0.746564   -1.684700    0.000000
      3          1           0        0.852564   -1.691253    0.000000
      4          8           0        0.055340    1.201059    0.000000
      5          1           0       -0.285614    2.122610    0.000000
      6          1           0       -0.705828    0.579666    0.000000
 ---------------------------------------------------------------------

 SCF Done:  E(RHF) =  -33.6364375891     A.U. after   11 cycles
 E2 =    -0.2307826425D+00 EUMP2 =    -0.33867220231600D+02
 CCSD(T)
 CCSD(T)= -0.33884214139D+02

 The electronic state is 1-A'.
 Alpha  occ. eigenvalues --   -1.36165  -1.31064  -0.71898  -0.68316  -0.54261
 Alpha  occ. eigenvalues --   -0.50727  -0.50481  -0.45525
 Alpha virt. eigenvalues --    0.19322   0.26907   0.30056   0.35141   0.77392
 Alpha virt. eigenvalues --    0.84106   0.89152   0.92604   0.97266   1.13869
 Alpha virt. eigenvalues --    1.19178   1.20643   1.25233   1.31024   2.70558

 Mulliken charges:
               1
     1  O   -0.770212
     2  H    0.360760
     3  H    0.403415
     4  O   -0.701517
     5  H    0.328189
     6  H    0.379365
 Sum of Mulliken charges =  -0.00000

 Dipole moment (field-independent basis, Debye):
    X=             -2.3080    Y=             -2.1911    Z=              0.0000  Tot=              3.1824
 Quadrupole moment (field-independent basis, Debye-Ang):
   XX=             -9.9994   YY=             -3.7626   ZZ=            -15.0011
   XY=             -2.8302   XZ=              0.0000   YZ=              0.0000

 MP4DQ=-33.8781685\MP4SDQ=-33.8803934\CCSD=-33.881371\CCSD(T)=-33.88421
 Normal termination of Gaussian 16 at Sun Dec 10 06:37:43 2023.
