 Gaussian 16, Revision A.03,
 Gaussian 16:  ES64L-G16RevA.03 25-Dec-2016

 ------------------
 #p CCSD(T)/CEP-31G
 ------------------

 ------------
 H2O_H2O_4294
 ------------
 Symbolic Z-matrix:
 Charge =  0 Multiplicity = 1

                         Standard orientation:
 ---------------------------------------------------------------------
 Center     Atomic      Atomic             Coordinates (Angstroms)
 Number     Number       Type             X           Y           Z
 ---------------------------------------------------------------------
      1          8           0        0.054141   -3.035194    0.000000
      2          1           0       -0.746294   -3.605115    0.000000
      3          1           0        0.852846   -3.607537    0.000000
      4          8           0        0.054141    3.112540    0.000000
      5          1           0       -0.228243    4.053691    0.000000
      6          1           0       -0.744563    2.540195    0.000000
 ---------------------------------------------------------------------

 SCF Done:  E(RHF) =  -33.6516447613     A.U. after   11 cycles
 E2 =    -0.2283958638D+00 EUMP2 =    -0.33880040625063D+02
 CCSD(T)
 CCSD(T)= -0.33897044874D+02

 The electronic state is 1-A'.
 Alpha  occ. eigenvalues --   -1.35512  -1.34901  -0.71144  -0.70521  -0.55239
 Alpha  occ. eigenvalues --   -0.54621  -0.50081  -0.49471
 Alpha virt. eigenvalues --    0.20251   0.20879   0.30491   0.31107   0.80471
 Alpha virt. eigenvalues --    0.81073   0.83507   0.84123   0.86615   0.87288
 Alpha virt. eigenvalues --    1.17384   1.17991   1.21843   1.22460   2.57404

 Mulliken charges:
               1
     1  O   -0.740627
     2  H    0.368863
     3  H    0.371763
     4  O   -0.740285
     5  H    0.367179
     6  H    0.373106
 Sum of Mulliken charges =  -0.00000

 Dipole moment (field-independent basis, Debye):
    X=             -2.4980    Y=             -1.8110    Z=              0.0000  Tot=              3.0854
 Quadrupole moment (field-independent basis, Debye-Ang):
   XX=             -9.9420   YY=             11.1433   ZZ=            -14.9885
   XY=             -7.3564   XZ=              0.0000   YZ=              0.0000

 MP4DQ=-33.8913996\MP4SDQ=-33.8934277\CCSD=-33.8944831\CCSD(T)=-33.8970
 Normal termination of Gaussian 16 at Sun Dec 10 06:57:21 2023.
