 Gaussian 16, Revision A.03,
 Gaussian 16:  ES64L-G16RevA.03 25-Dec-2016

 ------------------
 #p CCSD(T)/CEP-31G
 ------------------

 -----------
 H2O_H2O_647
 -----------
 Symbolic Z-matrix:
 Charge =  0 Multiplicity = 1

                         Standard orientation:
 ---------------------------------------------------------------------
 Center     Atomic      Atomic             Coordinates (Angstroms)
 Number     Number       Type             X           Y           Z
 ---------------------------------------------------------------------
      1          8           0        0.056838   -1.082318    0.000000
      2          1           0       -0.745186   -1.650001    0.000000
      3          1           0        0.853942   -1.656889    0.000000
      4          8           0        0.056838    1.181147    0.000000
      5          1           0       -0.401303    2.050406    0.000000
      6          1           0       -0.616860    0.465858    0.000000
 ---------------------------------------------------------------------

 SCF Done:  E(RHF) =  -33.6335410273     A.U. after   11 cycles
 E2 =    -0.2308758698D+00 EUMP2 =    -0.33864416897132D+02
 CCSD(T)
 CCSD(T)= -0.33881090121D+02

 The electronic state is 1-A'.
 Alpha  occ. eigenvalues --   -1.37247  -1.30518  -0.73028  -0.69021  -0.53817
 Alpha  occ. eigenvalues --   -0.51731  -0.50483  -0.45006
 Alpha virt. eigenvalues --    0.18950   0.27586   0.29312   0.36669   0.76905
 Alpha virt. eigenvalues --    0.84234   0.89452   0.92196   0.98323   1.13405
 Alpha virt. eigenvalues --    1.19033   1.20025   1.26736   1.31218   2.76911

 Mulliken charges:
               1
     1  O   -0.784074
     2  H    0.366947
     3  H    0.417222
     4  O   -0.708032
     5  H    0.322860
     6  H    0.385078
 Sum of Mulliken charges =  -0.00000

 Dipole moment (field-independent basis, Debye):
    X=             -2.3457    Y=             -2.6528    Z=              0.0000  Tot=              3.5411
 Quadrupole moment (field-independent basis, Debye-Ang):
   XX=            -10.0864   YY=             -4.7409   ZZ=            -15.0033
   XY=             -3.0681   XZ=              0.0000   YZ=              0.0000

 DQ=-33.8750011\MP4SDQ=-33.8772535\CCSD=-33.8781771\CCSD(T)=-33.8810901
 Normal termination of Gaussian 16 at Sun Dec 10 06:36:50 2023.
