 Gaussian 16, Revision A.03,
 Gaussian 16:  ES64L-G16RevA.03 25-Dec-2016

 ------------------
 #p CCSD(T)/CEP-31G
 ------------------

 -----------
 H2O_H2O_777
 -----------
 Symbolic Z-matrix:
 Charge =  0 Multiplicity = 1

                         Standard orientation:
 ---------------------------------------------------------------------
 Center     Atomic      Atomic             Coordinates (Angstroms)
 Number     Number       Type             X           Y           Z
 ---------------------------------------------------------------------
      1          8           0        0.007455   -1.215246    0.000000
      2          1           0       -0.792417   -1.785956    0.000000
      3          1           0        0.806725   -1.786799    0.000000
      4          8           0        0.007455    1.216215    0.000000
      5          1           0        0.725992    1.886447    0.000000
      6          1           0       -0.859580    1.678553    0.000000
 ---------------------------------------------------------------------

 SCF Done:  E(RHF) =  -33.6276590955     A.U. after   11 cycles
 E2 =    -0.2302152851D+00 EUMP2 =    -0.33857874380569D+02
 CCSD(T)
 CCSD(T)= -0.33875289497D+02

 The electronic state is 1-A'.
 Alpha  occ. eigenvalues --   -1.32725  -1.31855  -0.68215  -0.67560  -0.55124
 Alpha  occ. eigenvalues --   -0.47472  -0.47008  -0.45797
 Alpha virt. eigenvalues --    0.21527   0.24379   0.32733   0.33013   0.78880
 Alpha virt. eigenvalues --    0.79564   0.89175   0.91374   1.04474   1.10274
 Alpha virt. eigenvalues --    1.19772   1.21744   1.24157   1.25652   2.54510

 Mulliken charges:
               1
     1  O   -0.699563
     2  H    0.347013
     3  H    0.352235
     4  O   -0.698239
     5  H    0.349263
     6  H    0.349292
 Sum of Mulliken charges =  -0.00000

 Dipole moment (field-independent basis, Debye):
    X=             -0.3145    Y=             -0.0231    Z=              0.0000  Tot=              0.3153
 Quadrupole moment (field-independent basis, Debye-Ang):
   XX=             -8.2906   YY=             -0.4143   ZZ=            -14.9991
   XY=             -0.2235   XZ=              0.0000   YZ=              0.0000

 4DQ=-33.8693414\MP4SDQ=-33.8714569\CCSD=-33.8725471\CCSD(T)=-33.875289
 Normal termination of Gaussian 16 at Sun Dec 10 06:39:16 2023.
