 Gaussian 16, Revision A.03,
 Gaussian 16:  ES64L-G16RevA.03 25-Dec-2016

 ------------------
 #p CCSD(T)/CEP-31G
 ------------------

 ------------
 H2O_H2O_1507
 ------------
 Symbolic Z-matrix:
 Charge =  0 Multiplicity = 1

                         Standard orientation:
 ---------------------------------------------------------------------
 Center     Atomic      Atomic             Coordinates (Angstroms)
 Number     Number       Type             X           Y           Z
 ---------------------------------------------------------------------
      1          8           0        0.025269   -1.594992    0.000000
      2          1           0       -0.775078   -2.165038    0.000000
      3          1           0        0.824063   -2.167210    0.000000
      4          8           0        0.025269    1.606704    0.000000
      5          1           0        0.490952    2.471946    0.000000
      6          1           0       -0.944234    1.766612    0.000000
 ---------------------------------------------------------------------

 SCF Done:  E(RHF) =  -33.6437536336     A.U. after   11 cycles
 E2 =    -0.2290805584D+00 EUMP2 =    -0.33872834191970D+02
 CCSD(T)
 CCSD(T)= -0.33890112597D+02

 The electronic state is 1-A'.
 Alpha  occ. eigenvalues --   -1.33738  -1.33373  -0.69356  -0.68972  -0.53757
 Alpha  occ. eigenvalues --   -0.51900  -0.48263  -0.47778
 Alpha virt. eigenvalues --    0.20955   0.22744   0.31871   0.32210   0.76343
 Alpha virt. eigenvalues --    0.80219   0.83949   0.84891   0.93317   1.07360
 Alpha virt. eigenvalues --    1.18850   1.19597   1.23487   1.23815   2.59492

 Mulliken charges:
               1
     1  O   -0.716371
     2  H    0.354017
     3  H    0.362324
     4  O   -0.713378
     5  H    0.352314
     6  H    0.361094
 Sum of Mulliken charges =   0.00000

 Dipole moment (field-independent basis, Debye):
    X=             -1.1362    Y=             -0.2918    Z=              0.0000  Tot=              1.1730
 Quadrupole moment (field-independent basis, Debye-Ang):
   XX=             -8.5426   YY=              4.0200   ZZ=            -14.9843
   XY=             -1.2533   XZ=              0.0000   YZ=              0.0000

 MP4DQ=-33.8843423\MP4SDQ=-33.8864262\CCSD=-33.8874915\CCSD(T)=-33.8901
 Normal termination of Gaussian 16 at Sun Dec 10 06:52:54 2023.
