 Gaussian 16, Revision A.03,
 Gaussian 16:  ES64L-G16RevA.03 25-Dec-2016

 ------------------
 #p CCSD(T)/CEP-31G
 ------------------

 ------------
 H2O_H2O_3543
 ------------
 Symbolic Z-matrix:
 Charge =  0 Multiplicity = 1

                         Standard orientation:
 ---------------------------------------------------------------------
 Center     Atomic      Atomic             Coordinates (Angstroms)
 Number     Number       Type             X           Y           Z
 ---------------------------------------------------------------------
      1          8           0        0.052825   -2.640124    0.000000
      2          1           0       -0.747714   -3.209897    0.000000
      3          1           0        0.851426   -3.212612    0.000000
      4          8           0        0.052825    2.710458    0.000000
      5          1           0       -0.167223    3.668104    0.000000
      6          1           0       -0.781696    2.191729    0.000000
 ---------------------------------------------------------------------

 SCF Done:  E(RHF) =  -33.6514212190     A.U. after   11 cycles
 E2 =    -0.2284223405D+00 EUMP2 =    -0.33879843559480D+02
 CCSD(T)
 CCSD(T)= -0.33896854381D+02

 The electronic state is 1-A'.
 Alpha  occ. eigenvalues --   -1.35423  -1.34677  -0.71055  -0.70289  -0.55138
 Alpha  occ. eigenvalues --   -0.54383  -0.49989  -0.49244
 Alpha virt. eigenvalues --    0.20320   0.21100   0.30565   0.31314   0.80565
 Alpha virt. eigenvalues --    0.81295   0.83577   0.84403   0.86720   0.87582
 Alpha virt. eigenvalues --    1.17463   1.18203   1.21923   1.22679   2.57484

 Mulliken charges:
               1
     1  O   -0.739867
     2  H    0.367829
     3  H    0.372041
     4  O   -0.739158
     5  H    0.365492
     6  H    0.373664
 Sum of Mulliken charges =   0.00000

 Dipole moment (field-independent basis, Debye):
    X=             -2.4328    Y=             -1.6562    Z=              0.0000  Tot=              2.9431
 Quadrupole moment (field-independent basis, Debye-Ang):
   XX=             -9.8483   YY=              9.1157   ZZ=            -14.9884
   XY=             -6.0967   XZ=              0.0000   YZ=              0.0000

 8\MP4DQ=-33.8912071\MP4SDQ=-33.8932361\CCSD=-33.8942912\CCSD(T)=-33.89
 Normal termination of Gaussian 16 at Sun Dec 10 06:43:40 2023.
