 Gaussian 16, Revision A.03,
 Gaussian 16:  ES64L-G16RevA.03 25-Dec-2016

 ------------------
 #p CCSD(T)/CEP-31G
 ------------------

 -----------
 H2O_H2O_149
 -----------
 Symbolic Z-matrix:
 Charge =  0 Multiplicity = 1

                         Standard orientation:
 ---------------------------------------------------------------------
 Center     Atomic      Atomic             Coordinates (Angstroms)
 Number     Number       Type             X           Y           Z
 ---------------------------------------------------------------------
      1          8           0        0.057437   -0.808388    0.000000
      2          1           0       -0.745367   -1.374967    0.000000
      3          1           0        0.853749   -1.384055    0.000000
      4          8           0        0.057437    0.921964    0.000000
      5          1           0       -0.509142    1.724767    0.000000
      6          1           0       -0.518230    0.125650    0.000000
 ---------------------------------------------------------------------

 SCF Done:  E(RHF) =  -33.4646742675     A.U. after   11 cycles
 E2 =    -0.2340854990D+00 EUMP2 =    -0.33698759766535D+02
 CCSD(T)
 CCSD(T)= -0.33713760883D+02

 The electronic state is 1-A'.
 Alpha  occ. eigenvalues --   -1.46292  -1.27015  -0.82780  -0.74683  -0.57395
 Alpha  occ. eigenvalues --   -0.48003  -0.42621  -0.41258
 Alpha virt. eigenvalues --    0.18089   0.25912   0.31488   0.39671   0.77240
 Alpha virt. eigenvalues --    0.83791   0.91053   0.91803   0.97018   1.13088
 Alpha virt. eigenvalues --    1.17156   1.28482   1.33576   1.42125   2.95319

 Mulliken charges:
               1
     1  O   -0.750602
     2  H    0.370230
     3  H    0.476904
     4  O   -0.712427
     5  H    0.270119
     6  H    0.345777
 Sum of Mulliken charges =  -0.00000

 Dipole moment (field-independent basis, Debye):
    X=             -2.0424    Y=             -3.6433    Z=              0.0000  Tot=              4.1767
 Quadrupole moment (field-independent basis, Debye-Ang):
   XX=            -10.0756   YY=             -8.8056   ZZ=            -14.8719
   XY=             -2.4831   XZ=              0.0000   YZ=              0.0000

 \MP4DQ=-33.7068688\MP4SDQ=-33.7096163\CCSD=-33.7101082\CCSD(T)=-33.713
 Normal termination of Gaussian 16 at Sun Dec 10 06:27:31 2023.
