 Gaussian 16, Revision A.03,
 Gaussian 16:  ES64L-G16RevA.03 25-Dec-2016

 ------------------
 #p CCSD(T)/CEP-31G
 ------------------

 -----------
 H2O_H2O_411
 -----------
 Symbolic Z-matrix:
 Charge =  0 Multiplicity = 1

                         Standard orientation:
 ---------------------------------------------------------------------
 Center     Atomic      Atomic             Coordinates (Angstroms)
 Number     Number       Type             X           Y           Z
 ---------------------------------------------------------------------
      1          8           0        0.037702   -1.001066    0.000000
      2          1           0       -0.763688   -1.569642    0.000000
      3          1           0        0.835446   -1.574748    0.000000
      4          8           0        0.037702    1.029172    0.000000
      5          1           0        0.265332    1.985044    0.000000
      6          1           0       -0.940329    0.934499    0.000000
 ---------------------------------------------------------------------

 SCF Done:  E(RHF) =  -33.6028084695     A.U. after   11 cycles
 E2 =    -0.2321251822D+00 EUMP2 =    -0.33834933651761D+02
 CCSD(T)
 CCSD(T)= -0.33852201314D+02

 The electronic state is 1-A'.
 Alpha  occ. eigenvalues --   -1.34098  -1.30703  -0.69562  -0.67286  -0.57218
 Alpha  occ. eigenvalues --   -0.48936  -0.44574  -0.43757
 Alpha virt. eigenvalues --    0.20700   0.26530   0.31977   0.33303   0.80040
 Alpha virt. eigenvalues --    0.83156   0.90008   0.97902   0.99080   1.16479
 Alpha virt. eigenvalues --    1.19373   1.23920   1.25433   1.31148   2.51781

 Mulliken charges:
               1
     1  O   -0.738713
     2  H    0.343617
     3  H    0.378680
     4  O   -0.674313
     5  H    0.344085
     6  H    0.346644
 Sum of Mulliken charges =  -0.00000

 Dipole moment (field-independent basis, Debye):
    X=             -1.4883    Y=             -0.6759    Z=              0.0000  Tot=              1.6346
 Quadrupole moment (field-independent basis, Debye-Ang):
   XX=             -9.1320   YY=             -3.8644   ZZ=            -15.0030
   XY=             -1.1220   XZ=              0.0000   YZ=              0.0000

 MP4DQ=-33.8459969\MP4SDQ=-33.8482828\CCSD=-33.8492728\CCSD(T)=-33.8522
 Normal termination of Gaussian 16 at Sun Dec 10 06:32:27 2023.
