 Gaussian 16, Revision A.03,
 Gaussian 16:  ES64L-G16RevA.03 25-Dec-2016

 ------------------
 #p CCSD(T)/CEP-31G
 ------------------

 -----------
 H2O_H2O_853
 -----------
 Symbolic Z-matrix:
 Charge =  0 Multiplicity = 1

                         Standard orientation:
 ---------------------------------------------------------------------
 Center     Atomic      Atomic             Coordinates (Angstroms)
 Number     Number       Type             X           Y           Z
 ---------------------------------------------------------------------
      1          8           0        0.011143   -1.254477    0.000000
      2          1           0       -0.788864   -1.824998    0.000000
      3          1           0        0.810278   -1.826219    0.000000
      4          8           0        0.011143    1.256655    0.000000
      5          1           0        0.684475    1.972287    0.000000
      6          1           0       -0.884178    1.661508    0.000000
 ---------------------------------------------------------------------

 SCF Done:  E(RHF) =  -33.6308850926     A.U. after   11 cycles
 E2 =    -0.2300014198D+00 EUMP2 =    -0.33860886512378D+02
 CCSD(T)
 CCSD(T)= -0.33878315175D+02

 The electronic state is 1-A'.
 Alpha  occ. eigenvalues --   -1.32797  -1.32088  -0.68319  -0.67772  -0.54758
 Alpha  occ. eigenvalues --   -0.47822  -0.47512  -0.46091
 Alpha virt. eigenvalues --    0.21463   0.24153   0.32632   0.32917   0.79349
 Alpha virt. eigenvalues --    0.79469   0.88772   0.88788   1.04299   1.09835
 Alpha virt. eigenvalues --    1.19674   1.21591   1.24246   1.25319   2.55628

 Mulliken charges:
               1
     1  O   -0.701374
     2  H    0.346844
     3  H    0.353968
     4  O   -0.698852
     5  H    0.349212
     6  H    0.350202
 Sum of Mulliken charges =  -0.00000

 Dipole moment (field-independent basis, Debye):
    X=             -0.4757    Y=             -0.0525    Z=              0.0000  Tot=              0.4786
 Quadrupole moment (field-independent basis, Debye-Ang):
   XX=             -8.3192   YY=              0.1213   ZZ=            -14.9953
   XY=             -0.3576   XZ=              0.0000   YZ=              0.0000

 MP4DQ=-33.8723943\MP4SDQ=-33.8745034\CCSD=-33.8755968\CCSD(T)=-33.8783
 Normal termination of Gaussian 16 at Sun Dec 10 06:40:42 2023.
