 Gaussian 16, Revision A.03,
 Gaussian 16:  ES64L-G16RevA.03 25-Dec-2016

 ------------------
 #p CCSD(T)/CEP-31G
 ------------------

 ------------
 H2O_H2O_1796
 ------------
 Symbolic Z-matrix:
 Charge =  0 Multiplicity = 1

                         Standard orientation:
 ---------------------------------------------------------------------
 Center     Atomic      Atomic             Coordinates (Angstroms)
 Number     Number       Type             X           Y           Z
 ---------------------------------------------------------------------
      1          8           0        0.056143   -1.697842    0.000000
      2          1           0       -0.745005   -2.266760    0.000000
      3          1           0        0.854131   -2.271183    0.000000
      4          8           0        0.056143    1.789474    0.000000
      5          1           0       -0.345548    2.686218    0.000000
      6          1           0       -0.661862    1.118672    0.000000
 ---------------------------------------------------------------------

 SCF Done:  E(RHF) =  -33.6525718767     A.U. after   11 cycles
 E2 =    -0.2287784153D+00 EUMP2 =    -0.33881350291967D+02
 CCSD(T)
 CCSD(T)= -0.33898369049D+02

 The electronic state is 1-A'.
 Alpha  occ. eigenvalues --   -1.35797  -1.33328  -0.71440  -0.68883  -0.55577
 Alpha  occ. eigenvalues --   -0.53050  -0.50379  -0.47915
 Alpha virt. eigenvalues --    0.19309   0.23410   0.30159   0.33053   0.76995
 Alpha virt. eigenvalues --    0.79488   0.83318   0.86107   0.87009   1.00719
 Alpha virt. eigenvalues --    1.17064   1.20268   1.21618   1.26799   2.54953

 Mulliken charges:
               1
     1  O   -0.743806
     2  H    0.365261
     3  H    0.379763
     4  O   -0.740205
     5  H    0.354009
     6  H    0.384978
 Sum of Mulliken charges =  -0.00000

 Dipole moment (field-independent basis, Debye):
    X=             -2.5432    Y=             -2.2657    Z=              0.0000  Tot=              3.4060
 Quadrupole moment (field-independent basis, Debye-Ang):
   XX=            -10.0643   YY=              0.5034   ZZ=            -14.9927
   XY=             -4.5016   XZ=              0.0000   YZ=              0.0000

 2\MP4DQ=-33.8926664\MP4SDQ=-33.8947333\CCSD=-33.8957703\CCSD(T)=-33.89
 Normal termination of Gaussian 16 at Sun Dec 10 06:58:15 2023.
