 Gaussian 16, Revision A.03,
 Gaussian 16:  ES64L-G16RevA.03 25-Dec-2016

 ------------------
 #p CCSD(T)/CEP-31G
 ------------------

 ------------
 H2O_H2O_2769
 ------------
 Symbolic Z-matrix:
 Charge =  0 Multiplicity = 1

                         Standard orientation:
 ---------------------------------------------------------------------
 Center     Atomic      Atomic             Coordinates (Angstroms)
 Number     Number       Type             X           Y           Z
 ---------------------------------------------------------------------
      1          8           0        0.054162   -2.224174    0.000000
      2          1           0       -0.746582   -2.793660    0.000000
      3          1           0        0.852556   -2.796950    0.000000
      4          8           0        0.054162    2.301461    0.000000
      5          1           0       -0.227711    3.242765    0.000000
      6          1           0       -0.744852    1.729550    0.000000
 ---------------------------------------------------------------------

 SCF Done:  E(RHF) =  -33.6515143236     A.U. after   11 cycles
 E2 =    -0.2284670177D+00 EUMP2 =    -0.33879981341360D+02
 CCSD(T)
 CCSD(T)= -0.33896990289D+02

 The electronic state is 1-A'.
 Alpha  occ. eigenvalues --   -1.35465  -1.34293  -0.71099  -0.69886  -0.55186
 Alpha  occ. eigenvalues --   -0.53994  -0.50032  -0.48863
 Alpha virt. eigenvalues --    0.20138   0.21620   0.30507   0.31720   0.80512
 Alpha virt. eigenvalues --    0.81677   0.82473   0.85239   0.86637   0.88813
 Alpha virt. eigenvalues --    1.17424   1.18645   1.21849   1.23214   2.57452

 Mulliken charges:
               1
     1  O   -0.740205
     2  H    0.366732
     3  H    0.373560
     4  O   -0.738732
     5  H    0.362506
     6  H    0.376140
 Sum of Mulliken charges =  -0.00000

 Dipole moment (field-independent basis, Debye):
    X=             -2.4849    Y=             -1.8414    Z=              0.0000  Tot=              3.0929
 Quadrupole moment (field-independent basis, Debye-Ang):
   XX=             -9.9368   YY=              5.3602   ZZ=            -14.9891
   XY=             -5.3588   XZ=              0.0000   YZ=              0.0000

 \MP4DQ=-33.8913404\MP4SDQ=-33.8933719\CCSD=-33.894424\CCSD(T)=-33.8969
 Normal termination of Gaussian 16 at Sun Dec 10 06:29:45 2023.
