 Gaussian 16, Revision A.03,
 Gaussian 16:  ES64L-G16RevA.03 25-Dec-2016

 ------------------
 #p CCSD(T)/CEP-31G
 ------------------

 ------------
 H2O_H2O_1337
 ------------
 Symbolic Z-matrix:
 Charge =  0 Multiplicity = 1

                         Standard orientation:
 ---------------------------------------------------------------------
 Center     Atomic      Atomic             Coordinates (Angstroms)
 Number     Number       Type             X           Y           Z
 ---------------------------------------------------------------------
      1          8           0        0.040424   -1.490211    0.000000
      2          1           0       -0.760463   -2.059497    0.000000
      3          1           0        0.838675   -2.063186    0.000000
      4          8           0        0.040424    1.523481    0.000000
      5          1           0        0.204190    2.492340    0.000000
      6          1           0       -0.929180    1.364186    0.000000
 ---------------------------------------------------------------------

 SCF Done:  E(RHF) =  -33.6447167132     A.U. after   11 cycles
 E2 =    -0.2292726483D+00 EUMP2 =    -0.33873989361473D+02
 CCSD(T)
 CCSD(T)= -0.33891269008D+02

 The electronic state is 1-A'.
 Alpha  occ. eigenvalues --   -1.34156  -1.33032  -0.69784  -0.68609  -0.54122
 Alpha  occ. eigenvalues --   -0.51778  -0.48683  -0.47483
 Alpha virt. eigenvalues --    0.20461   0.23428   0.31530   0.32501   0.76968
 Alpha virt. eigenvalues --    0.79455   0.83899   0.85649   0.92339   1.12876
 Alpha virt. eigenvalues --    1.18447   1.21583   1.23108   1.24600   2.60038

 Mulliken charges:
               1
     1  O   -0.722580
     2  H    0.353419
     3  H    0.368723
     4  O   -0.712681
     5  H    0.348031
     6  H    0.365087
 Sum of Mulliken charges =   0.00000

 Dipole moment (field-independent basis, Debye):
    X=             -1.7995    Y=             -0.8302    Z=              0.0000  Tot=              1.9818
 Quadrupole moment (field-independent basis, Debye-Ang):
   XX=             -9.1531   YY=              2.0442   ZZ=            -14.9867
   XY=             -2.0979   XZ=              0.0000   YZ=              0.0000

 MP4DQ=-33.8854729\MP4SDQ=-33.8875739\CCSD=-33.8886357\CCSD(T)=-33.8912
 Normal termination of Gaussian 16 at Sun Dec 10 06:49:45 2023.
