 Gaussian 16, Revision A.03,
 Gaussian 16:  ES64L-G16RevA.03 25-Dec-2016

 ------------------
 #p CCSD(T)/CEP-31G
 ------------------

 -----------
 H2O_H2O_442
 -----------
 Symbolic Z-matrix:
 Charge =  0 Multiplicity = 1

                         Standard orientation:
 ---------------------------------------------------------------------
 Center     Atomic      Atomic             Coordinates (Angstroms)
 Number     Number       Type             X           Y           Z
 ---------------------------------------------------------------------
      1          8           0        0.051360   -0.995265    0.000000
      2          1           0       -0.750657   -1.562958    0.000000
      3          1           0        0.848471   -1.569825    0.000000
      4          8           0        0.051360    1.058529    0.000000
      5          1           0       -0.103066    2.028920    0.000000
      6          1           0       -0.816501    0.597743    0.000000
 ---------------------------------------------------------------------

 SCF Done:  E(RHF) =  -33.6093580611     A.U. after   11 cycles
 E2 =    -0.2320909111D+00 EUMP2 =    -0.33841448972212D+02
 CCSD(T)
 CCSD(T)= -0.33858581630D+02

 The electronic state is 1-A'.
 Alpha  occ. eigenvalues --   -1.35735  -1.30585  -0.71564  -0.68457  -0.54660
 Alpha  occ. eigenvalues --   -0.50295  -0.47075  -0.44818
 Alpha virt. eigenvalues --    0.19801   0.27400   0.30724   0.34104   0.78819
 Alpha virt. eigenvalues --    0.84786   0.89867   0.96185   0.99430   1.14944
 Alpha virt. eigenvalues --    1.19160   1.23606   1.26100   1.32268   2.60248

 Mulliken charges:
               1
     1  O   -0.772267
     2  H    0.353461
     3  H    0.399152
     4  O   -0.668965
     5  H    0.325599
     6  H    0.363020
 Sum of Mulliken charges =  -0.00000

 Dipole moment (field-independent basis, Debye):
    X=             -2.0432    Y=             -1.5977    Z=              0.0000  Tot=              2.5937
 Quadrupole moment (field-independent basis, Debye-Ang):
   XX=             -9.7792   YY=             -4.5473   ZZ=            -14.9930
   XY=             -2.0047   XZ=              0.0000   YZ=              0.0000

 P4DQ=-33.8523635\MP4SDQ=-33.8546753\CCSD=-33.8556226\CCSD(T)=-33.85858
 Normal termination of Gaussian 16 at Sun Dec 10 06:33:02 2023.
