 Gaussian 16, Revision A.03,
 Gaussian 16:  ES64L-G16RevA.03 25-Dec-2016

 ------------------
 #p CCSD(T)/CEP-31G
 ------------------

 ------------
 H2O_H2O_1066
 ------------
 Symbolic Z-matrix:
 Charge =  0 Multiplicity = 1

                         Standard orientation:
 ---------------------------------------------------------------------
 Center     Atomic      Atomic             Coordinates (Angstroms)
 Number     Number       Type             X           Y           Z
 ---------------------------------------------------------------------
      1          8           0        0.049551   -1.331174    0.000000
      2          1           0       -0.751805   -1.899799    0.000000
      3          1           0        0.847329   -1.904807    0.000000
      4          8           0        0.049551    1.387977    0.000000
      5          1           0       -0.042215    2.366284    0.000000
      6          1           0       -0.846119    0.983896    0.000000
 ---------------------------------------------------------------------

 SCF Done:  E(RHF) =  -33.6449327393     A.U. after   11 cycles
 E2 =    -0.2297226841D+00 EUMP2 =    -0.33874655423359D+02
 CCSD(T)
 CCSD(T)= -0.33891926380D+02

 The electronic state is 1-A'.
 Alpha  occ. eigenvalues --   -1.34731  -1.32389  -0.70376  -0.68072  -0.54622
 Alpha  occ. eigenvalues --   -0.51309  -0.49296  -0.46857
 Alpha virt. eigenvalues --    0.19945   0.24731   0.31082   0.33157   0.78363
 Alpha virt. eigenvalues --    0.80908   0.85898   0.87132   0.92322   1.16333
 Alpha virt. eigenvalues --    1.18377   1.22055   1.22655   1.28493   2.62389

 Mulliken charges:
               1
     1  O   -0.735579
     2  H    0.354353
     3  H    0.378690
     4  O   -0.710286
     5  H    0.342076
     6  H    0.370745
 Sum of Mulliken charges =   0.00000

 Dipole moment (field-independent basis, Debye):
    X=             -2.1642    Y=             -1.4284    Z=              0.0000  Tot=              2.5931
 Quadrupole moment (field-independent basis, Debye-Ang):
   XX=             -9.6496   YY=             -0.5086   ZZ=            -14.9917
   XY=             -2.5988   XZ=              0.0000   YZ=              0.0000

 \MP4DQ=-33.8860618\MP4SDQ=-33.8881967\CCSD=-33.8892502\CCSD(T)=-33.891
 Normal termination of Gaussian 16 at Sun Dec 10 06:44:41 2023.
