 Gaussian 16, Revision A.03,
 Gaussian 16:  ES64L-G16RevA.03 25-Dec-2016

 ------------------
 #p CCSD(T)/CEP-31G
 ------------------

 ------------
 H2O_H2O_2241
 ------------
 Symbolic Z-matrix:
 Charge =  0 Multiplicity = 1

                         Standard orientation:
 ---------------------------------------------------------------------
 Center     Atomic      Atomic             Coordinates (Angstroms)
 Number     Number       Type             X           Y           Z
 ---------------------------------------------------------------------
      1          8           0        0.049523   -1.956031    0.000000
      2          1           0       -0.751272   -2.525446    0.000000
      3          1           0        0.847866   -2.528877    0.000000
      4          8           0        0.049523    2.012931    0.000000
      5          1           0       -0.043208    2.991148    0.000000
      6          1           0       -0.845748    1.607968    0.000000
 ---------------------------------------------------------------------

 SCF Done:  E(RHF) =  -33.6502587249     A.U. after   11 cycles
 E2 =    -0.2286186594D+00 EUMP2 =    -0.33878877384304D+02
 CCSD(T)
 CCSD(T)= -0.33895927873D+02

 The electronic state is 1-A'.
 Alpha  occ. eigenvalues --   -1.35107  -1.33967  -0.70739  -0.69547  -0.54760
 Alpha  occ. eigenvalues --   -0.53590  -0.49656  -0.48522
 Alpha virt. eigenvalues --    0.20198   0.22073   0.30765   0.31964   0.79188
 Alpha virt. eigenvalues --    0.80677   0.82230   0.85852   0.87190   0.93987
 Alpha virt. eigenvalues --    1.17724   1.19072   1.22117   1.23594   2.57516

 Mulliken charges:
               1
     1  O   -0.735845
     2  H    0.363508
     3  H    0.372593
     4  O   -0.732977
     5  H    0.358762
     6  H    0.373959
 Sum of Mulliken charges =   0.00000

 Dipole moment (field-independent basis, Debye):
    X=             -2.2597    Y=             -1.3745    Z=              0.0000  Tot=              2.6449
 Quadrupole moment (field-independent basis, Debye-Ang):
   XX=             -9.6296   YY=              4.9773   ZZ=            -14.9880
   XY=             -3.9605   XZ=              0.0000   YZ=              0.0000

 MP4DQ=-33.8902581\MP4SDQ=-33.8923006\CCSD=-33.8933506\CCSD(T)=-33.8959
 Normal termination of Gaussian 16 at Sun Dec 10 07:07:44 2023.
