 Gaussian 16, Revision A.03,
 Gaussian 16:  ES64L-G16RevA.03 25-Dec-2016

 ------------------
 #p CCSD(T)/CEP-31G
 ------------------

 ----------
 H2O_H2O_52
 ----------
 Symbolic Z-matrix:
 Charge =  0 Multiplicity = 1

                         Standard orientation:
 ---------------------------------------------------------------------
 Center     Atomic      Atomic             Coordinates (Angstroms)
 Number     Number       Type             X           Y           Z
 ---------------------------------------------------------------------
      1          8           0        0.007455   -0.829666    0.000000
      2          1           0       -0.792557   -1.400180    0.000000
      3          1           0        0.806585   -1.401416    0.000000
      4          8           0        0.007455    0.830632    0.000000
      5          1           0        0.726156    1.500687    0.000000
      6          1           0       -0.859467    1.293183    0.000000
 ---------------------------------------------------------------------

 SCF Done:  E(RHF) =  -33.4848822370     A.U. after   11 cycles
 E2 =    -0.2389613057D+00 EUMP2 =    -0.33723843542776D+02
 CCSD(T)
 CCSD(T)= -0.33740131905D+02

 The electronic state is 1-A'.
 Alpha  occ. eigenvalues --   -1.36921  -1.28916  -0.70523  -0.66828  -0.64990
 Alpha  occ. eigenvalues --   -0.51622  -0.42421  -0.31333
 Alpha virt. eigenvalues --    0.21138   0.28612   0.31617   0.33709   0.79871
 Alpha virt. eigenvalues --    0.82248   0.87872   0.89018   1.04526   1.19336
 Alpha virt. eigenvalues --    1.20530   1.24979   1.27915   1.39005   2.51662

 Mulliken charges:
               1
     1  O   -0.689398
     2  H    0.337493
     3  H    0.351502
     4  O   -0.686653
     5  H    0.343518
     6  H    0.343538
 Sum of Mulliken charges =   0.00000

 Dipole moment (field-independent basis, Debye):
    X=             -0.2716    Y=             -0.0288    Z=              0.0000  Tot=              0.2731
 Quadrupole moment (field-independent basis, Debye-Ang):
   XX=             -8.5846   YY=             -7.7052   ZZ=            -15.0301
   XY=             -0.1816   XZ=              0.0000   YZ=              0.0000

 DQ=-33.733179\MP4SDQ=-33.7360101\CCSD=-33.7365402\CCSD(T)=-33.7401319\
 Normal termination of Gaussian 16 at Sun Dec 10 06:25:42 2023.
