 Gaussian 16, Revision A.03,
 Gaussian 16:  ES64L-G16RevA.03 25-Dec-2016

 ------------------
 #p CCSD(T)/CEP-31G
 ------------------

 ------------
 H2O_H2O_1841
 ------------
 Symbolic Z-matrix:
 Charge =  0 Multiplicity = 1

                         Standard orientation:
 ---------------------------------------------------------------------
 Center     Atomic      Atomic             Coordinates (Angstroms)
 Number     Number       Type             X           Y           Z
 ---------------------------------------------------------------------
      1          8           0        0.049530   -1.743309    0.000000
      2          1           0       -0.751411   -2.312518    0.000000
      3          1           0        0.847726   -2.316361    0.000000
      4          8           0        0.049530    1.800185    0.000000
      5          1           0       -0.042948    2.778425    0.000000
      6          1           0       -0.845845    1.395452    0.000000
 ---------------------------------------------------------------------

 SCF Done:  E(RHF) =  -33.6496111344     A.U. after   11 cycles
 E2 =    -0.2288114679D+00 EUMP2 =    -0.33878422602298D+02
 CCSD(T)
 CCSD(T)= -0.33895513379D+02

 The electronic state is 1-A'.
 Alpha  occ. eigenvalues --   -1.35020  -1.33574  -0.70654  -0.69136  -0.54667
 Alpha  occ. eigenvalues --   -0.53123  -0.49563  -0.48122
 Alpha virt. eigenvalues --    0.19995   0.22741   0.30800   0.32320   0.76103
 Alpha virt. eigenvalues --    0.80199   0.83217   0.85749   0.87889   1.01574
 Alpha virt. eigenvalues --    1.17761   1.19924   1.22192   1.24359   2.56946

 Mulliken charges:
               1
     1  O   -0.733836
     2  H    0.361043
     3  H    0.373365
     4  O   -0.729087
     5  H    0.354367
     6  H    0.374148
 Sum of Mulliken charges =   0.00000

 Dipole moment (field-independent basis, Debye):
    X=             -2.2436    Y=             -1.3970    Z=              0.0000  Tot=              2.6430
 Quadrupole moment (field-independent basis, Debye-Ang):
   XX=             -9.6326   YY=              3.1997   ZZ=            -14.9882
   XY=             -3.4937   XZ=              0.0000   YZ=              0.0000

 7\MP4DQ=-33.8898111\MP4SDQ=-33.8918738\CCSD=-33.8929195\CCSD(T)=-33.89
 Normal termination of Gaussian 16 at Sun Dec 10 06:59:05 2023.
