 Gaussian 16, Revision A.03,
 Gaussian 16:  ES64L-G16RevA.03 25-Dec-2016

 ------------------
 #p CCSD(T)/CEP-31G
 ------------------

 ------------
 H2O_H2O_1632
 ------------
 Symbolic Z-matrix:
 Charge =  0 Multiplicity = 1

                         Standard orientation:
 ---------------------------------------------------------------------
 Center     Atomic      Atomic             Coordinates (Angstroms)
 Number     Number       Type             X           Y           Z
 ---------------------------------------------------------------------
      1          8           0        0.025268   -1.661470    0.000000
      2          1           0       -0.775047   -2.231559    0.000000
      3          1           0        0.824094   -2.233645    0.000000
      4          8           0        0.025268    1.673184    0.000000
      5          1           0        0.490905    2.538452    0.000000
      6          1           0       -0.944243    1.833040    0.000000
 ---------------------------------------------------------------------

 SCF Done:  E(RHF) =  -33.6447403964     A.U. after   11 cycles
 E2 =    -0.2289872714D+00 EUMP2 =    -0.33873727667789D+02
 CCSD(T)
 CCSD(T)= -0.33890967485D+02

 The electronic state is 1-A'.
 Alpha  occ. eigenvalues --   -1.33863  -1.33530  -0.69483  -0.69130  -0.53750
 Alpha  occ. eigenvalues --   -0.52282  -0.48379  -0.47966
 Alpha virt. eigenvalues --    0.20931   0.22529   0.31782   0.32100   0.76103
 Alpha virt. eigenvalues --    0.80484   0.84288   0.84620   0.92168   1.04672
 Alpha virt. eigenvalues --    1.18759   1.19306   1.23348   1.23695   2.58726

 Mulliken charges:
               1
     1  O   -0.718537
     2  H    0.355564
     3  H    0.363031
     4  O   -0.716166
     5  H    0.353838
     6  H    0.362270
 Sum of Mulliken charges =  -0.00000

 Dipole moment (field-independent basis, Debye):
    X=             -1.1409    Y=             -0.2908    Z=              0.0000  Tot=              1.1774
 Quadrupole moment (field-independent basis, Debye-Ang):
   XX=             -8.5313   YY=              4.7519   ZZ=            -14.9841
   XY=             -1.3239   XZ=              0.0000   YZ=              0.0000

 4DQ=-33.8852176\MP4SDQ=-33.887294\CCSD=-33.8883554\CCSD(T)=-33.8909675
 Normal termination of Gaussian 16 at Sun Dec 10 06:55:14 2023.
