 Gaussian 16, Revision A.03,
 Gaussian 16:  ES64L-G16RevA.03 25-Dec-2016

 ------------------
 #p CCSD(T)/CEP-31G
 ------------------

 ------------
 H2O_H2O_1591
 ------------
 Symbolic Z-matrix:
 Charge =  0 Multiplicity = 1

                         Standard orientation:
 ---------------------------------------------------------------------
 Center     Atomic      Atomic             Coordinates (Angstroms)
 Number     Number       Type             X           Y           Z
 ---------------------------------------------------------------------
      1          8           0        0.049535   -1.610361    0.000000
      2          1           0       -0.751517   -2.179413    0.000000
      3          1           0        0.847620   -2.183568    0.000000
      4          8           0        0.049535    1.667217    0.000000
      5          1           0       -0.042752    2.645475    0.000000
      6          1           0       -0.845919    1.262659    0.000000
 ---------------------------------------------------------------------

 SCF Done:  E(RHF) =  -33.6488863252     A.U. after   11 cycles
 E2 =    -0.2290035538D+00 EUMP2 =    -0.33877889879001D+02
 CCSD(T)
 CCSD(T)= -0.33895029684D+02

 The electronic state is 1-A'.
 Alpha  occ. eigenvalues --   -1.34945  -1.33261  -0.70581  -0.68818  -0.54614
 Alpha  occ. eigenvalues --   -0.52718  -0.49485  -0.47800
 Alpha virt. eigenvalues --    0.19925   0.23276   0.30860   0.32566   0.75434
 Alpha virt. eigenvalues --    0.79660   0.84207   0.85482   0.88830   1.07481
 Alpha virt. eigenvalues --    1.17781   1.20745   1.22331   1.25103   2.57040

 Mulliken charges:
               1
     1  O   -0.732553
     2  H    0.358985
     3  H    0.374153
     4  O   -0.725230
     5  H    0.350776
     6  H    0.373868
 Sum of Mulliken charges =   0.00000

 Dipole moment (field-independent basis, Debye):
    X=             -2.2275    Y=             -1.4117    Z=              0.0000  Tot=              2.6372
 Quadrupole moment (field-independent basis, Debye-Ang):
   XX=             -9.6363   YY=              2.0567   ZZ=            -14.9886
   XY=             -3.2040   XZ=              0.0000   YZ=              0.0000

 \MP4DQ=-33.8892911\MP4SDQ=-33.8913732\CCSD=-33.892419\CCSD(T)=-33.8950
 Normal termination of Gaussian 16 at Sun Dec 10 06:54:28 2023.
