 Gaussian 16, Revision A.03,
 Gaussian 16:  ES64L-G16RevA.03 25-Dec-2016

 ------------------
 #p CCSD(T)/CEP-31G
 ------------------

 ----------
 H2O_H2O_85
 ----------
 Symbolic Z-matrix:
 Charge =  0 Multiplicity = 1

                         Standard orientation:
 ---------------------------------------------------------------------
 Center     Atomic      Atomic             Coordinates (Angstroms)
 Number     Number       Type             X           Y           Z
 ---------------------------------------------------------------------
      1          8           0        0.034810   -0.830797    0.000000
      2          1           0       -0.766785   -1.399085    0.000000
      3          1           0        0.832347   -1.404766    0.000000
      4          8           0        0.034810    0.854154    0.000000
      5          1           0        0.324807    1.792988    0.000000
      6          1           0       -0.947329    0.824005    0.000000
 ---------------------------------------------------------------------

 SCF Done:  E(RHF) =  -33.5076199572     A.U. after   12 cycles
 E2 =    -0.2370469641D+00 EUMP2 =    -0.33744666921295D+02
 CCSD(T)
 CCSD(T)= -0.33761368781D+02

 The electronic state is 1-A'.
 Alpha  occ. eigenvalues --   -1.37440  -1.29035  -0.72252  -0.68451  -0.60641
 Alpha  occ. eigenvalues --   -0.51852  -0.42834  -0.35057
 Alpha virt. eigenvalues --    0.20510   0.28458   0.31417   0.33529   0.81646
 Alpha virt. eigenvalues --    0.84242   0.89146   0.92166   0.98830   1.19608
 Alpha virt. eigenvalues --    1.21841   1.24759   1.26683   1.38056   2.54467

 Mulliken charges:
               1
     1  O   -0.730049
     2  H    0.333340
     3  H    0.383471
     4  O   -0.661565
     5  H    0.331692
     6  H    0.343111
 Sum of Mulliken charges =  -0.00000

 Dipole moment (field-independent basis, Debye):
    X=             -1.2594    Y=             -0.6283    Z=              0.0000  Tot=              1.4074
 Quadrupole moment (field-independent basis, Debye-Ang):
   XX=             -9.1011   YY=             -7.3059   ZZ=            -14.9787
   XY=             -0.8622   XZ=              0.0000   YZ=              0.0000

 Q=-33.7545847\MP4SDQ=-33.7572996\CCSD=-33.7579343\CCSD(T)=-33.7613688\
 Normal termination of Gaussian 16 at Sun Dec 10 06:26:19 2023.
