 Gaussian 16, Revision A.03,
 Gaussian 16:  ES64L-G16RevA.03 25-Dec-2016

 ------------------
 #p CCSD(T)/CEP-31G
 ------------------

 ----------
 H2O_H2O_69
 ----------
 Symbolic Z-matrix:
 Charge =  0 Multiplicity = 1

                         Standard orientation:
 ---------------------------------------------------------------------
 Center     Atomic      Atomic             Coordinates (Angstroms)
 Number     Number       Type             X           Y           Z
 ---------------------------------------------------------------------
      1          8           0        0.054300   -0.788418    0.000000
      2          1           0       -0.748474   -1.355039    0.000000
      3          1           0        0.850642   -1.364043    0.000000
      4          8           0        0.054300    0.865317    0.000000
      5          1           0       -0.224208    1.807623    0.000000
      6          1           0       -0.746753    0.296264    0.000000
 ---------------------------------------------------------------------

 SCF Done:  E(RHF) =  -33.4648933915     A.U. after   12 cycles
 E2 =    -0.2369405362D+00 EUMP2 =    -0.33701833927736D+02
 CCSD(T)
 CCSD(T)= -0.33718227123D+02

 The electronic state is 1-A'.
 Alpha  occ. eigenvalues --   -1.42460  -1.28318  -0.78354  -0.72239  -0.54873
 Alpha  occ. eigenvalues --   -0.52594  -0.42827  -0.39491
 Alpha virt. eigenvalues --    0.19231   0.28776   0.30555   0.34576   0.79694
 Alpha virt. eigenvalues --    0.82754   0.89331   0.95032   0.96723   1.18163
 Alpha virt. eigenvalues --    1.19930   1.26734   1.30243   1.39845   2.72982

 Mulliken charges:
               1
     1  O   -0.779509
     2  H    0.346501
     3  H    0.426914
     4  O   -0.633115
     5  H    0.277626
     6  H    0.361583
 Sum of Mulliken charges =   0.00000

 Dipole moment (field-independent basis, Debye):
    X=             -1.9040    Y=             -2.1120    Z=              0.0000  Tot=              2.8436
 Quadrupole moment (field-independent basis, Debye-Ang):
   XX=             -9.9670   YY=             -8.4644   ZZ=            -14.8964
   XY=             -1.7013   XZ=              0.0000   YZ=              0.0000

 P4DQ=-33.7112538\MP4SDQ=-33.7140623\CCSD=-33.7145872\CCSD(T)=-33.71822
 Normal termination of Gaussian 16 at Sun Dec 10 06:26:01 2023.
