 Gaussian 16, Revision A.03,
 Gaussian 16:  ES64L-G16RevA.03 25-Dec-2016

 ------------------
 #p CCSD(T)/CEP-31G
 ------------------

 ------------
 H2O_H2O_3049
 ------------
 Symbolic Z-matrix:
 Charge =  0 Multiplicity = 1

                         Standard orientation:
 ---------------------------------------------------------------------
 Center     Atomic      Atomic             Coordinates (Angstroms)
 Number     Number       Type             X           Y           Z
 ---------------------------------------------------------------------
      1          8           0        0.057230   -2.350496    0.000000
      2          1           0       -0.743506   -2.919994    0.000000
      3          1           0        0.855633   -2.923260    0.000000
      4          8           0        0.057230    2.464489    0.000000
      5          1           0       -0.512268    3.265225    0.000000
      6          1           0       -0.515534    1.666086    0.000000
 ---------------------------------------------------------------------

 SCF Done:  E(RHF) =  -33.6527182695     A.U. after   11 cycles
 E2 =    -0.2283835701D+00 EUMP2 =    -0.33881101839541D+02
 CCSD(T)
 CCSD(T)= -0.33898074885D+02

 The electronic state is 1-A'.
 Alpha  occ. eigenvalues --   -1.35888  -1.34381  -0.71525  -0.69980  -0.55679
 Alpha  occ. eigenvalues --   -0.54131  -0.50472  -0.48964
 Alpha virt. eigenvalues --    0.19813   0.21587   0.30166   0.31748   0.80085
 Alpha virt. eigenvalues --    0.81554   0.82803   0.84783   0.86141   0.87884
 Alpha virt. eigenvalues --    1.17053   1.18603   1.21486   1.23263   2.57050

 Mulliken charges:
               1
     1  O   -0.744338
     2  H    0.369375
     3  H    0.375067
     4  O   -0.743987
     5  H    0.364310
     6  H    0.379573
 Sum of Mulliken charges =   0.00000

 Dipole moment (field-independent basis, Debye):
    X=             -2.6295    Y=             -2.7059    Z=              0.0000  Tot=              3.7731
 Quadrupole moment (field-independent basis, Debye-Ang):
   XX=            -10.1608   YY=              2.3766   ZZ=            -14.9909
   XY=             -6.7098   XZ=              0.0000   YZ=              0.0000

 \MP4DQ=-33.8924347\MP4SDQ=-33.8944627\CCSD=-33.8955131\CCSD(T)=-33.898
 Normal termination of Gaussian 16 at Sun Dec 10 06:34:49 2023.
