 Gaussian 16, Revision A.03,
 Gaussian 16:  ES64L-G16RevA.03 25-Dec-2016

 ------------------
 #p CCSD(T)/CEP-31G
 ------------------

 ------------
 H2O_H2O_1001
 ------------
 Symbolic Z-matrix:
 Charge =  0 Multiplicity = 1

                         Standard orientation:
 ---------------------------------------------------------------------
 Center     Atomic      Atomic             Coordinates (Angstroms)
 Number     Number       Type             X           Y           Z
 ---------------------------------------------------------------------
      1          8           0        0.003735   -1.335304    0.000000
      2          1           0       -0.795973   -1.906243    0.000000
      3          1           0        0.803169   -1.906628    0.000000
      4          8           0        0.003735    1.335546    0.000000
      5          1           0        0.764391    1.957566    0.000000
      6          1           0       -0.831353    1.853362    0.000000
 ---------------------------------------------------------------------

 SCF Done:  E(RHF) =  -33.6348848289     A.U. after   11 cycles
 E2 =    -0.2296649235D+00 EUMP2 =    -0.33864549752343D+02
 CCSD(T)
 CCSD(T)= -0.33881979889D+02

 The electronic state is 1-A'.
 Alpha  occ. eigenvalues --   -1.32899  -1.32446  -0.68457  -0.68103  -0.54219
 Alpha  occ. eigenvalues --   -0.48989  -0.47556  -0.46542
 Alpha virt. eigenvalues --    0.21458   0.23694   0.32470   0.32797   0.79526
 Alpha virt. eigenvalues --    0.80052   0.84575   0.87931   1.03825   1.08277
 Alpha virt. eigenvalues --    1.19535   1.20735   1.24396   1.24711   2.57523

 Mulliken charges:
               1
     1  O   -0.701742
     2  H    0.349834
     3  H    0.351869
     4  O   -0.701538
     5  H    0.350423
     6  H    0.351153
 Sum of Mulliken charges =  -0.00000

 Dipole moment (field-independent basis, Debye):
    X=             -0.1625    Y=             -0.0059    Z=              0.0000  Tot=              0.1626
 Quadrupole moment (field-independent basis, Debye-Ang):
   XX=             -8.2325   YY=              1.2383   ZZ=            -14.9902
   XY=             -0.1308   XZ=              0.0000   YZ=              0.0000

 MP4DQ=-33.8761044\MP4SDQ=-33.8782013\CCSD=-33.8792954\CCSD(T)=-33.8819
 Normal termination of Gaussian 16 at Sun Dec 10 06:43:28 2023.
