 Gaussian 16, Revision A.03,
 Gaussian 16:  ES64L-G16RevA.03 25-Dec-2016

 ------------------
 #p CCSD(T)/CEP-31G
 ------------------

 ------------
 H2O_H2O_4104
 ------------
 Symbolic Z-matrix:
 Charge =  0 Multiplicity = 1

                         Standard orientation:
 ---------------------------------------------------------------------
 Center     Atomic      Atomic             Coordinates (Angstroms)
 Number     Number       Type             X           Y           Z
 ---------------------------------------------------------------------
      1          8           0        0.014783   -2.982021    0.000000
      2          1           0       -0.785032   -3.552812    0.000000
      3          1           0        0.814110   -3.553494    0.000000
      4          8           0        0.014783    2.985901    0.000000
      5          1           0        0.639613    3.744250    0.000000
      6          1           0       -0.905217    3.331020    0.000000
 ---------------------------------------------------------------------

 SCF Done:  E(RHF) =  -33.6504302169     A.U. after   11 cycles
 E2 =    -0.2284525898D+00 EUMP2 =    -0.33878882806666D+02
 CCSD(T)
 CCSD(T)= -0.33895922215D+02

 The electronic state is 1-A'.
 Alpha  occ. eigenvalues --   -1.34947  -1.34914  -0.70574  -0.70540  -0.54605
 Alpha  occ. eigenvalues --   -0.54573  -0.49498  -0.49465
 Alpha virt. eigenvalues --    0.20750   0.20783   0.30981   0.31012   0.81056
 Alpha virt. eigenvalues --    0.81088   0.84196   0.84266   0.87272   0.87312
 Alpha virt. eigenvalues --    1.17897   1.17929   1.22366   1.22399   2.57947

 Mulliken charges:
               1
     1  O   -0.736301
     2  H    0.367696
     3  H    0.368605
     4  O   -0.736242
     5  H    0.367490
     6  H    0.368752
 Sum of Mulliken charges =   0.00000

 Dipole moment (field-independent basis, Debye):
    X=             -0.6819    Y=             -0.0909    Z=              0.0000  Tot=              0.6880
 Quadrupole moment (field-independent basis, Debye-Ang):
   XX=             -8.1832   YY=             19.2283   ZZ=            -14.9866
   XY=             -1.5973   XZ=              0.0000   YZ=              0.0000

 \MP4DQ=-33.8902674\MP4SDQ=-33.8922988\CCSD=-33.8933566\CCSD(T)=-33.895
 Normal termination of Gaussian 16 at Sun Dec 10 06:54:02 2023.
