 Gaussian 16, Revision A.03,
 Gaussian 16:  ES64L-G16RevA.03 25-Dec-2016

 ------------------
 #p CCSD(T)/CEP-31G
 ------------------

 ------------
 H2O_H2O_1020
 ------------
 Symbolic Z-matrix:
 Charge =  0 Multiplicity = 1

                         Standard orientation:
 ---------------------------------------------------------------------
 Center     Atomic      Atomic             Coordinates (Angstroms)
 Number     Number       Type             X           Y           Z
 ---------------------------------------------------------------------
      1          8           0        0.055318   -1.289665    0.000000
      2          1           0       -0.746285   -1.857943    0.000000
      3          1           0        0.852847   -1.863645    0.000000
      4          8           0        0.055318    1.373934    0.000000
      5          1           0       -0.286126    2.295304    0.000000
      6          1           0       -0.705519    0.752137    0.000000
 ---------------------------------------------------------------------

 SCF Done:  E(RHF) =  -33.6483046310     A.U. after   11 cycles
 E2 =    -0.2298181101D+00 EUMP2 =    -0.33878122741136D+02
 CCSD(T)
 CCSD(T)= -0.33895229501D+02

 The electronic state is 1-A'.
 Alpha  occ. eigenvalues --   -1.35787  -1.31964  -0.71451  -0.67961  -0.55179
 Alpha  occ. eigenvalues --   -0.51582  -0.50373  -0.46509
 Alpha virt. eigenvalues --    0.19356   0.25655   0.30252   0.34432   0.77563
 Alpha virt. eigenvalues --    0.80585   0.87347   0.87956   0.93352   1.14847
 Alpha virt. eigenvalues --    1.19170   1.20112   1.22617   1.29694   2.62717

 Mulliken charges:
               1
     1  O   -0.753280
     2  H    0.360584
     3  H    0.391548
     4  O   -0.721718
     5  H    0.338539
     6  H    0.384325
 Sum of Mulliken charges =  -0.00000

 Dipole moment (field-independent basis, Debye):
    X=             -2.4047    Y=             -2.1599    Z=              0.0000  Tot=              3.2323
 Quadrupole moment (field-independent basis, Debye-Ang):
   XX=             -9.9983   YY=             -2.1340   ZZ=            -14.9983
   XY=             -3.2818   XZ=              0.0000   YZ=              0.0000

 8\MP4DQ=-33.8893421\MP4SDQ=-33.8914929\CCSD=-33.8925166\CCSD(T)=-33.89
 Normal termination of Gaussian 16 at Sun Dec 10 06:43:49 2023.
