 Gaussian 16, Revision A.03,
 Gaussian 16:  ES64L-G16RevA.03 25-Dec-2016

 ------------------
 #p CCSD(T)/CEP-31G
 ------------------

 ------------
 H2O_H2O_4919
 ------------
 Symbolic Z-matrix:
 Charge =  0 Multiplicity = 1

                         Standard orientation:
 ---------------------------------------------------------------------
 Center     Atomic      Atomic             Coordinates (Angstroms)
 Number     Number       Type             X           Y           Z
 ---------------------------------------------------------------------
      1          8           0        0.054135   -3.367583    0.000000
      2          1           0       -0.746216   -3.937622    0.000000
      3          1           0        0.852925   -3.939808    0.000000
      4          8           0        0.054135    3.444945    0.000000
      5          1           0       -0.228388    4.386054    0.000000
      6          1           0       -0.744484    2.872482    0.000000
 ---------------------------------------------------------------------

 SCF Done:  E(RHF) =  -33.6516844605     A.U. after   11 cycles
 E2 =    -0.2283877181D+00 EUMP2 =    -0.33880072178619D+02
 CCSD(T)
 CCSD(T)= -0.33897075402D+02

 The electronic state is 1-A'.
 Alpha  occ. eigenvalues --   -1.35529  -1.35037  -0.71161  -0.70660  -0.55258
 Alpha  occ. eigenvalues --   -0.54761  -0.50099  -0.49607
 Alpha virt. eigenvalues --    0.20237   0.20741   0.30476   0.30973   0.80453
 Alpha virt. eigenvalues --    0.80939   0.83488   0.83983   0.86596   0.87129
 Alpha virt. eigenvalues --    1.17369   1.17858   1.21827   1.22324   2.57388

 Mulliken charges:
               1
     1  O   -0.740757
     2  H    0.369293
     3  H    0.371464
     4  O   -0.740548
     5  H    0.368051
     6  H    0.372497
 Sum of Mulliken charges =  -0.00000

 Dipole moment (field-independent basis, Debye):
    X=             -2.5000    Y=             -1.8060    Z=              0.0000  Tot=              3.0841
 Quadrupole moment (field-independent basis, Debye-Ang):
   XX=             -9.9430   YY=             13.4942   ZZ=            -14.9885
   XY=             -8.1810   XZ=              0.0000   YZ=              0.0000

 \MP4DQ=-33.8914305\MP4SDQ=-33.8934584\CCSD=-33.894514\CCSD(T)=-33.8970
 Normal termination of Gaussian 16 at Sun Dec 10 07:10:20 2023.
