 Gaussian 16, Revision A.03,
 Gaussian 16:  ES64L-G16RevA.03 25-Dec-2016

 ------------------
 #p CCSD(T)/CEP-31G
 ------------------

 ------------
 H2O_H2O_1396
 ------------
 Symbolic Z-matrix:
 Charge =  0 Multiplicity = 1

                         Standard orientation:
 ---------------------------------------------------------------------
 Center     Atomic      Atomic             Coordinates (Angstroms)
 Number     Number       Type             X           Y           Z
 ---------------------------------------------------------------------
      1          8           0        0.056160   -1.485130    0.000000
      2          1           0       -0.745206   -2.053741    0.000000
      3          1           0        0.853928   -2.058777    0.000000
      4          8           0        0.056160    1.576718    0.000000
      5          1           0       -0.345186    2.473617    0.000000
      6          1           0       -0.662102    0.906192    0.000000
 ---------------------------------------------------------------------

 SCF Done:  E(RHF) =  -33.6523149227     A.U. after   11 cycles
 E2 =    -0.2291626032D+00 EUMP2 =    -0.33881477525929D+02
 CCSD(T)
 CCSD(T)= -0.33898536181D+02

 The electronic state is 1-A'.
 Alpha  occ. eigenvalues --   -1.35901  -1.32682  -0.71551  -0.68314  -0.55642
 Alpha  occ. eigenvalues --   -0.52408  -0.50488  -0.47270
 Alpha virt. eigenvalues --    0.19231   0.24570   0.30114   0.33953   0.76602
 Alpha virt. eigenvalues --    0.78404   0.85101   0.86635   0.89486   1.09936
 Alpha virt. eigenvalues --    1.16920   1.20509   1.21973   1.28602   2.55043

 Mulliken charges:
               1
     1  O   -0.747671
     2  H    0.363597
     3  H    0.385305
     4  O   -0.736768
     5  H    0.347184
     6  H    0.388353
 Sum of Mulliken charges =  -0.00000

 Dipole moment (field-independent basis, Debye):
    X=             -2.5077    Y=             -2.3123    Z=              0.0000  Tot=              3.4110
 Quadrupole moment (field-independent basis, Debye-Ang):
   XX=            -10.0581   YY=             -0.9949   ZZ=            -14.9955
   XY=             -3.9658   XZ=              0.0000   YZ=              0.0000

 4DQ=-33.8927612\MP4SDQ=-33.8948628\CCSD=-33.8958946\CCSD(T)=-33.898536
 Normal termination of Gaussian 16 at Sun Dec 10 06:50:50 2023.
