 Gaussian 16, Revision A.03,
 Gaussian 16:  ES64L-G16RevA.03 25-Dec-2016

 ------------------
 #p CCSD(T)/CEP-31G
 ------------------

 ------------
 H2O_H2O_2929
 ------------
 Symbolic Z-matrix:
 Charge =  0 Multiplicity = 1

                         Standard orientation:
 ---------------------------------------------------------------------
 Center     Atomic      Atomic             Coordinates (Angstroms)
 Number     Number       Type             X           Y           Z
 ---------------------------------------------------------------------
      1          8           0        0.014783   -2.357115    0.000000
      2          1           0       -0.785096   -2.927816    0.000000
      3          1           0        0.814046   -2.928678    0.000000
      4          8           0        0.014783    2.360991    0.000000
      5          1           0        0.639699    3.119269    0.000000
      6          1           0       -0.905178    2.706215    0.000000
 ---------------------------------------------------------------------

 SCF Done:  E(RHF) =  -33.6490388952     A.U. after   11 cycles
 E2 =    -0.2285425149D+00 EUMP2 =    -0.33877581410088D+02
 CCSD(T)
 CCSD(T)= -0.33894661197D+02

 The electronic state is 1-A'.
 Alpha  occ. eigenvalues --   -1.34570  -1.34517  -0.70194  -0.70138  -0.54173
 Alpha  occ. eigenvalues --   -0.54064  -0.49101  -0.49048
 Alpha virt. eigenvalues --    0.20986   0.21170   0.31275   0.31333   0.81396
 Alpha virt. eigenvalues --    0.81556   0.83462   0.86058   0.87654   0.87993
 Alpha virt. eigenvalues --    1.18217   1.18268   1.22693   1.22758   2.58296

 Mulliken charges:
               1
     1  O   -0.731532
     2  H    0.364901
     3  H    0.366632
     4  O   -0.731359
     5  H    0.364565
     6  H    0.366793
 Sum of Mulliken charges =  -0.00000

 Dipole moment (field-independent basis, Debye):
    X=             -0.6791    Y=             -0.0920    Z=              0.0000  Tot=              0.6853
 Quadrupole moment (field-independent basis, Debye-Ang):
   XX=             -8.2039   YY=             12.6169   ZZ=            -14.9853
   XY=             -1.1816   XZ=              0.0000   YZ=              0.0000

 4DQ=-33.8889945\MP4SDQ=-33.8910302\CCSD=-33.8920896\CCSD(T)=-33.894661
 Normal termination of Gaussian 16 at Sun Dec 10 06:32:43 2023.
