 Gaussian 16, Revision A.03,
 Gaussian 16:  ES64L-G16RevA.03 25-Dec-2016

 ------------------
 #p CCSD(T)/CEP-31G
 ------------------

 ------------
 H2O_H2O_2418
 ------------
 Symbolic Z-matrix:
 Charge =  0 Multiplicity = 1

                         Standard orientation:
 ---------------------------------------------------------------------
 Center     Atomic      Atomic             Coordinates (Angstroms)
 Number     Number       Type             X           Y           Z
 ---------------------------------------------------------------------
      1          8           0        0.052843   -2.041835    0.000000
      2          1           0       -0.747976   -2.611216    0.000000
      3          1           0        0.851163   -2.614714    0.000000
      4          8           0        0.052843    2.112117    0.000000
      5          1           0       -0.166737    3.069871    0.000000
      6          1           0       -0.781933    1.593797    0.000000
 ---------------------------------------------------------------------

 SCF Done:  E(RHF) =  -33.6511259753     A.U. after   11 cycles
 E2 =    -0.2285424506D+00 EUMP2 =    -0.33879668425937D+02
 CCSD(T)
 CCSD(T)= -0.33896691163D+02

 The electronic state is 1-A'.
 Alpha  occ. eigenvalues --   -1.35351  -1.34068  -0.70984  -0.69650  -0.55048
 Alpha  occ. eigenvalues --   -0.53744  -0.49912  -0.48634
 Alpha virt. eigenvalues --    0.20068   0.21962   0.30572   0.31931   0.80556
 Alpha virt. eigenvalues --    0.80644   0.81980   0.85664   0.86781   0.91476
 Alpha virt. eigenvalues --    1.17518   1.18967   1.21909   1.23592   2.57415

 Mulliken charges:
               1
     1  O   -0.738810
     2  H    0.365273
     3  H    0.373759
     4  O   -0.736557
     5  H    0.360238
     6  H    0.376098
 Sum of Mulliken charges =  -0.00000

 Dipole moment (field-independent basis, Debye):
    X=             -2.4168    Y=             -1.6893    Z=              0.0000  Tot=              2.9487
 Quadrupole moment (field-independent basis, Debye-Ang):
   XX=             -9.8445   YY=              4.6255   ZZ=            -14.9890
   XY=             -4.6684   XZ=              0.0000   YZ=              0.0000

 MP4DQ=-33.8910324\MP4SDQ=-33.8930695\CCSD=-33.8941194\CCSD(T)=-33.8966
 Normal termination of Gaussian 16 at Sun Dec 10 07:10:55 2023.
