 Gaussian 16, Revision A.03,
 Gaussian 16:  ES64L-G16RevA.03 25-Dec-2016

 ------------------
 #p CCSD(T)/CEP-31G
 ------------------

 ------------
 H2O_H2O_1095
 ------------
 Symbolic Z-matrix:
 Charge =  0 Multiplicity = 1

                         Standard orientation:
 ---------------------------------------------------------------------
 Center     Atomic      Atomic             Coordinates (Angstroms)
 Number     Number       Type             X           Y           Z
 ---------------------------------------------------------------------
      1          8           0        0.055313   -1.329547    0.000000
      2          1           0       -0.746230   -1.897908    0.000000
      3          1           0        0.852902   -1.903444    0.000000
      4          8           0        0.055313    1.413827    0.000000
      5          1           0       -0.286226    2.335161    0.000000
      6          1           0       -0.705459    0.791950    0.000000
 ---------------------------------------------------------------------

 SCF Done:  E(RHF) =  -33.6493800402     A.U. after   11 cycles
 E2 =    -0.2296602121D+00 EUMP2 =    -0.33879040252255D+02
 CCSD(T)
 CCSD(T)= -0.33896151697D+02

 The electronic state is 1-A'.
 Alpha  occ. eigenvalues --   -1.35753  -1.32140  -0.71412  -0.68003  -0.55264
 Alpha  occ. eigenvalues --   -0.51775  -0.50337  -0.46695
 Alpha virt. eigenvalues --    0.19359   0.25391   0.30270   0.34260   0.77723
 Alpha virt. eigenvalues --    0.79519   0.86885   0.87485   0.92379   1.14855
 Alpha virt. eigenvalues --    1.18392   1.20271   1.22442   1.29373   2.60480

 Mulliken charges:
               1
     1  O   -0.750670
     2  H    0.360759
     3  H    0.389445
     4  O   -0.724824
     5  H    0.340481
     6  H    0.384809
 Sum of Mulliken charges =  -0.00000

 Dipole moment (field-independent basis, Debye):
    X=             -2.4208    Y=             -2.1528    Z=              0.0000  Tot=              3.2396
 Quadrupole moment (field-independent basis, Debye-Ang):
   XX=             -9.9987   YY=             -1.7944   ZZ=            -14.9973
   XY=             -3.3828   XZ=              0.0000   YZ=              0.0000

 P4DQ=-33.8902914\MP4SDQ=-33.8924304\CCSD=-33.8934586\CCSD(T)=-33.89615
 Normal termination of Gaussian 16 at Sun Dec 10 06:45:14 2023.
