 Gaussian 16, Revision A.03,
 Gaussian 16:  ES64L-G16RevA.03 25-Dec-2016

 ------------------
 #p CCSD(T)/CEP-31G
 ------------------

 ------------
 H2O_H2O_1809
 ------------
 Symbolic Z-matrix:
 Charge =  0 Multiplicity = 1

                         Standard orientation:
 ---------------------------------------------------------------------
 Center     Atomic      Atomic             Coordinates (Angstroms)
 Number     Number       Type             X           Y           Z
 ---------------------------------------------------------------------
      1          8           0        0.031745   -1.750502    0.000000
      2          1           0       -0.768711   -2.320392    0.000000
      3          1           0        0.830429   -2.322874    0.000000
      4          8           0        0.031745    1.769654    0.000000
      5          1           0        0.380686    2.688211    0.000000
      6          1           0       -0.950329    1.801838    0.000000
 ---------------------------------------------------------------------

 SCF Done:  E(RHF) =  -33.6464587023     A.U. after   11 cycles
 E2 =    -0.2288751488D+00 EUMP2 =    -0.33875333851009D+02
 CCSD(T)
 CCSD(T)= -0.33892511856D+02

 The electronic state is 1-A'.
 Alpha  occ. eigenvalues --   -1.34183  -1.33698  -0.69806  -0.69292  -0.53889
 Alpha  occ. eigenvalues --   -0.52822  -0.48693  -0.48186
 Alpha virt. eigenvalues --    0.20770   0.22322   0.31549   0.31989   0.76296
 Alpha virt. eigenvalues --    0.80711   0.83508   0.85397   0.90240   1.01574
 Alpha virt. eigenvalues --    1.18500   1.19162   1.23056   1.23543   2.58166

 Mulliken charges:
               1
     1  O   -0.723445
     2  H    0.357744
     3  H    0.365860
     4  O   -0.720725
     5  H    0.355239
     6  H    0.365327
 Sum of Mulliken charges =   0.00000

 Dipole moment (field-independent basis, Debye):
    X=             -1.4388    Y=             -0.4716    Z=              0.0000  Tot=              1.5141
 Quadrupole moment (field-independent basis, Debye-Ang):
   XX=             -8.7440   YY=              5.3587   ZZ=            -14.9847
   XY=             -1.8576   XZ=              0.0000   YZ=              0.0000

 \MP4DQ=-33.8867898\MP4SDQ=-33.8888558\CCSD=-33.8899117\CCSD(T)=-33.892
 Normal termination of Gaussian 16 at Sun Dec 10 06:58:30 2023.
