 Gaussian 16, Revision A.03,
 Gaussian 16:  ES64L-G16RevA.03 25-Dec-2016

 ------------------
 #p CCSD(T)/CEP-31G
 ------------------

 ------------
 H2O_H2O_1659
 ------------
 Symbolic Z-matrix:
 Charge =  0 Multiplicity = 1

                         Standard orientation:
 ---------------------------------------------------------------------
 Center     Atomic      Atomic             Coordinates (Angstroms)
 Number     Number       Type             X           Y           Z
 ---------------------------------------------------------------------
      1          8           0        0.031746   -1.670729    0.000000
      2          1           0       -0.768752   -2.240560    0.000000
      3          1           0        0.830388   -2.243160    0.000000
      4          8           0        0.031746    1.689876    0.000000
      5          1           0        0.380755    2.608407    0.000000
      6          1           0       -0.950326    1.722133    0.000000
 ---------------------------------------------------------------------

 SCF Done:  E(RHF) =  -33.6456060336     A.U. after   11 cycles
 E2 =    -0.2289717475D+00 EUMP2 =    -0.33874577781186D+02
 CCSD(T)
 CCSD(T)= -0.33891793521D+02

 The electronic state is 1-A'.
 Alpha  occ. eigenvalues --   -1.34063  -1.33533  -0.69686  -0.69124  -0.53859
 Alpha  occ. eigenvalues --   -0.52479  -0.48574  -0.48001
 Alpha virt. eigenvalues --    0.20766   0.22564   0.31635   0.32110   0.75832
 Alpha virt. eigenvalues --    0.80431   0.84112   0.84812   0.91227   1.04985
 Alpha virt. eigenvalues --    1.18585   1.19458   1.23181   1.23686   2.58498

 Mulliken charges:
               1
     1  O   -0.721263
     2  H    0.356112
     3  H    0.365274
     4  O   -0.717804
     5  H    0.353383
     6  H    0.364297
 Sum of Mulliken charges =   0.00000

 Dipole moment (field-independent basis, Debye):
    X=             -1.4333    Y=             -0.4744    Z=              0.0000  Tot=              1.5097
 Quadrupole moment (field-independent basis, Debye-Ang):
   XX=             -8.7537   YY=              4.5265   ZZ=            -14.9847
   XY=             -1.7499   XZ=              0.0000   YZ=              0.0000

 MP4DQ=-33.8860507\MP4SDQ=-33.8881263\CCSD=-33.8891843\CCSD(T)=-33.8917
 Normal termination of Gaussian 16 at Sun Dec 10 06:55:44 2023.
