 Gaussian 16, Revision A.03,
 Gaussian 16:  ES64L-G16RevA.03 25-Dec-2016

 ------------------
 #p CCSD(T)/CEP-31G
 ------------------

 ------------
 H2O_H2O_1906
 ------------
 Symbolic Z-matrix:
 Charge =  0 Multiplicity = 1

                         Standard orientation:
 ---------------------------------------------------------------------
 Center     Atomic      Atomic             Coordinates (Angstroms)
 Number     Number       Type             X           Y           Z
 ---------------------------------------------------------------------
      1          8           0        0.021861   -1.809390    0.000000
      2          1           0       -0.778302   -2.379692    0.000000
      3          1           0        0.820839   -2.381351    0.000000
      4          8           0        0.021861    1.818040    0.000000
      5          1           0        0.542870    2.651140    0.000000
      6          1           0       -0.935179    2.040707    0.000000
 ---------------------------------------------------------------------

 SCF Done:  E(RHF) =  -33.6461607675     A.U. after   11 cycles
 E2 =    -0.2288253349D+00 EUMP2 =    -0.33874986102346D+02
 CCSD(T)
 CCSD(T)= -0.33892163898D+02

 The electronic state is 1-A'.
 Alpha  occ. eigenvalues --   -1.34038  -1.33830  -0.69659  -0.69438  -0.53770
 Alpha  occ. eigenvalues --   -0.52885  -0.48550  -0.48304
 Alpha virt. eigenvalues --    0.20970   0.22100   0.31650   0.31883   0.77198
 Alpha virt. eigenvalues --    0.80993   0.83243   0.85839   0.90457   0.98486
 Alpha virt. eigenvalues --    1.18637   1.18881   1.23138   1.23445   2.58206

 Mulliken charges:
               1
     1  O   -0.722187
     2  H    0.358539
     3  H    0.363718
     4  O   -0.721015
     5  H    0.357365
     6  H    0.363581
 Sum of Mulliken charges =   0.00000

 Dipole moment (field-independent basis, Debye):
    X=             -0.9937    Y=             -0.2123    Z=              0.0000  Tot=              1.0161
 Quadrupole moment (field-independent basis, Debye-Ang):
   XX=             -8.4119   YY=              6.4933   ZZ=            -14.9840
   XY=             -1.2606   XZ=              0.0000   YZ=              0.0000

 \MP4DQ=-33.8864486\MP4SDQ=-33.8885091\CCSD=-33.8895674\CCSD(T)=-33.892
 Normal termination of Gaussian 16 at Sun Dec 10 07:00:30 2023.
