 Gaussian 16, Revision A.03,
 Gaussian 16:  ES64L-G16RevA.03 25-Dec-2016

 ------------------
 #p CCSD(T)/CEP-31G
 ------------------

 ------------
 H2O_H2O_1119
 ------------
 Symbolic Z-matrix:
 Charge =  0 Multiplicity = 1

                         Standard orientation:
 ---------------------------------------------------------------------
 Center     Atomic      Atomic             Coordinates (Angstroms)
 Number     Number       Type             X           Y           Z
 ---------------------------------------------------------------------
      1          8           0        0.054212   -1.346718    0.000000
      2          1           0       -0.747274   -1.915159    0.000000
      3          1           0        0.851859   -1.920533    0.000000
      4          8           0        0.054212    1.423863    0.000000
      5          1           0       -0.226434    2.365535    0.000000
      6          1           0       -0.745547    0.852994    0.000000
 ---------------------------------------------------------------------

 SCF Done:  E(RHF) =  -33.6485984895     A.U. after   11 cycles
 E2 =    -0.2296242915D+00 EUMP2 =    -0.33878222781048D+02
 CCSD(T)
 CCSD(T)= -0.33895379386D+02

 The electronic state is 1-A'.
 Alpha  occ. eigenvalues --   -1.35477  -1.32282  -0.71133  -0.68047  -0.55068
 Alpha  occ. eigenvalues --   -0.51799  -0.50052  -0.46823
 Alpha virt. eigenvalues --    0.19505   0.25114   0.30484   0.33824   0.77968
 Alpha virt. eigenvalues --    0.79429   0.86746   0.87199   0.91598   1.15374
 Alpha virt. eigenvalues --    1.18169   1.20732   1.22434   1.28933   2.60775

 Mulliken charges:
               1
     1  O   -0.745705
     2  H    0.359069
     3  H    0.385810
     4  O   -0.721731
     5  H    0.341460
     6  H    0.381096
 Sum of Mulliken charges =  -0.00000

 Dipole moment (field-independent basis, Debye):
    X=             -2.3773    Y=             -1.9597    Z=              0.0000  Tot=              3.0809
 Quadrupole moment (field-independent basis, Debye-Ang):
   XX=             -9.9292   YY=             -1.2857   ZZ=            -14.9952
   XY=             -3.2324   XZ=              0.0000   YZ=              0.0000

 \MP4DQ=-33.8895287\MP4SDQ=-33.8916628\CCSD=-33.8926989\CCSD(T)=-33.895
 Normal termination of Gaussian 16 at Sun Dec 10 06:45:40 2023.
