 Gaussian 16, Revision A.03,
 Gaussian 16:  ES64L-G16RevA.03 25-Dec-2016

 ------------------
 #p CCSD(T)/CEP-31G
 ------------------

 ----------
 H2O_H2O_50
 ----------
 Symbolic Z-matrix:
 Charge =  0 Multiplicity = 1

                         Standard orientation:
 ---------------------------------------------------------------------
 Center     Atomic      Atomic             Coordinates (Angstroms)
 Number     Number       Type             X           Y           Z
 ---------------------------------------------------------------------
      1          8           0        0.000000   -0.000000    0.830190
      2          1           0        0.000000    0.799571    1.401323
      3          1           0       -0.000000   -0.799571    1.401323
      4          8           0        0.000000   -0.000000   -0.830190
      5          1           0       -0.000000   -0.799571   -1.401323
      6          1           0        0.000000    0.799571   -1.401323
 ---------------------------------------------------------------------

 SCF Done:  E(RHF) =  -33.4841734382     A.U. after   10 cycles
 E2 =    -0.2390375716D+00 EUMP2 =    -0.33723211009882D+02
 CCSD(T)
 CCSD(T)= -0.33739484215D+02

 The electronic state is 1-AG.
 Alpha  occ. eigenvalues --   -1.36879  -1.28915  -0.70414  -0.66566  -0.65360
 Alpha  occ. eigenvalues --   -0.51596  -0.42407  -0.31205
 Alpha virt. eigenvalues --    0.21174   0.28633   0.31611   0.33717   0.79582
 Alpha virt. eigenvalues --    0.82269   0.87665   0.89020   1.04994   1.19150
 Alpha virt. eigenvalues --    1.20441   1.25148   1.27995   1.39029   2.51538

 Mulliken charges:
               1
     1  O   -0.687625
     2  H    0.343813
     3  H    0.343813
     4  O   -0.687625
     5  H    0.343813
     6  H    0.343813
 Sum of Mulliken charges =   0.00000

 Dipole moment (field-independent basis, Debye):
    X=             -0.0000    Y=             -0.0000    Z=              0.0000  Tot=              0.0000
 Quadrupole moment (field-independent basis, Debye-Ang):
   XX=            -15.0332   YY=             -8.5609   ZZ=             -7.7127
   XY=              0.0000   XZ=              0.0000   YZ=             -0.0000

 25237\MP4SDQ=-33.7353599\CCSD=-33.7358862\CCSD(T)=-33.7394842\RMSD=5.0
 Normal termination of Gaussian 16 at Sun Dec 10 06:25:40 2023.
