 Gaussian 16, Revision A.03,
 Gaussian 16:  ES64L-G16RevA.03 25-Dec-2016

 ------------------
 #p CCSD(T)/CEP-31G
 ------------------

 ------------
 H2O_H2O_2348
 ------------
 Symbolic Z-matrix:
 Charge =  0 Multiplicity = 1

                         Standard orientation:
 ---------------------------------------------------------------------
 Center     Atomic      Atomic             Coordinates (Angstroms)
 Number     Number       Type             X           Y           Z
 ---------------------------------------------------------------------
      1          8           0        0.057119   -1.982289    0.000000
      2          1           0       -0.743826   -2.551492    0.000000
      3          1           0        0.855312   -2.555347    0.000000
      4          8           0        0.057119    2.088770    0.000000
      5          1           0       -0.458481    2.925228    0.000000
      6          1           0       -0.566916    1.329766    0.000000
 ---------------------------------------------------------------------

 SCF Done:  E(RHF) =  -33.6531232739     A.U. after   11 cycles
 E2 =    -0.2284998686D+00 EUMP2 =    -0.33881623142568D+02
 CCSD(T)
 CCSD(T)= -0.33898593794D+02

 The electronic state is 1-A'.
 Alpha  occ. eigenvalues --   -1.35943  -1.33887  -0.71582  -0.69459  -0.55756
 Alpha  occ. eigenvalues --   -0.53637  -0.50532  -0.48476
 Alpha virt. eigenvalues --    0.19413   0.22431   0.30075   0.32369   0.79952
 Alpha virt. eigenvalues --    0.81011   0.82110   0.85535   0.86135   0.91029
 Alpha virt. eigenvalues --    1.17000   1.19405   1.21391   1.25082   2.56370

 Mulliken charges:
               1
     1  O   -0.745269
     2  H    0.368371
     3  H    0.377574
     4  O   -0.744550
     5  H    0.360221
     6  H    0.383654
 Sum of Mulliken charges =   0.00000

 Dipole moment (field-independent basis, Debye):
    X=             -2.6113    Y=             -2.5755    Z=              0.0000  Tot=              3.6677
 Quadrupole moment (field-independent basis, Debye-Ang):
   XX=            -10.1438   YY=              1.0731   ZZ=            -14.9922
   XY=             -5.5977   XZ=              0.0000   YZ=              0.0000

 1\MP4DQ=-33.8929374\MP4SDQ=-33.8949785\CCSD=-33.8960209\CCSD(T)=-33.89
 Normal termination of Gaussian 16 at Sun Dec 10 07:09:39 2023.
