 Gaussian 16, Revision A.03,
 Gaussian 16:  ES64L-G16RevA.03 25-Dec-2016

 ------------------
 #p CCSD(T)/CEP-31G
 ------------------

 -----------
 H2O_H2O_839
 -----------
 Symbolic Z-matrix:
 Charge =  0 Multiplicity = 1

                         Standard orientation:
 ---------------------------------------------------------------------
 Center     Atomic      Atomic             Coordinates (Angstroms)
 Number     Number       Type             X           Y           Z
 ---------------------------------------------------------------------
      1          8           0        0.045381   -1.218244    0.000000
      2          1           0       -0.755982   -1.786859    0.000000
      3          1           0        0.843152   -1.791888    0.000000
      4          8           0        0.045381    1.262649    0.000000
      5          1           0        0.082108    2.244563    0.000000
      6          1           0       -0.895374    0.978946    0.000000
 ---------------------------------------------------------------------

 SCF Done:  E(RHF) =  -33.6379562438     A.U. after   11 cycles
 E2 =    -0.2302127832D+00 EUMP2 =    -0.33868169027066D+02
 CCSD(T)
 CCSD(T)= -0.33885524609D+02

 The electronic state is 1-A'.
 Alpha  occ. eigenvalues --   -1.34183  -1.32012  -0.69813  -0.67831  -0.54793
 Alpha  occ. eigenvalues --   -0.49690  -0.48809  -0.46324
 Alpha virt. eigenvalues --    0.20266   0.25152   0.31536   0.33123   0.78477
 Alpha virt. eigenvalues --    0.83412   0.88513   0.88714   0.95569   1.15920
 Alpha virt. eigenvalues --    1.18872   1.22212   1.23345   1.30001   2.58561

 Mulliken charges:
               1
     1  O   -0.734520
     2  H    0.350222
     3  H    0.377259
     4  O   -0.695753
     5  H    0.340892
     6  H    0.361900
 Sum of Mulliken charges =  -0.00000

 Dipole moment (field-independent basis, Debye):
    X=             -1.9376    Y=             -1.1033    Z=              0.0000  Tot=              2.2297
 Quadrupole moment (field-independent basis, Debye-Ang):
   XX=             -9.4347   YY=             -1.2632   ZZ=            -14.9931
   XY=             -1.9827   XZ=              0.0000   YZ=              0.0000

 P4DQ=-33.8795811\MP4SDQ=-33.8817404\CCSD=-33.8828014\CCSD(T)=-33.88552
 Normal termination of Gaussian 16 at Sun Dec 10 06:40:26 2023.
