 Gaussian 16, Revision A.03,
 Gaussian 16:  ES64L-G16RevA.03 25-Dec-2016

 ------------------
 #p CCSD(T)/CEP-31G
 ------------------

 ------------
 H2O_H2O_1397
 ------------
 Symbolic Z-matrix:
 Charge =  0 Multiplicity = 1

                         Standard orientation:
 ---------------------------------------------------------------------
 Center     Atomic      Atomic             Coordinates (Angstroms)
 Number     Number       Type             X           Y           Z
 ---------------------------------------------------------------------
      1          8           0        0.056782   -1.481129    0.000000
      2          1           0       -0.744603   -2.049712    0.000000
      3          1           0        0.854531   -2.054804    0.000000
      4          8           0        0.056782    1.580085    0.000000
      5          1           0       -0.402334    2.448830    0.000000
      6          1           0       -0.616112    0.864041    0.000000
 ---------------------------------------------------------------------

 SCF Done:  E(RHF) =  -33.6532845591     A.U. after   11 cycles
 E2 =    -0.2291448955D+00 EUMP2 =    -0.33882429454669D+02
 CCSD(T)
 CCSD(T)= -0.33899454922D+02

 The electronic state is 1-A'.
 Alpha  occ. eigenvalues --   -1.36127  -1.32611  -0.71777  -0.68270  -0.55910
 Alpha  occ. eigenvalues --   -0.52377  -0.50725  -0.47208
 Alpha virt. eigenvalues --    0.19098   0.24735   0.29940   0.34373   0.76668
 Alpha virt. eigenvalues --    0.78234   0.85093   0.86641   0.89919   1.09188
 Alpha virt. eigenvalues --    1.16736   1.20338   1.21884   1.29124   2.54352

 Mulliken charges:
               1
     1  O   -0.751383
     2  H    0.365287
     3  H    0.387581
     4  O   -0.740876
     5  H    0.347272
     6  H    0.392120
 Sum of Mulliken charges =  -0.00000

 Dipole moment (field-independent basis, Debye):
    X=             -2.5365    Y=             -2.5051    Z=              0.0000  Tot=              3.5650
 Quadrupole moment (field-independent basis, Debye-Ang):
   XX=            -10.0995   YY=             -1.4968   ZZ=            -14.9971
   XY=             -4.1391   XZ=              0.0000   YZ=              0.0000

 MP4DQ=-33.8936792\MP4SDQ=-33.8957806\CCSD=-33.8968085\CCSD(T)=-33.8994
 Normal termination of Gaussian 16 at Sun Dec 10 06:50:51 2023.
