 Gaussian 16, Revision A.03,
 Gaussian 16:  ES64L-G16RevA.03 25-Dec-2016

 ------------------
 #p CCSD(T)/CEP-31G
 ------------------

 ------------
 H2O_H2O_4088
 ------------
 Symbolic Z-matrix:
 Charge =  0 Multiplicity = 1

                         Standard orientation:
 ---------------------------------------------------------------------
 Center     Atomic      Atomic             Coordinates (Angstroms)
 Number     Number       Type             X           Y           Z
 ---------------------------------------------------------------------
      1          8           0        0.042964   -2.949757    0.000000
      2          1           0       -0.757317   -3.519894    0.000000
      3          1           0        0.841824   -3.521884    0.000000
      4          8           0        0.042964    2.988562    0.000000
      5          1           0        0.141975    3.966163    0.000000
      6          1           0       -0.913909    2.765177    0.000000
 ---------------------------------------------------------------------

 SCF Done:  E(RHF) =  -33.6509904248     A.U. after   11 cycles
 E2 =    -0.2284307931D+00 EUMP2 =    -0.33879421217927D+02
 CCSD(T)
 CCSD(T)= -0.33896444500D+02

 The electronic state is 1-A'.
 Alpha  occ. eigenvalues --   -1.35212  -1.34881  -0.70842  -0.70502  -0.54903
 Alpha  occ. eigenvalues --   -0.54570  -0.49772  -0.49441
 Alpha virt. eigenvalues --    0.20515   0.20853   0.30750   0.31077   0.80781
 Alpha virt. eigenvalues --    0.81108   0.83881   0.84212   0.86964   0.87349
 Alpha virt. eigenvalues --    1.17656   1.17984   1.22120   1.22451   2.57692

 Mulliken charges:
               1
     1  O   -0.738304
     2  H    0.367837
     3  H    0.370467
     4  O   -0.737899
     5  H    0.366790
     6  H    0.371109
 Sum of Mulliken charges =   0.00000

 Dipole moment (field-independent basis, Debye):
    X=             -1.9817    Y=             -0.9095    Z=              0.0000  Tot=              2.1804
 Quadrupole moment (field-independent basis, Debye-Ang):
   XX=             -9.2364   YY=             15.1683   ZZ=            -14.9875
   XY=             -5.0969   XZ=              0.0000   YZ=              0.0000

 \MP4DQ=-33.8907941\MP4SDQ=-33.892824\CCSD=-33.8938806\CCSD(T)=-33.8964
 Normal termination of Gaussian 16 at Sun Dec 10 06:53:43 2023.
