 Gaussian 16, Revision A.03,
 Gaussian 16:  ES64L-G16RevA.03 25-Dec-2016

 ------------------
 #p CCSD(T)/CEP-31G
 ------------------

 ------------
 H2O_H2O_3619
 ------------
 Symbolic Z-matrix:
 Charge =  0 Multiplicity = 1

                         Standard orientation:
 ---------------------------------------------------------------------
 Center     Atomic      Atomic             Coordinates (Angstroms)
 Number     Number       Type             X           Y           Z
 ---------------------------------------------------------------------
      1          8           0        0.054149   -2.676216    0.000000
      2          1           0       -0.746401   -3.245976    0.000000
      3          1           0        0.852739   -3.248718    0.000000
      4          8           0        0.054149    2.753540    0.000000
      5          1           0       -0.228047    3.694747    0.000000
      6          1           0       -0.744670    2.181355    0.000000
 ---------------------------------------------------------------------

 SCF Done:  E(RHF) =  -33.6515890508     A.U. after   11 cycles
 E2 =    -0.2284115586D+00 EUMP2 =    -0.33880000609446D+02
 CCSD(T)
 CCSD(T)= -0.33897006502D+02

 The electronic state is 1-A'.
 Alpha  occ. eigenvalues --   -1.35490  -1.34697  -0.71123  -0.70309  -0.55215
 Alpha  occ. eigenvalues --   -0.54410  -0.50059  -0.49266
 Alpha virt. eigenvalues --    0.20263   0.21092   0.30508   0.31309   0.80495
 Alpha virt. eigenvalues --    0.81272   0.83506   0.84355   0.86640   0.87541
 Alpha virt. eigenvalues --    1.17403   1.18191   1.21862   1.22668   2.57420

 Mulliken charges:
               1
     1  O   -0.740455
     2  H    0.368173
     3  H    0.372284
     4  O   -0.739832
     5  H    0.365738
     6  H    0.374092
 Sum of Mulliken charges =  -0.00000

 Dipole moment (field-independent basis, Debye):
    X=             -2.4944    Y=             -1.8197    Z=              0.0000  Tot=              3.0876
 Quadrupole moment (field-independent basis, Debye-Ang):
   XX=             -9.9404   YY=              8.5936   ZZ=            -14.9887
   XY=             -6.4690   XZ=              0.0000   YZ=              0.0000

 \MP4DQ=-33.8913605\MP4SDQ=-33.893389\CCSD=-33.8944439\CCSD(T)=-33.8970
 Normal termination of Gaussian 16 at Sun Dec 10 06:45:03 2023.
