 Gaussian 16, Revision A.03,
 Gaussian 16:  ES64L-G16RevA.03 25-Dec-2016

 ------------------
 #p CCSD(T)/CEP-31G
 ------------------

 ------------
 H2O_H2O_1939
 ------------
 Symbolic Z-matrix:
 Charge =  0 Multiplicity = 1

                         Standard orientation:
 ---------------------------------------------------------------------
 Center     Atomic      Atomic             Coordinates (Angstroms)
 Number     Number       Type             X           Y           Z
 ---------------------------------------------------------------------
      1          8           0        0.045359   -1.803217    0.000000
      2          1           0       -0.755431   -2.372639    0.000000
      3          1           0        0.843707   -2.376056    0.000000
      4          8           0        0.045359    1.847713    0.000000
      5          1           0        0.081096    2.829664    0.000000
      6          1           0       -0.895110    1.563062    0.000000
 ---------------------------------------------------------------------

 SCF Done:  E(RHF) =  -33.6488925592     A.U. after   11 cycles
 E2 =    -0.2287737483D+00 EUMP2 =    -0.33877666307586D+02
 CCSD(T)
 CCSD(T)= -0.33894768356D+02

 The electronic state is 1-A'.
 Alpha  occ. eigenvalues --   -1.34790  -1.33733  -0.70420  -0.69307  -0.54412
 Alpha  occ. eigenvalues --   -0.53226  -0.49323  -0.48269
 Alpha virt. eigenvalues --    0.20287   0.22398   0.31015   0.32098   0.76684
 Alpha virt. eigenvalues --    0.80554   0.82948   0.85748   0.88195   0.99600
 Alpha virt. eigenvalues --    1.17978   1.19431   1.22408   1.23774   2.57509

 Mulliken charges:
               1
     1  O   -0.731329
     2  H    0.360616
     3  H    0.371075
     4  O   -0.727405
     5  H    0.355742
     6  H    0.371301
 Sum of Mulliken charges =   0.00000

 Dipole moment (field-independent basis, Debye):
    X=             -2.0592    Y=             -1.0877    Z=              0.0000  Tot=              2.3288
 Quadrupole moment (field-independent basis, Debye-Ang):
   XX=             -9.3862   YY=              4.4823   ZZ=            -14.9870
   XY=             -3.1326   XZ=              0.0000   YZ=              0.0000

 \MP4DQ=-33.8890721\MP4SDQ=-33.891129\CCSD=-33.8921784\CCSD(T)=-33.8947
 Normal termination of Gaussian 16 at Sun Dec 10 07:01:14 2023.
