 Gaussian 16, Revision A.03,
 Gaussian 16:  ES64L-G16RevA.03 25-Dec-2016

 ------------------
 #p CCSD(T)/CEP-31G
 ------------------

 -----------
 H2O_H2O_837
 -----------
 Symbolic Z-matrix:
 Charge =  0 Multiplicity = 1

                         Standard orientation:
 ---------------------------------------------------------------------
 Center     Atomic      Atomic             Coordinates (Angstroms)
 Number     Number       Type             X           Y           Z
 ---------------------------------------------------------------------
      1          8           0        0.040432   -1.224314    0.000000
      2          1           0       -0.760736   -1.793204    0.000000
      3          1           0        0.838400   -1.797684    0.000000
      4          8           0        0.040432    1.257544    0.000000
      5          1           0        0.204678    2.226320    0.000000
      6          1           0       -0.929251    1.098729    0.000000
 ---------------------------------------------------------------------

 SCF Done:  E(RHF) =  -33.6360415451     A.U. after   11 cycles
 E2 =    -0.2301642905D+00 EUMP2 =    -0.33866205835631D+02
 CCSD(T)
 CCSD(T)= -0.33883598388D+02

 The electronic state is 1-A'.
 Alpha  occ. eigenvalues --   -1.33758  -1.32081  -0.69365  -0.67822  -0.54840
 Alpha  occ. eigenvalues --   -0.49155  -0.48408  -0.46313
 Alpha virt. eigenvalues --    0.20555   0.24864   0.31873   0.32945   0.78758
 Alpha virt. eigenvalues --    0.82711   0.88154   0.88594   0.97178   1.15311
 Alpha virt. eigenvalues --    1.18973   1.22421   1.23686   1.29277   2.56890

 Mulliken charges:
               1
     1  O   -0.726724
     2  H    0.348071
     3  H    0.372293
     4  O   -0.694533
     5  H    0.343403
     6  H    0.357490
 Sum of Mulliken charges =   0.00000

 Dipole moment (field-independent basis, Debye):
    X=             -1.7260    Y=             -0.8184    Z=              0.0000  Tot=              1.9102
 Quadrupole moment (field-independent basis, Debye-Ang):
   XX=             -9.1939   YY=             -0.8809   ZZ=            -14.9929
   XY=             -1.6397   XZ=              0.0000   YZ=              0.0000

 MP4DQ=-33.8776588\MP4SDQ=-33.8798085\CCSD=-33.8808805\CCSD(T)=-33.8835
 Normal termination of Gaussian 16 at Sun Dec 10 06:40:24 2023.
