 Gaussian 16, Revision A.03,
 Gaussian 16:  ES64L-G16RevA.03 25-Dec-2016

 ------------------
 #p CCSD(T)/CEP-31G
 ------------------

 ------------
 H2O_H2O_2245
 ------------
 Symbolic Z-matrix:
 Charge =  0 Multiplicity = 1

                         Standard orientation:
 ---------------------------------------------------------------------
 Center     Atomic      Atomic             Coordinates (Angstroms)
 Number     Number       Type             X           Y           Z
 ---------------------------------------------------------------------
      1          8           0        0.055268   -1.941098    0.000000
      2          1           0       -0.745668   -2.510313    0.000000
      3          1           0        0.853469   -2.514143    0.000000
      4          8           0        0.055268    2.025496    0.000000
      5          1           0       -0.287254    2.946465    0.000000
      6          1           0       -0.704840    1.402807    0.000000
 ---------------------------------------------------------------------

 SCF Done:  E(RHF) =  -33.6519018549     A.U. after   11 cycles
 E2 =    -0.2285672970D+00 EUMP2 =    -0.33880469151910D+02
 CCSD(T)
 CCSD(T)= -0.33897474839D+02

 The electronic state is 1-A'.
 Alpha  occ. eigenvalues --   -1.35587  -1.33873  -0.71224  -0.69442  -0.55328
 Alpha  occ. eigenvalues --   -0.53577  -0.50159  -0.48449
 Alpha virt. eigenvalues --    0.19708   0.22365   0.30351   0.32236   0.79662
 Alpha virt. eigenvalues --    0.80241   0.82227   0.85742   0.86504   0.93151
 Alpha virt. eigenvalues --    1.17304   1.19387   1.21681   1.24434   2.56768

 Mulliken charges:
               1
     1  O   -0.741285
     2  H    0.365934
     3  H    0.375860
     4  O   -0.739094
     5  H    0.358958
     6  H    0.379626
 Sum of Mulliken charges =   0.00000

 Dipole moment (field-independent basis, Debye):
    X=             -2.5232    Y=             -2.0437    Z=              0.0000  Tot=              3.2470
 Quadrupole moment (field-independent basis, Debye-Ang):
   XX=            -10.0094   YY=              2.7380   ZZ=            -14.9905
   XY=             -4.8985   XZ=              0.0000   YZ=              0.0000

 1\MP4DQ=-33.8918118\MP4SDQ=-33.8938542\CCSD=-33.8948993\CCSD(T)=-33.89
 Normal termination of Gaussian 16 at Sun Dec 10 07:07:48 2023.
