 Gaussian 16, Revision A.03,
 Gaussian 16:  ES64L-G16RevA.03 25-Dec-2016

 ------------------
 #p CCSD(T)/CEP-31G
 ------------------

 -----------
 H2O_H2O_370
 -----------
 Symbolic Z-matrix:
 Charge =  0 Multiplicity = 1

                         Standard orientation:
 ---------------------------------------------------------------------
 Center     Atomic      Atomic             Coordinates (Angstroms)
 Number     Number       Type             X           Y           Z
 ---------------------------------------------------------------------
      1          8           0        0.055370   -0.944044    0.000000
      2          1           0       -0.746942   -1.511319    0.000000
      3          1           0        0.852182   -1.519020    0.000000
      4          8           0        0.055370    1.028174    0.000000
      5          1           0       -0.284921    1.949970    0.000000
      6          1           0       -0.706243    0.407328    0.000000
 ---------------------------------------------------------------------

 SCF Done:  E(RHF) =  -33.5916115576     A.U. after   11 cycles
 E2 =    -0.2326405835D+00 EUMP2 =    -0.33824252141110D+02
 CCSD(T)
 CCSD(T)= -0.33840925721D+02

 The electronic state is 1-A'.
 Alpha  occ. eigenvalues --   -1.37774  -1.29791  -0.73969  -0.69848  -0.52405
 Alpha  occ. eigenvalues --   -0.51924  -0.47717  -0.44158
 Alpha virt. eigenvalues --    0.19260   0.28520   0.29523   0.35527   0.78334
 Alpha virt. eigenvalues --    0.84484   0.90042   0.95167   0.99492   1.15415
 Alpha virt. eigenvalues --    1.19524   1.23402   1.29392   1.32391   2.68952

 Mulliken charges:
               1
     1  O   -0.792300
     2  H    0.360866
     3  H    0.420022
     4  O   -0.671163
     5  H    0.310885
     6  H    0.371690
 Sum of Mulliken charges =  -0.00000

 Dipole moment (field-independent basis, Debye):
    X=             -2.1543    Y=             -2.2414    Z=              0.0000  Tot=              3.1088
 Quadrupole moment (field-independent basis, Debye-Ang):
   XX=            -10.0023   YY=             -5.8295   ZZ=            -14.9832
   XY=             -2.3383   XZ=              0.0000   YZ=              0.0000

 \MP4DQ=-33.834588\MP4SDQ=-33.8369773\CCSD=-33.837824\CCSD(T)=-33.84092
 Normal termination of Gaussian 16 at Sun Dec 10 06:31:41 2023.
