 Gaussian 16, Revision A.03,
 Gaussian 16:  ES64L-G16RevA.03 25-Dec-2016

 ------------------
 #p CCSD(T)/CEP-31G
 ------------------

 ------------
 H2O_H2O_3025
 ------------
 Symbolic Z-matrix:
 Charge =  0 Multiplicity = 1

                         Standard orientation:
 ---------------------------------------------------------------------
 Center     Atomic      Atomic             Coordinates (Angstroms)
 Number     Number       Type             X           Y           Z
 ---------------------------------------------------------------------
      1          8           0        0.000000   -0.000000    2.412404
      2          1           0        0.000000    0.799571    2.983536
      3          1           0       -0.000000   -0.799571    2.983536
      4          8           0        0.000000   -0.000000   -2.412404
      5          1           0       -0.000000   -0.799571   -2.983536
      6          1           0        0.000000    0.799571   -2.983536
 ---------------------------------------------------------------------

 SCF Done:  E(RHF) =  -33.6490936025     A.U. after   10 cycles
 E2 =    -0.2285333974D+00 EUMP2 =    -0.33877626999941D+02
 CCSD(T)
 CCSD(T)= -0.33894705069D+02

 The electronic state is 1-AG.
 Alpha  occ. eigenvalues --   -1.34567  -1.34566  -0.70191  -0.70189  -0.54184
 Alpha  occ. eigenvalues --   -0.54107  -0.49102  -0.49095
 Alpha virt. eigenvalues --    0.20991   0.21124   0.31270   0.31300   0.81398
 Alpha virt. eigenvalues --    0.81508   0.83721   0.85829   0.87609   0.87864
 Alpha virt. eigenvalues --    1.18222   1.18222   1.22685   1.22723   2.58299

 Mulliken charges:
               1
     1  O   -0.731700
     2  H    0.365850
     3  H    0.365850
     4  O   -0.731700
     5  H    0.365850
     6  H    0.365850
 Sum of Mulliken charges =  -0.00000

 Dipole moment (field-independent basis, Debye):
    X=             -0.0000    Y=              0.0000    Z=              0.0000  Tot=              0.0000
 Quadrupole moment (field-independent basis, Debye-Ang):
   XX=            -14.9853   YY=             -8.0621   ZZ=             13.4935
   XY=              0.0000   XZ=              0.0000   YZ=             -0.0000

 33.8890391\MP4SDQ=-33.8910744\CCSD=-33.892134\CCSD(T)=-33.8947051\RMSD
 Normal termination of Gaussian 16 at Sun Dec 10 06:34:24 2023.
