 Gaussian 16, Revision A.03,
 Gaussian 16:  ES64L-G16RevA.03 25-Dec-2016

 ------------------
 #p CCSD(T)/CEP-31G
 ------------------

 ------------
 H2O_H2O_3167
 ------------
 Symbolic Z-matrix:
 Charge =  0 Multiplicity = 1

                         Standard orientation:
 ---------------------------------------------------------------------
 Center     Atomic      Atomic             Coordinates (Angstroms)
 Number     Number       Type             X           Y           Z
 ---------------------------------------------------------------------
      1          8           0        0.051280   -2.444384    0.000000
      2          1           0       -0.749307   -3.014091    0.000000
      3          1           0        0.849833   -3.016939    0.000000
      4          8           0        0.051280    2.507907    0.000000
      5          1           0       -0.105584    3.477907    0.000000
      6          1           0       -0.815420    2.044941    0.000000
 ---------------------------------------------------------------------

 SCF Done:  E(RHF) =  -33.6511393723     A.U. after   11 cycles
 E2 =    -0.2284508676D+00 EUMP2 =    -0.33879590239811D+02
 CCSD(T)
 CCSD(T)= -0.33896609504D+02

 The electronic state is 1-A'.
 Alpha  occ. eigenvalues --   -1.35325  -1.34532  -0.70956  -0.70138  -0.55024
 Alpha  occ. eigenvalues --   -0.54222  -0.49886  -0.49095
 Alpha virt. eigenvalues --    0.20379   0.21251   0.30644   0.31438   0.80667
 Alpha virt. eigenvalues --    0.81443   0.83451   0.84744   0.86834   0.87885
 Alpha virt. eigenvalues --    1.17550   1.18340   1.22008   1.22823   2.57576

 Mulliken charges:
               1
     1  O   -0.738905
     2  H    0.366905
     3  H    0.372010
     4  O   -0.737844
     5  H    0.364229
     6  H    0.373606
 Sum of Mulliken charges =  -0.00000

 Dipole moment (field-independent basis, Debye):
    X=             -2.3581    Y=             -1.5022    Z=              0.0000  Tot=              2.7959
 Quadrupole moment (field-independent basis, Debye-Ang):
   XX=             -9.7432   YY=              8.3311   ZZ=            -14.9882
   XY=             -5.3423   XZ=              0.0000   YZ=              0.0000

 MP4DQ=-33.8909595\MP4SDQ=-33.8929896\CCSD=-33.8940446\CCSD(T)=-33.8966
 Normal termination of Gaussian 16 at Sun Dec 10 06:36:53 2023.
