 Gaussian 16, Revision A.03,
 Gaussian 16:  ES64L-G16RevA.03 25-Dec-2016

 ------------------
 #p CCSD(T)/CEP-31G
 ------------------

 ------------
 H2O_H2O_4652
 ------------
 Symbolic Z-matrix:
 Charge =  0 Multiplicity = 1

                         Standard orientation:
 ---------------------------------------------------------------------
 Center     Atomic      Atomic             Coordinates (Angstroms)
 Number     Number       Type             X           Y           Z
 ---------------------------------------------------------------------
      1          8           0        0.007455   -3.276109    0.000000
      2          1           0       -0.792228   -3.847084    0.000000
      3          1           0        0.806914   -3.847397    0.000000
      4          8           0        0.007455    3.277083    0.000000
      5          1           0        0.725769    3.947554    0.000000
      6          1           0       -0.859734    3.739134    0.000000
 ---------------------------------------------------------------------

 SCF Done:  E(RHF) =  -33.6507354723     A.U. after   10 cycles
 E2 =    -0.2284332740D+00 EUMP2 =    -0.33879168746302D+02
 CCSD(T)
 CCSD(T)= -0.33896199431D+02

 The electronic state is 1-A'.
 Alpha  occ. eigenvalues --   -1.35040  -1.35033  -0.70668  -0.70661  -0.54716
 Alpha  occ. eigenvalues --   -0.54710  -0.49596  -0.49589
 Alpha virt. eigenvalues --    0.20673   0.20680   0.30905   0.30912   0.80958
 Alpha virt. eigenvalues --    0.80965   0.84083   0.84093   0.87158   0.87166
 Alpha virt. eigenvalues --    1.17817   1.17823   1.22283   1.22290   2.57859

 Mulliken charges:
               1
     1  O   -0.737361
     2  H    0.368504
     3  H    0.368857
     4  O   -0.737352
     5  H    0.368426
     6  H    0.368925
 Sum of Mulliken charges =   0.00000

 Dipole moment (field-independent basis, Debye):
    X=             -0.3442    Y=             -0.0228    Z=              0.0000  Tot=              0.3450
 Quadrupole moment (field-independent basis, Debye-Ang):
   XX=             -8.0725   YY=             22.6532   ZZ=            -14.9869
   XY=             -0.8978   XZ=              0.0000   YZ=              0.0000

 DQ=-33.8905471\MP4SDQ=-33.8925775\CCSD=-33.893635\CCSD(T)=-33.8961994\
 Normal termination of Gaussian 16 at Sun Dec 10 07:05:24 2023.
