 Gaussian 16, Revision A.03,
 Gaussian 16:  ES64L-G16RevA.03 25-Dec-2016

 ------------------
 #p CCSD(T)/CEP-31G
 ------------------

 ------------
 H2O_H2O_2653
 ------------
 Symbolic Z-matrix:
 Charge =  0 Multiplicity = 1

                         Standard orientation:
 ---------------------------------------------------------------------
 Center     Atomic      Atomic             Coordinates (Angstroms)
 Number     Number       Type             X           Y           Z
 ---------------------------------------------------------------------
      1          8           0        0.011143   -2.211779    0.000000
      2          1           0       -0.788676   -2.782564    0.000000
      3          1           0        0.810466   -2.783257    0.000000
      4          8           0        0.011143    2.213964    0.000000
      5          1           0        0.684238    2.929818    0.000000
      6          1           0       -0.884312    2.618521    0.000000
 ---------------------------------------------------------------------

 SCF Done:  E(RHF) =  -33.6484074407     A.U. after   11 cycles
 E2 =    -0.2285868750D+00 EUMP2 =    -0.33876994315688D+02
 CCSD(T)
 CCSD(T)= -0.33894092576D+02

 The electronic state is 1-A'.
 Alpha  occ. eigenvalues --   -1.34416  -1.34382  -0.70038  -0.70002  -0.54029
 Alpha  occ. eigenvalues --   -0.53838  -0.48941  -0.48901
 Alpha virt. eigenvalues --    0.21032   0.21343   0.31378   0.31452   0.81454
 Alpha virt. eigenvalues --    0.81802   0.82442   0.87181   0.87919   0.88551
 Alpha virt. eigenvalues --    1.18345   1.18378   1.22803   1.22902   2.58361

 Mulliken charges:
               1
     1  O   -0.729380
     2  H    0.363915
     3  H    0.365467
     4  O   -0.729248
     5  H    0.363653
     6  H    0.365592
 Sum of Mulliken charges =  -0.00000

 Dipole moment (field-independent basis, Debye):
    X=             -0.5110    Y=             -0.0522    Z=              0.0000  Tot=              0.5136
 Quadrupole moment (field-independent basis, Debye-Ang):
   XX=             -8.1529   YY=             11.1775   ZZ=            -14.9848
   XY=             -0.8127   XZ=              0.0000   YZ=              0.0000

 \MP4DQ=-33.8884193\MP4SDQ=-33.8904578\CCSD=-33.8915176\CCSD(T)=-33.894
 Normal termination of Gaussian 16 at Sun Dec 10 06:27:35 2023.
