 Gaussian 16, Revision A.03,
 Gaussian 16:  ES64L-G16RevA.03 25-Dec-2016

 ------------------
 #p CCSD(T)/CEP-31G
 ------------------

 -----------
 H2O_H2O_376
 -----------
 Symbolic Z-matrix:
 Charge =  0 Multiplicity = 1

                         Standard orientation:
 ---------------------------------------------------------------------
 Center     Atomic      Atomic             Coordinates (Angstroms)
 Number     Number       Type             X           Y           Z
 ---------------------------------------------------------------------
      1          8           0        0.003735   -1.002906    0.000000
      2          1           0       -0.796019   -1.573782    0.000000
      3          1           0        0.803123   -1.574294    0.000000
      4          8           0        0.003735    1.003148    0.000000
      5          1           0        0.764441    1.625108    0.000000
      6          1           0       -0.831312    1.521031    0.000000
 ---------------------------------------------------------------------

 SCF Done:  E(RHF) =  -33.5905978764     A.U. after   11 cycles
 E2 =    -0.2325119054D+00 EUMP2 =    -0.33823109781818D+02
 CCSD(T)
 CCSD(T)= -0.33840236714D+02

 The electronic state is 1-A'.
 Alpha  occ. eigenvalues --   -1.33203  -1.30358  -0.68269  -0.66300  -0.59039
 Alpha  occ. eigenvalues --   -0.48161  -0.43958  -0.40841
 Alpha virt. eigenvalues --    0.21574   0.26106   0.32834   0.33470   0.78251
 Alpha virt. eigenvalues --    0.80929   0.90258   0.94619   1.04817   1.20265
 Alpha virt. eigenvalues --    1.21861   1.23118   1.24568   1.27625   2.48414

 Mulliken charges:
               1
     1  O   -0.697930
     2  H    0.346724
     3  H    0.351031
     4  O   -0.697271
     5  H    0.349610
     6  H    0.347835
 Sum of Mulliken charges =  -0.00000

 Dipole moment (field-independent basis, Debye):
    X=             -0.1445    Y=             -0.0057    Z=              0.0000  Tot=              0.1446
 Quadrupole moment (field-independent basis, Debye-Ang):
   XX=             -8.3512   YY=             -3.8236   ZZ=            -15.0283
   XY=             -0.0808   XZ=              0.0000   YZ=              0.0000

 P4DQ=-33.834005\MP4SDQ=-33.8362776\CCSD=-33.8372597\CCSD(T)=-33.840236
 Normal termination of Gaussian 16 at Sun Dec 10 06:31:48 2023.
