 Gaussian 16, Revision A.03,
 Gaussian 16:  ES64L-G16RevA.03 25-Dec-2016

 ------------------
 #p CCSD(T)/CEP-31G
 ------------------

 ------------
 H2O_H2O_1618
 ------------
 Symbolic Z-matrix:
 Charge =  0 Multiplicity = 1

                         Standard orientation:
 ---------------------------------------------------------------------
 Center     Atomic      Atomic             Coordinates (Angstroms)
 Number     Number       Type             X           Y           Z
 ---------------------------------------------------------------------
      1          8           0        0.052862   -1.616397    0.000000
      2          1           0       -0.748276   -2.185327    0.000000
      3          1           0        0.850860   -2.189726    0.000000
      4          8           0        0.052862    1.686620    0.000000
      5          1           0       -0.166178    2.644496    0.000000
      6          1           0       -0.782205    1.168770    0.000000
 ---------------------------------------------------------------------

 SCF Done:  E(RHF) =  -33.6503299889     A.U. after   11 cycles
 E2 =    -0.2289595961D+00 EUMP2 =    -0.33879289585033D+02
 CCSD(T)
 CCSD(T)= -0.33896387170D+02

 The electronic state is 1-A'.
 Alpha  occ. eigenvalues --   -1.35290  -1.33215  -0.70930  -0.68771  -0.54976
 Alpha  occ. eigenvalues --   -0.52807  -0.49846  -0.47777
 Alpha virt. eigenvalues --    0.19657   0.23466   0.30572   0.32790   0.75670
 Alpha virt. eigenvalues --    0.79479   0.84043   0.85928   0.88056   1.06239
 Alpha virt. eigenvalues --    1.17476   1.20680   1.22068   1.25941   2.56102

 Mulliken charges:
               1
     1  O   -0.737161
     2  H    0.361051
     3  H    0.376984
     4  O   -0.730309
     5  H    0.351097
     6  H    0.378338
 Sum of Mulliken charges =   0.00000

 Dipole moment (field-independent basis, Debye):
    X=             -2.3800    Y=             -1.7446    Z=              0.0000  Tot=              2.9509
 Quadrupole moment (field-independent basis, Debye-Ang):
   XX=             -9.8434   YY=              1.3317   ZZ=            -14.9904
   XY=             -3.6668   XZ=              0.0000   YZ=              0.0000

 MP4DQ=-33.8906564\MP4SDQ=-33.8927364\CCSD=-33.8937778\CCSD(T)=-33.8963
 Normal termination of Gaussian 16 at Sun Dec 10 06:54:58 2023.
