 Gaussian 16, Revision A.03,
 Gaussian 16:  ES64L-G16RevA.03 25-Dec-2016

 ------------------
 #p CCSD(T)/CEP-31G
 ------------------

 ------------
 H2O_H2O_3707
 ------------
 Symbolic Z-matrix:
 Charge =  0 Multiplicity = 1

                         Standard orientation:
 ---------------------------------------------------------------------
 Center     Atomic      Atomic             Coordinates (Angstroms)
 Number     Number       Type             X           Y           Z
 ---------------------------------------------------------------------
      1          8           0        0.025265   -2.765017    0.000000
      2          1           0       -0.774754   -3.335522    0.000000
      3          1           0        0.824388   -3.336777    0.000000
      4          8           0        0.025265    2.776757    0.000000
      5          1           0        0.490453    3.642267    0.000000
      6          1           0       -0.944329    2.936109    0.000000
 ---------------------------------------------------------------------

 SCF Done:  E(RHF) =  -33.6502475388     A.U. after   11 cycles
 E2 =    -0.2284681489D+00 EUMP2 =    -0.33878715687708D+02
 CCSD(T)
 CCSD(T)= -0.33895760398D+02

 The electronic state is 1-A'.
 Alpha  occ. eigenvalues --   -1.34915  -1.34799  -0.70541  -0.70422  -0.54562
 Alpha  occ. eigenvalues --   -0.54447  -0.49463  -0.49348
 Alpha virt. eigenvalues --    0.20771   0.20890   0.31003   0.31115   0.81090
 Alpha virt. eigenvalues --    0.81204   0.84191   0.84459   0.87315   0.87461
 Alpha virt. eigenvalues --    1.17922   1.18036   1.22393   1.22507   2.57976

 Mulliken charges:
               1
     1  O   -0.735687
     2  H    0.366893
     3  H    0.368793
     4  O   -0.735453
     5  H    0.366388
     6  H    0.369065
 Sum of Mulliken charges =  -0.00000

 Dipole moment (field-independent basis, Debye):
    X=             -1.1643    Y=             -0.2759    Z=              0.0000  Tot=              1.1965
 Quadrupole moment (field-independent basis, Debye-Ang):
   XX=             -8.4586   YY=             16.2098   ZZ=            -14.9865
   XY=             -2.5497   XZ=              0.0000   YZ=              0.0000

 P4DQ=-33.8901041\MP4SDQ=-33.892136\CCSD=-33.893194\CCSD(T)=-33.8957604
 Normal termination of Gaussian 16 at Sun Dec 10 06:46:40 2023.
