 Gaussian 16, Revision A.03,
 Gaussian 16:  ES64L-G16RevA.03 25-Dec-2016

 ------------------
 #p CCSD(T)/CEP-31G
 ------------------

 -----------
 H2O_H2O_867
 -----------
 Symbolic Z-matrix:
 Charge =  0 Multiplicity = 1

                         Standard orientation:
 ---------------------------------------------------------------------
 Center     Atomic      Atomic             Coordinates (Angstroms)
 Number     Number       Type             X           Y           Z
 ---------------------------------------------------------------------
      1          8           0        0.051335   -1.221254    0.000000
      2          1           0       -0.750241   -1.789568    0.000000
      3          1           0        0.848891   -1.795196    0.000000
      4          8           0        0.051335    1.284598    0.000000
      5          1           0       -0.103842    2.254869    0.000000
      6          1           0       -0.816168    0.823139    0.000000
 ---------------------------------------------------------------------

 SCF Done:  E(RHF) =  -33.6417042367     A.U. after   11 cycles
 E2 =    -0.2302020623D+00 EUMP2 =    -0.33871906298947D+02
 CCSD(T)
 CCSD(T)= -0.33889161278D+02

 The electronic state is 1-A'.
 Alpha  occ. eigenvalues --   -1.34956  -1.31884  -0.70617  -0.67881  -0.54722
 Alpha  occ. eigenvalues --   -0.50626  -0.49553  -0.46316
 Alpha virt. eigenvalues --    0.19813   0.25595   0.30923   0.33648   0.77973
 Alpha virt. eigenvalues --    0.83279   0.88281   0.89749   0.93810   1.15864
 Alpha virt. eigenvalues --    1.19225   1.21570   1.22990   1.30096   2.63279

 Mulliken charges:
               1
     1  O   -0.745992
     2  H    0.354646
     3  H    0.385443
     4  O   -0.702904
     5  H    0.337453
     6  H    0.371354
 Sum of Mulliken charges =   0.00000

 Dipole moment (field-independent basis, Debye):
    X=             -2.1974    Y=             -1.6003    Z=              0.0000  Tot=              2.7184
 Quadrupole moment (field-independent basis, Debye-Ang):
   XX=             -9.7588   YY=             -1.8700   ZZ=            -14.9951
   XY=             -2.5464   XZ=              0.0000   YZ=              0.0000

 MP4DQ=-33.8832205\MP4SDQ=-33.8853886\CCSD=-33.8864287\CCSD(T)=-33.8891
 Normal termination of Gaussian 16 at Sun Dec 10 06:40:58 2023.
