 Gaussian 16, Revision A.03,
 Gaussian 16:  ES64L-G16RevA.03 25-Dec-2016

 ------------------
 #p CCSD(T)/CEP-31G
 ------------------

 ------------
 H2O_H2O_3515
 ------------
 Symbolic Z-matrix:
 Charge =  0 Multiplicity = 1

                         Standard orientation:
 ---------------------------------------------------------------------
 Center     Atomic      Atomic             Coordinates (Angstroms)
 Number     Number       Type             X           Y           Z
 ---------------------------------------------------------------------
      1          8           0        0.047527   -2.637535    0.000000
      2          1           0       -0.752920   -3.207439    0.000000
      3          1           0        0.846220   -3.209894    0.000000
      4          8           0        0.047527    2.688155    0.000000
      5          1           0        0.018374    3.670323    0.000000
      6          1           0       -0.872103    2.342050    0.000000
 ---------------------------------------------------------------------

 SCF Done:  E(RHF) =  -33.6509551874     A.U. after   11 cycles
 E2 =    -0.2284453105D+00 EUMP2 =    -0.33879400497816D+02
 CCSD(T)
 CCSD(T)= -0.33896424899D+02

 The electronic state is 1-A'.
 Alpha  occ. eigenvalues --   -1.35234  -1.34692  -0.70864  -0.70306  -0.54923
 Alpha  occ. eigenvalues --   -0.54376  -0.49793  -0.49252
 Alpha virt. eigenvalues --    0.20486   0.21049   0.30726   0.31262   0.80760
 Alpha virt. eigenvalues --    0.81292   0.83795   0.84456   0.86943   0.87596
 Alpha virt. eigenvalues --    1.17632   1.18169   1.22097   1.22641   2.57667

 Mulliken charges:
               1
     1  O   -0.738223
     2  H    0.367158
     3  H    0.371066
     4  O   -0.737480
     5  H    0.365386
     6  H    0.372092
 Sum of Mulliken charges =   0.00000

 Dipole moment (field-independent basis, Debye):
    X=             -2.1886    Y=             -1.1919    Z=              0.0000  Tot=              2.4921
 Quadrupole moment (field-independent basis, Debye-Ang):
   XX=             -9.5044   YY=             11.1942   ZZ=            -14.9877
   XY=             -5.1568   XZ=              0.0000   YZ=              0.0000

 \MP4DQ=-33.890774\MP4SDQ=-33.8928042\CCSD=-33.8938603\CCSD(T)=-33.8964
 Normal termination of Gaussian 16 at Sun Dec 10 06:43:09 2023.
