 Gaussian 16, Revision A.03,
 Gaussian 16:  ES64L-G16RevA.03 25-Dec-2016

 ------------------
 #p CCSD(T)/CEP-31G
 ------------------

 ------------
 H2O_H2O_4401
 ------------
 Symbolic Z-matrix:
 Charge =  0 Multiplicity = 1

                         Standard orientation:
 ---------------------------------------------------------------------
 Center     Atomic      Atomic             Coordinates (Angstroms)
 Number     Number       Type             X           Y           Z
 ---------------------------------------------------------------------
      1          8           0        0.003735   -3.143547    0.000000
      2          1           0       -0.795894   -3.714597    0.000000
      3          1           0        0.803248   -3.714760    0.000000
      4          8           0        0.003735    3.143790    0.000000
      5          1           0        0.764305    3.765917    0.000000
      6          1           0       -0.831425    3.661491    0.000000
 ---------------------------------------------------------------------

 SCF Done:  E(RHF) =  -33.6505808818     A.U. after   10 cycles
 E2 =    -0.2284421815D+00 EUMP2 =    -0.33879023063272D+02
 CCSD(T)
 CCSD(T)= -0.33896058157D+02

 The electronic state is 1-A'.
 Alpha  occ. eigenvalues --   -1.34986  -1.34984  -0.70613  -0.70611  -0.54654
 Alpha  occ. eigenvalues --   -0.54652  -0.49539  -0.49537
 Alpha virt. eigenvalues --    0.20718   0.20721   0.30950   0.30952   0.81015
 Alpha virt. eigenvalues --    0.81017   0.84148   0.84168   0.87223   0.87225
 Alpha virt. eigenvalues --    1.17864   1.17866   1.22332   1.22334   2.57910

 Mulliken charges:
               1
     1  O   -0.736820
     2  H    0.368310
     3  H    0.368509
     4  O   -0.736817
     5  H    0.368270
     6  H    0.368547
 Sum of Mulliken charges =  -0.00000

 Dipole moment (field-independent basis, Debye):
    X=             -0.1724    Y=             -0.0057    Z=              0.0000  Tot=              0.1725
 Quadrupole moment (field-independent basis, Debye-Ang):
   XX=             -8.0477   YY=             21.3217   ZZ=            -14.9867
   XY=             -0.4264   XZ=              0.0000   YZ=              0.0000

 \MP4DQ=-33.8904046\MP4SDQ=-33.8924355\CCSD=-33.8934932\CCSD(T)=-33.896
 Normal termination of Gaussian 16 at Sun Dec 10 06:59:14 2023.
