 Gaussian 16, Revision A.03,
 Gaussian 16:  ES64L-G16RevA.03 25-Dec-2016

 ------------------
 #p CCSD(T)/CEP-31G
 ------------------

 ------------
 H2O_H2O_1947
 ------------
 Symbolic Z-matrix:
 Charge =  0 Multiplicity = 1

                         Standard orientation:
 ---------------------------------------------------------------------
 Center     Atomic      Atomic             Coordinates (Angstroms)
 Number     Number       Type             X           Y           Z
 ---------------------------------------------------------------------
      1          8           0        0.056757   -1.773609    0.000000
      2          1           0       -0.744338   -2.342601    0.000000
      3          1           0        0.854798   -2.346876    0.000000
      4          8           0        0.056757    1.872622    0.000000
      5          1           0       -0.402803    2.741133    0.000000
      6          1           0       -0.615772    1.156235    0.000000
 ---------------------------------------------------------------------

 SCF Done:  E(RHF) =  -33.6531007734     A.U. after   11 cycles
 E2 =    -0.2286720044D+00 EUMP2 =    -0.33881772777797D+02
 CCSD(T)
 CCSD(T)= -0.33898765409D+02

 The electronic state is 1-A'.
 Alpha  occ. eigenvalues --   -1.35920  -1.33483  -0.71562  -0.69041  -0.55732
 Alpha  occ. eigenvalues --   -0.53226  -0.50508  -0.48075
 Alpha virt. eigenvalues --    0.19251   0.23158   0.30065   0.32943   0.78269
 Alpha virt. eigenvalues --    0.79637   0.82860   0.85863   0.86649   0.97146
 Alpha virt. eigenvalues --    1.16983   1.20028   1.21461   1.26623   2.55114

 Mulliken charges:
               1
     1  O   -0.745213
     2  H    0.366817
     3  H    0.379561
     4  O   -0.743206
     5  H    0.356136
     6  H    0.385905
 Sum of Mulliken charges =   0.00000

 Dipole moment (field-independent basis, Debye):
    X=             -2.5801    Y=             -2.4335    Z=              0.0000  Tot=              3.5467
 Quadrupole moment (field-independent basis, Debye-Ang):
   XX=            -10.1103   YY=              0.4397   ZZ=            -14.9930
   XY=             -4.8855   XZ=              0.0000   YZ=              0.0000

 P4DQ=-33.8930799\MP4SDQ=-33.895138\CCSD=-33.8961755\CCSD(T)=-33.898765
 Normal termination of Gaussian 16 at Sun Dec 10 07:01:24 2023.
