 Gaussian 16, Revision A.03,
 Gaussian 16:  ES64L-G16RevA.03 25-Dec-2016

 ------------------
 #p CCSD(T)/CEP-31G
 ------------------

 ------------
 H2O_H2O_3801
 ------------
 Symbolic Z-matrix:
 Charge =  0 Multiplicity = 1

                         Standard orientation:
 ---------------------------------------------------------------------
 Center     Atomic      Atomic             Coordinates (Angstroms)
 Number     Number       Type             X           Y           Z
 ---------------------------------------------------------------------
      1          8           0        0.003735   -2.824445    0.000000
      2          1           0       -0.795901   -3.395486    0.000000
      3          1           0        0.803241   -3.395668    0.000000
      4          8           0        0.003735    2.824688    0.000000
      5          1           0        0.764312    3.446806    0.000000
      6          1           0       -0.831419    3.342398    0.000000
 ---------------------------------------------------------------------

 SCF Done:  E(RHF) =  -33.6501125630     A.U. after   10 cycles
 E2 =    -0.2284700087D+00 EUMP2 =    -0.33878582571692D+02
 CCSD(T)
 CCSD(T)= -0.33895631097D+02

 The electronic state is 1-A'.
 Alpha  occ. eigenvalues --   -1.34840  -1.34838  -0.70466  -0.70464  -0.54483
 Alpha  occ. eigenvalues --   -0.54475  -0.49387  -0.49384
 Alpha virt. eigenvalues --    0.20833   0.20848   0.31068   0.31071   0.81165
 Alpha virt. eigenvalues --    0.81172   0.84267   0.84457   0.87394   0.87410
 Alpha virt. eigenvalues --    1.17990   1.17993   1.22462   1.22465   2.58043

 Mulliken charges:
               1
     1  O   -0.735193
     2  H    0.367463
     3  H    0.367730
     4  O   -0.735189
     5  H    0.367414
     6  H    0.367774
 Sum of Mulliken charges =   0.00000

 Dipole moment (field-independent basis, Debye):
    X=             -0.1722    Y=             -0.0057    Z=              0.0000  Tot=              0.1723
 Quadrupole moment (field-independent basis, Debye-Ang):
   XX=             -8.0551   YY=             17.9079   ZZ=            -14.9862
   XY=             -0.3723   XZ=              0.0000   YZ=              0.0000

 P4DQ=-33.8899738\MP4SDQ=-33.892006\CCSD=-33.8930644\CCSD(T)=-33.895631
 Normal termination of Gaussian 16 at Sun Dec 10 06:48:25 2023.
