 Gaussian 16, Revision A.03,
 Gaussian 16:  ES64L-G16RevA.03 25-Dec-2016

 ------------------
 #p CCSD(T)/CEP-31G
 ------------------

 ------------
 H2O_H2O_2084
 ------------
 Symbolic Z-matrix:
 Charge =  0 Multiplicity = 1

                         Standard orientation:
 ---------------------------------------------------------------------
 Center     Atomic      Atomic             Coordinates (Angstroms)
 Number     Number       Type             X           Y           Z
 ---------------------------------------------------------------------
      1          8           0        0.031744   -1.896753    0.000000
      2          1           0       -0.768644   -2.466739    0.000000
      3          1           0        0.830496   -2.469030    0.000000
      4          8           0        0.031744    1.915913    0.000000
      5          1           0        0.380576    2.834511    0.000000
      6          1           0       -0.950334    1.947980    0.000000
 ---------------------------------------------------------------------

 SCF Done:  E(RHF) =  -33.6476248331     A.U. after   11 cycles
 E2 =    -0.2287363838D+00 EUMP2 =    -0.33876361216822D+02
 CCSD(T)
 CCSD(T)= -0.33893490184D+02

 The electronic state is 1-A'.
 Alpha  occ. eigenvalues --   -1.34367  -1.33955  -0.69991  -0.69556  -0.53987
 Alpha  occ. eigenvalues --   -0.53301  -0.48883  -0.48466
 Alpha virt. eigenvalues --    0.20806   0.21941   0.31415   0.31795   0.78181
 Alpha virt. eigenvalues --    0.81074   0.82665   0.86134   0.88921   0.96058
 Alpha virt. eigenvalues --    1.18363   1.18822   1.22875   1.23301   2.58114

 Mulliken charges:
               1
     1  O   -0.726921
     2  H    0.360232
     3  H    0.366803
     4  O   -0.725039
     5  H    0.358204
     6  H    0.366720
 Sum of Mulliken charges =   0.00000

 Dipole moment (field-independent basis, Debye):
    X=             -1.4460    Y=             -0.4659    Z=              0.0000  Tot=              1.5192
 Quadrupole moment (field-independent basis, Debye-Ang):
   XX=             -8.7299   YY=              6.8566   ZZ=            -14.9850
   XY=             -2.0571   XZ=              0.0000   YZ=              0.0000

 MP4DQ=-33.8877958\MP4SDQ=-33.8898473\CCSD=-33.890903\CCSD(T)=-33.89349
 Normal termination of Gaussian 16 at Sun Dec 10 07:04:54 2023.
