 Gaussian 16, Revision A.03,
 Gaussian 16:  ES64L-G16RevA.03 25-Dec-2016

 ------------------
 #p CCSD(T)/CEP-31G
 ------------------

 ------------
 H2O_H2O_4710
 ------------
 Symbolic Z-matrix:
 Charge =  0 Multiplicity = 1

                         Standard orientation:
 ---------------------------------------------------------------------
 Center     Atomic      Atomic             Coordinates (Angstroms)
 Number     Number       Type             X           Y           Z
 ---------------------------------------------------------------------
      1          8           0        0.034779   -3.290445    0.000000
      2          1           0       -0.765309   -3.860852    0.000000
      3          1           0        0.833832   -3.862301    0.000000
      4          8           0        0.034779    3.313986    0.000000
      5          1           0        0.322291    4.253584    0.000000
      6          1           0       -0.947277    3.281237    0.000000
 ---------------------------------------------------------------------

 SCF Done:  E(RHF) =  -33.6510319066     A.U. after   11 cycles
 E2 =    -0.2284210195D+00 EUMP2 =    -0.33879452926074D+02
 CCSD(T)
 CCSD(T)= -0.33896475086D+02

 The electronic state is 1-A'.
 Alpha  occ. eigenvalues --   -1.35192  -1.35030  -0.70821  -0.70656  -0.54884
 Alpha  occ. eigenvalues --   -0.54723  -0.49752  -0.49590
 Alpha virt. eigenvalues --    0.20538   0.20702   0.30772   0.30931   0.80802
 Alpha virt. eigenvalues --    0.80961   0.83899   0.84058   0.86984   0.87168
 Alpha virt. eigenvalues --    1.17678   1.17838   1.22142   1.22303   2.57713

 Mulliken charges:
               1
     1  O   -0.738424
     2  H    0.368414
     3  H    0.370010
     4  O   -0.738242
     5  H    0.367877
     6  H    0.370365
 Sum of Mulliken charges =  -0.00000

 Dipole moment (field-independent basis, Debye):
    X=             -1.6060    Y=             -0.5499    Z=              0.0000  Tot=              1.6975
 Quadrupole moment (field-independent basis, Debye-Ang):
   XX=             -8.8215   YY=             20.1195   ZZ=            -14.9874
   XY=             -4.4829   XZ=              0.0000   YZ=              0.0000

 \MP4DQ=-33.8908251\MP4SDQ=-33.8928548\CCSD=-33.8939116\CCSD(T)=-33.896
 Normal termination of Gaussian 16 at Sun Dec 10 07:06:28 2023.
