 Gaussian 16, Revision A.03,
 Gaussian 16:  ES64L-G16RevA.03 25-Dec-2016

 ------------------
 #p CCSD(T)/CEP-31G
 ------------------

 ------------
 H2O_H2O_2732
 ------------
 Symbolic Z-matrix:
 Charge =  0 Multiplicity = 1

                         Standard orientation:
 ---------------------------------------------------------------------
 Center     Atomic      Atomic             Coordinates (Angstroms)
 Number     Number       Type             X           Y           Z
 ---------------------------------------------------------------------
      1          8           0        0.025266   -2.246481    0.000000
      2          1           0       -0.774856   -2.816841    0.000000
      3          1           0        0.824285   -2.818385    0.000000
      4          8           0        0.025266    2.258213    0.000000
      5          1           0        0.490610    3.123638    0.000000
      6          1           0       -0.944299    2.417740    0.000000
 ---------------------------------------------------------------------

 SCF Done:  E(RHF) =  -33.6489412194     A.U. after   11 cycles
 E2 =    -0.2285644726D+00 EUMP2 =    -0.33877505692072D+02
 CCSD(T)
 CCSD(T)= -0.33894588695D+02

 The electronic state is 1-A'.
 Alpha  occ. eigenvalues --   -1.34583  -1.34406  -0.70207  -0.70022  -0.54177
 Alpha  occ. eigenvalues --   -0.53949  -0.49113  -0.48937
 Alpha virt. eigenvalues --    0.20942   0.21298   0.31262   0.31429   0.81360
 Alpha virt. eigenvalues --    0.81688   0.82721   0.86353   0.87739   0.88695
 Alpha virt. eigenvalues --    1.18200   1.18374   1.22684   1.22862   2.58271

 Mulliken charges:
               1
     1  O   -0.731240
     2  H    0.363951
     3  H    0.367298
     4  O   -0.730639
     5  H    0.363112
     6  H    0.367519
 Sum of Mulliken charges =  -0.00000

 Dipole moment (field-independent basis, Debye):
    X=             -1.1590    Y=             -0.2794    Z=              0.0000  Tot=              1.1922
 Quadrupole moment (field-independent basis, Debye-Ang):
   XX=             -8.4760   YY=             10.8975   ZZ=            -14.9854
   XY=             -1.9623   XZ=              0.0000   YZ=              0.0000

 MP4DQ=-33.8889201\MP4SDQ=-33.8909569\CCSD=-33.8920157\CCSD(T)=-33.8945
 Normal termination of Gaussian 16 at Sun Dec 10 06:29:04 2023.
