 Gaussian 16, Revision A.03,
 Gaussian 16:  ES64L-G16RevA.03 25-Dec-2016

 ------------------
 #p CCSD(T)/CEP-31G
 ------------------

 -----------
 H2O_H2O_428
 -----------
 Symbolic Z-matrix:
 Charge =  0 Multiplicity = 1

                         Standard orientation:
 ---------------------------------------------------------------------
 Center     Atomic      Atomic             Coordinates (Angstroms)
 Number     Number       Type             X           Y           Z
 ---------------------------------------------------------------------
      1          8           0        0.011143   -1.028448    0.000000
      2          1           0       -0.788959   -1.598835    0.000000
      3          1           0        0.810182   -1.600325    0.000000
      4          8           0        0.011143    1.030623    0.000000
      5          1           0        0.684595    1.746142    0.000000
      6          1           0       -0.884110    1.435626    0.000000
 ---------------------------------------------------------------------

 SCF Done:  E(RHF) =  -33.5991358567     A.U. after   11 cycles
 E2 =    -0.2320267755D+00 EUMP2 =    -0.33831162632231D+02
 CCSD(T)
 CCSD(T)= -0.33848361731D+02

 The electronic state is 1-A'.
 Alpha  occ. eigenvalues --   -1.33077  -1.30604  -0.68262  -0.66528  -0.58236
 Alpha  occ. eigenvalues --   -0.48009  -0.44260  -0.42023
 Alpha virt. eigenvalues --    0.21519   0.25865   0.32818   0.33388   0.78558
 Alpha virt. eigenvalues --    0.80632   0.90226   0.96297   1.02949   1.19633
 Alpha virt. eigenvalues --    1.20424   1.22948   1.24794   1.27431   2.49027

 Mulliken charges:
               1
     1  O   -0.701046
     2  H    0.343857
     3  H    0.355713
     4  O   -0.695530
     5  H    0.350721
     6  H    0.346284
 Sum of Mulliken charges =   0.00000

 Dipole moment (field-independent basis, Debye):
    X=             -0.4371    Y=             -0.0511    Z=              0.0000  Tot=              0.4400
 Quadrupole moment (field-independent basis, Debye-Ang):
   XX=             -8.4005   YY=             -3.3499   ZZ=            -15.0224
   XY=             -0.2561   XZ=              0.0000   YZ=              0.0000

 P4DQ=-33.8421875\MP4SDQ=-33.844424\CCSD=-33.8454337\CCSD(T)=-33.848361
 Normal termination of Gaussian 16 at Sun Dec 10 06:32:46 2023.
