 Gaussian 16, Revision A.03,
 Gaussian 16:  ES64L-G16RevA.03 25-Dec-2016

 ------------------
 #p CCSD(T)/CEP-31G
 ------------------

 ----------
 H2O_H2O_35
 ----------
 Symbolic Z-matrix:
 Charge =  0 Multiplicity = 1

                         Standard orientation:
 ---------------------------------------------------------------------
 Center     Atomic      Atomic             Coordinates (Angstroms)
 Number     Number       Type             X           Y           Z
 ---------------------------------------------------------------------
      1          8           0        0.034811   -0.804210    0.000000
      2          1           0       -0.766849   -1.372405    0.000000
      3          1           0        0.832282   -1.378271    0.000000
      4          8           0        0.034811    0.827559    0.000000
      5          1           0        0.324917    1.766358    0.000000
      6          1           0       -0.947331    0.797523    0.000000
 ---------------------------------------------------------------------

 SCF Done:  E(RHF) =  -33.4802834737     A.U. after   12 cycles
 E2 =    -0.2385308799D+00 EUMP2 =    -0.33718814353638D+02
 CCSD(T)
 CCSD(T)= -0.33735337143D+02

 The electronic state is 1-A'.
 Alpha  occ. eigenvalues --   -1.38648  -1.28781  -0.73187  -0.69211  -0.61030
 Alpha  occ. eigenvalues --   -0.52812  -0.42638  -0.33202
 Alpha virt. eigenvalues --    0.20374   0.28736   0.31331   0.33536   0.81701
 Alpha virt. eigenvalues --    0.84312   0.88786   0.91501   0.98256   1.19570
 Alpha virt. eigenvalues --    1.22110   1.24208   1.26567   1.39953   2.56116

 Mulliken charges:
               1
     1  O   -0.722921
     2  H    0.328959
     3  H    0.383519
     4  O   -0.658012
     5  H    0.324314
     6  H    0.344140
 Sum of Mulliken charges =   0.00000

 Dipole moment (field-independent basis, Debye):
    X=             -1.2448    Y=             -0.6548    Z=              0.0000  Tot=              1.4065
 Quadrupole moment (field-independent basis, Debye-Ang):
   XX=             -9.1242   YY=             -8.0387   ZZ=            -14.9634
   XY=             -0.8755   XZ=              0.0000   YZ=              0.0000

 4DQ=-33.7283939\MP4SDQ=-33.7312288\CCSD=-33.731744\CCSD(T)=-33.7353371
 Normal termination of Gaussian 16 at Sun Dec 10 06:25:23 2023.
