 Gaussian 16, Revision A.03,
 Gaussian 16:  ES64L-G16RevA.03 25-Dec-2016

 ------------------
 #p CCSD(T)/CEP-31G
 ------------------

 ------------
 H2O_H2O_4174
 ------------
 Symbolic Z-matrix:
 Charge =  0 Multiplicity = 1

                         Standard orientation:
 ---------------------------------------------------------------------
 Center     Atomic      Atomic             Coordinates (Angstroms)
 Number     Number       Type             X           Y           Z
 ---------------------------------------------------------------------
      1          8           0        0.057207   -2.948788    0.000000
      2          1           0       -0.743298   -3.518611    0.000000
      3          1           0        0.855842   -3.521227    0.000000
      4          8           0        0.057207    3.062827    0.000000
      5          1           0       -0.512617    3.863331    0.000000
      6          1           0       -0.515233    2.264191    0.000000
 ---------------------------------------------------------------------

 SCF Done:  E(RHF) =  -33.6522003755     A.U. after   11 cycles
 E2 =    -0.2283657139D+00 EUMP2 =    -0.33880566089458D+02
 CCSD(T)
 CCSD(T)= -0.33897554128D+02

 The electronic state is 1-A'.
 Alpha  occ. eigenvalues --   -1.35768  -1.34837  -0.71403  -0.70456  -0.55527
 Alpha  occ. eigenvalues --   -0.54579  -0.50346  -0.49414
 Alpha virt. eigenvalues --    0.20025   0.20988   0.30268   0.31229   0.80206
 Alpha virt. eigenvalues --    0.81122   0.83185   0.84142   0.86317   0.87311
 Alpha virt. eigenvalues --    1.17151   1.18079   1.21605   1.22557   2.57156

 Mulliken charges:
               1
     1  O   -0.742601
     2  H    0.369771
     3  H    0.372831
     4  O   -0.742479
     5  H    0.367270
     6  H    0.375209
 Sum of Mulliken charges =   0.00000

 Dipole moment (field-independent basis, Debye):
    X=             -2.6379    Y=             -2.6726    Z=              0.0000  Tot=              3.7552
 Quadrupole moment (field-independent basis, Debye-Ang):
   XX=            -10.1655   YY=              5.6061   ZZ=            -14.9896
   XY=             -8.2732   XZ=              0.0000   YZ=              0.0000

 9\MP4DQ=-33.8919131\MP4SDQ=-33.8939397\CCSD=-33.894994\CCSD(T)=-33.897
 Normal termination of Gaussian 16 at Sun Dec 10 06:55:15 2023.
