 Gaussian 16, Revision A.03,
 Gaussian 16:  ES64L-G16RevA.03 25-Dec-2016

 ------------------
 #p CCSD(T)/CEP-31G
 ------------------

 ------------
 H2O_H2O_1171
 ------------
 Symbolic Z-matrix:
 Charge =  0 Multiplicity = 1

                         Standard orientation:
 ---------------------------------------------------------------------
 Center     Atomic      Atomic             Coordinates (Angstroms)
 Number     Number       Type             X           Y           Z
 ---------------------------------------------------------------------
      1          8           0        0.056173   -1.365482    0.000000
      2          1           0       -0.745345   -1.933879    0.000000
      3          1           0        0.853787   -1.939343    0.000000
      4          8           0        0.056173    1.457041    0.000000
      5          1           0       -0.344934    2.354047    0.000000
      6          1           0       -0.662269    0.786706    0.000000
 ---------------------------------------------------------------------

 SCF Done:  E(RHF) =  -33.6512356079     A.U. after   11 cycles
 E2 =    -0.2295003395D+00 EUMP2 =    -0.33880735947414D+02
 CCSD(T)
 CCSD(T)= -0.33897800671D+02

 The electronic state is 1-A'.
 Alpha  occ. eigenvalues --   -1.35994  -1.32217  -0.71651  -0.68045  -0.55578
 Alpha  occ. eigenvalues --   -0.51948  -0.50585  -0.46795
 Alpha virt. eigenvalues --    0.19217   0.25321   0.30073   0.34535   0.77725
 Alpha virt. eigenvalues --    0.78319   0.86413   0.87190   0.92066   1.13693
 Alpha virt. eigenvalues --    1.17559   1.20159   1.22301   1.29462   2.57828

 Mulliken charges:
               1
     1  O   -0.752804
     2  H    0.362875
     3  H    0.390535
     4  O   -0.731761
     5  H    0.342102
     6  H    0.389053
 Sum of Mulliken charges =   0.00000

 Dipole moment (field-independent basis, Debye):
    X=             -2.4735    Y=             -2.3406    Z=              0.0000  Tot=              3.4053
 Quadrupole moment (field-independent basis, Debye-Ang):
   XX=            -10.0547   YY=             -1.8977   ZZ=            -14.9982
   XY=             -3.6612   XZ=              0.0000   YZ=              0.0000

 9\MP4DQ=-33.8919639\MP4SDQ=-33.8940929\CCSD=-33.8951176\CCSD(T)=-33.89
 Normal termination of Gaussian 16 at Sun Dec 10 06:46:38 2023.
