 Gaussian 16, Revision A.03,
 Gaussian 16:  ES64L-G16RevA.03 25-Dec-2016

 ------------------
 #p CCSD(T)/CEP-31G
 ------------------

 ------------
 H2O_H2O_1996
 ------------
 Symbolic Z-matrix:
 Charge =  0 Multiplicity = 1

                         Standard orientation:
 ---------------------------------------------------------------------
 Center     Atomic      Atomic             Coordinates (Angstroms)
 Number     Number       Type             X           Y           Z
 ---------------------------------------------------------------------
      1          8           0        0.056135   -1.804200    0.000000
      2          1           0       -0.744921   -2.373246    0.000000
      3          1           0        0.854215   -2.377414    0.000000
      4          8           0        0.056135    1.895850    0.000000
      5          1           0       -0.345698    2.792530    0.000000
      6          1           0       -0.661763    1.224933    0.000000
 ---------------------------------------------------------------------

 SCF Done:  E(RHF) =  -33.6524865740     A.U. after   11 cycles
 E2 =    -0.2286584777D+00 EUMP2 =    -0.33881145051738D+02
 CCSD(T)
 CCSD(T)= -0.33898148967D+02

 The electronic state is 1-A'.
 Alpha  occ. eigenvalues --   -1.35757  -1.33581  -0.71397  -0.69139  -0.55532
 Alpha  occ. eigenvalues --   -0.53303  -0.50337  -0.48166
 Alpha virt. eigenvalues --    0.19408   0.22937   0.30193   0.32690   0.78188
 Alpha virt. eigenvalues --    0.79848   0.82730   0.85898   0.86574   0.96729
 Alpha virt. eigenvalues --    1.17132   1.19915   1.21567   1.25828   2.55686

 Mulliken charges:
               1
     1  O   -0.743144
     2  H    0.365969
     3  H    0.378132
     4  O   -0.740713
     5  H    0.356554
     6  H    0.383202
 Sum of Mulliken charges =   0.00000

 Dipole moment (field-independent basis, Debye):
    X=             -2.5536    Y=             -2.2447    Z=              0.0000  Tot=              3.3999
 Quadrupole moment (field-independent basis, Debye-Ang):
   XX=            -10.0671   YY=              1.2223   ZZ=            -14.9919
   XY=             -4.7690   XZ=              0.0000   YZ=              0.0000

 7\MP4DQ=-33.8924686\MP4SDQ=-33.8945231\CCSD=-33.8955629\CCSD(T)=-33.89
 Normal termination of Gaussian 16 at Sun Dec 10 07:03:20 2023.
