 Gaussian 16, Revision A.03,
 Gaussian 16:  ES64L-G16RevA.03 25-Dec-2016

 ------------------
 #p CCSD(T)/CEP-31G
 ------------------

 ------------
 H2O_H2O_2286
 ------------
 Symbolic Z-matrix:
 Charge =  0 Multiplicity = 1

                         Standard orientation:
 ---------------------------------------------------------------------
 Center     Atomic      Atomic             Coordinates (Angstroms)
 Number     Number       Type             X           Y           Z
 ---------------------------------------------------------------------
      1          8           0        0.037680   -1.998197    0.000000
      2          1           0       -0.762810   -2.568040    0.000000
      3          1           0        0.836330   -2.570616    0.000000
      4          8           0        0.037680    2.026422    0.000000
      5          1           0        0.263797    2.982653    0.000000
      6          1           0       -0.940200    1.930203    0.000000
 ---------------------------------------------------------------------

 SCF Done:  E(RHF) =  -33.6487326585     A.U. after   11 cycles
 E2 =    -0.2286500262D+00 EUMP2 =    -0.33877382684720D+02
 CCSD(T)
 CCSD(T)= -0.33894475158D+02

 The electronic state is 1-A'.
 Alpha  occ. eigenvalues --   -1.34632  -1.34089  -0.70258  -0.69687  -0.54228
 Alpha  occ. eigenvalues --   -0.53595  -0.49160  -0.48619
 Alpha virt. eigenvalues --    0.20701   0.21766   0.31198   0.31723   0.79700
 Alpha virt. eigenvalues --    0.81109   0.82202   0.86175   0.87991   0.93222
 Alpha virt. eigenvalues --    1.18143   1.18721   1.22617   1.23200   2.58076

 Mulliken charges:
               1
     1  O   -0.730630
     2  H    0.361998
     3  H    0.368731
     4  O   -0.728634
     5  H    0.359589
     6  H    0.368947
 Sum of Mulliken charges =   0.00000

 Dipole moment (field-independent basis, Debye):
    X=             -1.7206    Y=             -0.6804    Z=              0.0000  Tot=              1.8503
 Quadrupole moment (field-independent basis, Debye-Ang):
   XX=             -8.9805   YY=              7.3143   ZZ=            -14.9859
   XY=             -2.7213   XZ=              0.0000   YZ=              0.0000

 MP4DQ=-33.8887972\MP4SDQ=-33.8908406\CCSD=-33.8918957\CCSD(T)=-33.8944
 Normal termination of Gaussian 16 at Sun Dec 10 07:08:33 2023.
