 Gaussian 16, Revision A.03,
 Gaussian 16:  ES64L-G16RevA.03 25-Dec-2016

 ------------------
 #p CCSD(T)/CEP-31G
 ------------------

 ------------
 H2O_H2O_3017
 ------------
 Symbolic Z-matrix:
 Charge =  0 Multiplicity = 1

                         Standard orientation:
 ---------------------------------------------------------------------
 Center     Atomic      Atomic             Coordinates (Angstroms)
 Number     Number       Type             X           Y           Z
 ---------------------------------------------------------------------
      1          8           0        0.051282   -2.364612    0.000000
      2          1           0       -0.749339   -2.934271    0.000000
      3          1           0        0.849800   -2.937214    0.000000
      4          8           0        0.051282    2.428128    0.000000
      5          1           0       -0.105525    3.398138    0.000000
      6          1           0       -0.815445    1.965214    0.000000
 ---------------------------------------------------------------------

 SCF Done:  E(RHF) =  -33.6510805444     A.U. after   11 cycles
 E2 =    -0.2284626165D+00 EUMP2 =    -0.33879543160857D+02
 CCSD(T)
 CCSD(T)= -0.33896564289D+02

 The electronic state is 1-A'.
 Alpha  occ. eigenvalues --   -1.35309  -1.34460  -0.70941  -0.70062  -0.55005
 Alpha  occ. eigenvalues --   -0.54145  -0.49870  -0.49023
 Alpha virt. eigenvalues --    0.20368   0.21341   0.30653   0.31507   0.80681
 Alpha virt. eigenvalues --    0.81517   0.83225   0.84945   0.86849   0.88126
 Alpha virt. eigenvalues --    1.17563   1.18414   1.22016   1.22906   2.57594

 Mulliken charges:
               1
     1  O   -0.738711
     2  H    0.366570
     3  H    0.372160
     4  O   -0.737472
     5  H    0.363621
     6  H    0.373832
 Sum of Mulliken charges =  -0.00000

 Dipole moment (field-independent basis, Debye):
    X=             -2.3563    Y=             -1.5054    Z=              0.0000  Tot=              2.7961
 Quadrupole moment (field-independent basis, Debye-Ang):
   XX=             -9.7430   YY=              7.7077   ZZ=            -14.9882
   XY=             -5.1572   XZ=              0.0000   YZ=              0.0000

 MP4DQ=-33.8909133\MP4SDQ=-33.892944\CCSD=-33.8939987\CCSD(T)=-33.89656
 Normal termination of Gaussian 16 at Sun Dec 10 06:34:15 2023.
