 Gaussian 16, Revision A.03,
 Gaussian 16:  ES64L-G16RevA.03 25-Dec-2016

 ------------------
 #p CCSD(T)/CEP-31G
 ------------------

 ------------
 H2O_H2O_4724
 ------------
 Symbolic Z-matrix:
 Charge =  0 Multiplicity = 1

                         Standard orientation:
 ---------------------------------------------------------------------
 Center     Atomic      Atomic             Coordinates (Angstroms)
 Number     Number       Type             X           Y           Z
 ---------------------------------------------------------------------
      1          8           0        0.057198   -3.241289    0.000000
      2          1           0       -0.743223   -3.811229    0.000000
      3          1           0        0.855917   -3.813612    0.000000
      4          8           0        0.057198    3.355345    0.000000
      5          1           0       -0.512741    4.155767    0.000000
      6          1           0       -0.515125    2.556625    0.000000
 ---------------------------------------------------------------------

 SCF Done:  E(RHF) =  -33.6520916076     A.U. after   11 cycles
 E2 =    -0.2283657734D+00 EUMP2 =    -0.33880457381027D+02
 CCSD(T)
 CCSD(T)= -0.33897448709D+02

 The electronic state is 1-A'.
 Alpha  occ. eigenvalues --   -1.35739  -1.34974  -0.71373  -0.70597  -0.55490
 Alpha  occ. eigenvalues --   -0.54715  -0.50315  -0.49550
 Alpha virt. eigenvalues --    0.20049   0.20835   0.30292   0.31076   0.80236
 Alpha virt. eigenvalues --    0.80990   0.83231   0.84011   0.86354   0.87162
 Alpha virt. eigenvalues --    1.17176   1.17938   1.21631   1.22409   2.57185

 Mulliken charges:
               1
     1  O   -0.742213
     2  H    0.369927
     3  H    0.372286
     4  O   -0.742135
     5  H    0.368057
     6  H    0.374078
 Sum of Mulliken charges =  -0.00000

 Dipole moment (field-independent basis, Debye):
    X=             -2.6399    Y=             -2.6648    Z=              0.0000  Tot=              3.7510
 Quadrupole moment (field-independent basis, Debye-Ang):
   XX=            -10.1666   YY=              7.1756   ZZ=            -14.9893
   XY=             -9.0409   XZ=              0.0000   YZ=              0.0000

 \MP4DQ=-33.891807\MP4SDQ=-33.8938337\CCSD=-33.8948885\CCSD(T)=-33.8974
 Normal termination of Gaussian 16 at Sun Dec 10 07:06:43 2023.
