 Gaussian 16, Revision A.03,
 Gaussian 16:  ES64L-G16RevA.03 25-Dec-2016

 ------------------
 #p CCSD(T)/CEP-31G
 ------------------

 ------------
 H2O_H2O_3335
 ------------
 Symbolic Z-matrix:
 Charge =  0 Multiplicity = 1

                         Standard orientation:
 ---------------------------------------------------------------------
 Center     Atomic      Atomic             Coordinates (Angstroms)
 Number     Number       Type             X           Y           Z
 ---------------------------------------------------------------------
      1          8           0        0.034782   -2.559179    0.000000
      2          1           0       -0.765453   -3.129380    0.000000
      3          1           0        0.833688   -3.131241    0.000000
      4          8           0        0.034782    2.582703    0.000000
      5          1           0        0.322536    3.522226    0.000000
      6          1           0       -0.947282    2.550207    0.000000
 ---------------------------------------------------------------------

 SCF Done:  E(RHF) =  -33.6501618456     A.U. after   11 cycles
 E2 =    -0.2284839065D+00 EUMP2 =    -0.33878645752077D+02
 CCSD(T)
 CCSD(T)= -0.33895693131D+02

 The electronic state is 1-A'.
 Alpha  occ. eigenvalues --   -1.34930  -1.34659  -0.70557  -0.70277  -0.54573
 Alpha  occ. eigenvalues --   -0.54301  -0.49477  -0.49208
 Alpha virt. eigenvalues --    0.20745   0.21033   0.30984   0.31245   0.81075
 Alpha virt. eigenvalues --    0.81342   0.83987   0.84772   0.87303   0.87679
 Alpha virt. eigenvalues --    1.17903   1.18170   1.22375   1.22643   2.57959

 Mulliken charges:
               1
     1  O   -0.735433
     2  H    0.366117
     3  H    0.369316
     4  O   -0.734850
     5  H    0.365087
     6  H    0.369762
 Sum of Mulliken charges =  -0.00000

 Dipole moment (field-independent basis, Debye):
    X=             -1.6006    Y=             -0.5548    Z=              0.0000  Tot=              1.6940
 Quadrupole moment (field-independent basis, Debye-Ang):
   XX=             -8.8302   YY=             13.0838   ZZ=            -14.9865
   XY=             -3.3272   XZ=              0.0000   YZ=              0.0000

 \MP4DQ=-33.8900359\MP4SDQ=-33.8920683\CCSD=-33.8931259\CCSD(T)=-33.895
 Normal termination of Gaussian 16 at Sun Dec 10 06:39:53 2023.
