 Gaussian 16, Revision A.03,
 Gaussian 16:  ES64L-G16RevA.03 25-Dec-2016

 ------------------
 #p CCSD(T)/CEP-31G
 ------------------

 -----------
 H2O_H2O_432
 -----------
 Symbolic Z-matrix:
 Charge =  0 Multiplicity = 1

                         Standard orientation:
 ---------------------------------------------------------------------
 Center     Atomic      Atomic             Coordinates (Angstroms)
 Number     Number       Type             X           Y           Z
 ---------------------------------------------------------------------
      1          8           0        0.025273   -1.023288    0.000000
      2          1           0       -0.775503   -1.592729    0.000000
      3          1           0        0.823635   -1.596108    0.000000
      4          8           0        0.025273    1.034961    0.000000
      5          1           0        0.491609    1.899852    0.000000
      6          1           0       -0.944109    1.195601    0.000000
 ---------------------------------------------------------------------

 SCF Done:  E(RHF) =  -33.6022708222     A.U. after   11 cycles
 E2 =    -0.2319465938D+00 EUMP2 =    -0.33834217415984D+02
 CCSD(T)
 CCSD(T)= -0.33851459364D+02

 The electronic state is 1-A'.
 Alpha  occ. eigenvalues --   -1.33382  -1.30718  -0.68681  -0.66808  -0.57838
 Alpha  occ. eigenvalues --   -0.48293  -0.44450  -0.42819
 Alpha virt. eigenvalues --    0.21200   0.26036   0.32513   0.33296   0.80379
 Alpha virt. eigenvalues --    0.80380   0.90129   0.97613   1.00745   1.17397
 Alpha virt. eigenvalues --    1.19886   1.23430   1.25738   1.28835   2.49797

 Mulliken charges:
               1
     1  O   -0.715739
     2  H    0.341544
     3  H    0.366644
     4  O   -0.687281
     5  H    0.350432
     6  H    0.344399
 Sum of Mulliken charges =   0.00000

 Dipole moment (field-independent basis, Debye):
    X=             -0.9970    Y=             -0.2760    Z=              0.0000  Tot=              1.0345
 Quadrupole moment (field-independent basis, Debye-Ang):
   XX=             -8.6946   YY=             -3.4166   ZZ=            -15.0140
   XY=             -0.6519   XZ=              0.0000   YZ=              0.0000

 P4DQ=-33.8452871\MP4SDQ=-33.8475352\CCSD=-33.8485457\CCSD(T)=-33.85145
 Normal termination of Gaussian 16 at Sun Dec 10 06:32:51 2023.
