 Gaussian 16, Revision A.03,
 Gaussian 16:  ES64L-G16RevA.03 25-Dec-2016

 ------------------
 #p CCSD(T)/CEP-31G
 ------------------

 ----------
 H2O_H2O_10
 ----------
 Symbolic Z-matrix:
 Charge =  0 Multiplicity = 1

                         Standard orientation:
 ---------------------------------------------------------------------
 Center     Atomic      Atomic             Coordinates (Angstroms)
 Number     Number       Type             X           Y           Z
 ---------------------------------------------------------------------
      1          8           0        0.034812   -0.790916    0.000000
      2          1           0       -0.766883   -1.359062    0.000000
      3          1           0        0.832248   -1.365026    0.000000
      4          8           0        0.034812    0.814261    0.000000
      5          1           0        0.324975    1.753043    0.000000
      6          1           0       -0.947333    0.784285    0.000000
 ---------------------------------------------------------------------

 SCF Done:  E(RHF) =  -33.4646563756     A.U. after   12 cycles
 E2 =    -0.2393980785D+00 EUMP2 =    -0.33704054454046D+02
 CCSD(T)
 CCSD(T)= -0.33720470434D+02

 The electronic state is 1-A'.
 Alpha  occ. eigenvalues --   -1.39369  -1.28665  -0.73727  -0.69685  -0.61210
 Alpha  occ. eigenvalues --   -0.53373  -0.42562  -0.32200
 Alpha virt. eigenvalues --    0.20289   0.28826   0.31330   0.33537   0.81683
 Alpha virt. eigenvalues --    0.84280   0.88576   0.91230   0.97936   1.19516
 Alpha virt. eigenvalues --    1.22181   1.23868   1.26513   1.40894   2.57034

 Mulliken charges:
               1
     1  O   -0.717777
     2  H    0.326005
     3  H    0.383171
     4  O   -0.655946
     5  H    0.319605
     6  H    0.344942
 Sum of Mulliken charges =  -0.00000

 Dipole moment (field-independent basis, Debye):
    X=             -1.2383    Y=             -0.6699    Z=              0.0000  Tot=              1.4079
 Quadrupole moment (field-independent basis, Debye-Ang):
   XX=             -9.1387   YY=             -8.4377   ZZ=            -14.9538
   XY=             -0.8889   XZ=              0.0000   YZ=              0.0000

 4DQ=-33.7134371\MP4SDQ=-33.7163375\CCSD=-33.716782\CCSD(T)=-33.7204704
 Normal termination of Gaussian 16 at Sun Dec 10 06:24:55 2023.
