 Gaussian 16, Revision A.03,
 Gaussian 16:  ES64L-G16RevA.03 25-Dec-2016

 ------------------
 #p CCSD(T)/CEP-31G
 ------------------

 -----------
 H2O_H2O_114
 -----------
 Symbolic Z-matrix:
 Charge =  0 Multiplicity = 1

                         Standard orientation:
 ---------------------------------------------------------------------
 Center     Atomic      Atomic             Coordinates (Angstroms)
 Number     Number       Type             X           Y           Z
 ---------------------------------------------------------------------
      1          8           0        0.045412   -0.832730    0.000000
      2          1           0       -0.756756   -1.400208    0.000000
      3          1           0        0.842369   -1.407504    0.000000
      4          8           0        0.045412    0.877006    0.000000
      5          1           0        0.083532    1.858868    0.000000
      6          1           0       -0.895744    0.594638    0.000000
 ---------------------------------------------------------------------

 SCF Done:  E(RHF) =  -33.5184695595     A.U. after   12 cycles
 E2 =    -0.2360595621D+00 EUMP2 =    -0.33754529121579D+02
 CCSD(T)
 CCSD(T)= -0.33771434476D+02

 The electronic state is 1-A'.
 Alpha  occ. eigenvalues --   -1.38161  -1.29114  -0.73672  -0.69415  -0.57490
 Alpha  occ. eigenvalues --   -0.52230  -0.43181  -0.38226
 Alpha virt. eigenvalues --    0.20039   0.28784   0.30886   0.33517   0.80935
 Alpha virt. eigenvalues --    0.84513   0.89278   0.94776   0.97360   1.19611
 Alpha virt. eigenvalues --    1.21128   1.25978   1.27180   1.37679   2.58594

 Mulliken charges:
               1
     1  O   -0.761118
     2  H    0.340482
     3  H    0.397353
     4  O   -0.640953
     5  H    0.315079
     6  H    0.349156
 Sum of Mulliken charges =  -0.00000

 Dipole moment (field-independent basis, Debye):
    X=             -1.6441    Y=             -1.1473    Z=              0.0000  Tot=              2.0048
 Quadrupole moment (field-independent basis, Debye-Ang):
   XX=             -9.5165   YY=             -7.1850   ZZ=            -14.9542
   XY=             -1.2457   XZ=              0.0000   YZ=              0.0000

 MP4DQ=-33.7647156\MP4SDQ=-33.7673789\CCSD=-33.7680597\CCSD(T)=-33.7714
 Normal termination of Gaussian 16 at Sun Dec 10 06:26:52 2023.
