 Gaussian 16, Revision A.03,
 Gaussian 16:  ES64L-G16RevA.03 25-Dec-2016

 ------------------
 #p CCSD(T)/CEP-31G
 ------------------

 -----------
 H2O_H2O_306
 -----------
 Symbolic Z-matrix:
 Charge =  0 Multiplicity = 1

                         Standard orientation:
 ---------------------------------------------------------------------
 Center     Atomic      Atomic             Coordinates (Angstroms)
 Number     Number       Type             X           Y           Z
 ---------------------------------------------------------------------
      1          8           0        0.021865   -0.958473    0.000000
      2          1           0       -0.778821   -1.528041    0.000000
      3          1           0        0.820318   -1.531166    0.000000
      4          8           0        0.021865    0.967082    0.000000
      5          1           0        0.543638    1.799704    0.000000
      6          1           0       -0.934970    1.190627    0.000000
 ---------------------------------------------------------------------

 SCF Done:  E(RHF) =  -33.5793379786     A.U. after   11 cycles
 E2 =    -0.2332111717D+00 EUMP2 =    -0.33812549150245D+02
 CCSD(T)
 CCSD(T)= -0.33829619480D+02

 The electronic state is 1-A'.
 Alpha  occ. eigenvalues --   -1.33897  -1.30116  -0.68948  -0.66460  -0.59652
 Alpha  occ. eigenvalues --   -0.48839  -0.43737  -0.39940
 Alpha virt. eigenvalues --    0.21249   0.26683   0.32435   0.33464   0.80301
 Alpha virt. eigenvalues --    0.81095   0.90107   0.94302   1.03265   1.19965
 Alpha virt. eigenvalues --    1.20881   1.23342   1.27147   1.29718   2.48867

 Mulliken charges:
               1
     1  O   -0.712615
     2  H    0.340136
     3  H    0.366092
     4  O   -0.687862
     5  H    0.351117
     6  H    0.343133
 Sum of Mulliken charges =  -0.00000

 Dipole moment (field-independent basis, Debye):
    X=             -0.8345    Y=             -0.2079    Z=              0.0000  Tot=              0.8600
 Quadrupole moment (field-independent basis, Debye-Ang):
   XX=             -8.6384   YY=             -4.5947   ZZ=            -15.0222
   XY=             -0.5042   XZ=              0.0000   YZ=              0.0000

 P4DQ=-33.8232953\MP4SDQ=-33.8256455\CCSD=-33.8265798\CCSD(T)=-33.82961
 Normal termination of Gaussian 16 at Sun Dec 10 06:30:29 2023.
