 Gaussian 16, Revision A.03,
 Gaussian 16:  ES64L-G16RevA.03 25-Dec-2016

 ------------------
 #p CCSD(T)/CEP-31G
 ------------------

 ----------
 H2O_H2O_55
 ----------
 Symbolic Z-matrix:
 Charge =  0 Multiplicity = 1

                         Standard orientation:
 ---------------------------------------------------------------------
 Center     Atomic      Atomic             Coordinates (Angstroms)
 Number     Number       Type             X           Y           Z
 ---------------------------------------------------------------------
      1          8           0        0.018364   -0.826935    0.000000
      2          1           0       -0.782293   -1.396544    0.000000
      3          1           0        0.816846   -1.399589    0.000000
      4          8           0        0.018364    0.832928    0.000000
      5          1           0        0.593436    1.629669    0.000000
      6          1           0       -0.921816    1.118527    0.000000
 ---------------------------------------------------------------------

 SCF Done:  E(RHF) =  -33.4881770993     A.U. after   11 cycles
 E2 =    -0.2386019654D+00 EUMP2 =    -0.33726779064676D+02
 CCSD(T)
 CCSD(T)= -0.33743146358D+02

 The electronic state is 1-A'.
 Alpha  occ. eigenvalues --   -1.37143  -1.28918  -0.71058  -0.67526  -0.63759
 Alpha  occ. eigenvalues --   -0.51764  -0.42495  -0.31990
 Alpha virt. eigenvalues --    0.20963   0.28543   0.31614   0.33668   0.81270
 Alpha virt. eigenvalues --    0.82135   0.88905   0.89005   1.02476   1.19539
 Alpha virt. eigenvalues --    1.21510   1.24166   1.27535   1.38915   2.52344

 Mulliken charges:
               1
     1  O   -0.698409
     2  H    0.331558
     3  H    0.364140
     4  O   -0.681253
     5  H    0.341275
     6  H    0.342689
 Sum of Mulliken charges =  -0.00000

 Dipole moment (field-independent basis, Debye):
    X=             -0.6667    Y=             -0.1744    Z=              0.0000  Tot=              0.6892
 Quadrupole moment (field-independent basis, Debye-Ang):
   XX=             -8.7074   YY=             -7.6733   ZZ=            -15.0148
   XY=             -0.4460   XZ=              0.0000   YZ=              0.0000

 P4DQ=-33.7362268\MP4SDQ=-33.7390364\CCSD=-33.7395832\CCSD(T)=-33.74314
 Normal termination of Gaussian 16 at Sun Dec 10 06:25:45 2023.
