 Gaussian 16, Revision A.03,
 Gaussian 16:  ES64L-G16RevA.03 25-Dec-2016

 ------------------
 #p CCSD(T)/CEP-31G
 ------------------

 ------------
 H2O_H2O_3787
 ------------
 Symbolic Z-matrix:
 Charge =  0 Multiplicity = 1

                         Standard orientation:
 ---------------------------------------------------------------------
 Center     Atomic      Atomic             Coordinates (Angstroms)
 Number     Number       Type             X           Y           Z
 ---------------------------------------------------------------------
      1          8           0        0.040406   -2.793165    0.000000
      2          1           0       -0.759871   -3.363307    0.000000
      3          1           0        0.839270   -3.365286    0.000000
      4          8           0        0.040406    2.826521    0.000000
      5          1           0        0.203136    3.795555    0.000000
      6          1           0       -0.929027    2.666190    0.000000
 ---------------------------------------------------------------------

 SCF Done:  E(RHF) =  -33.6507369539     A.U. after   11 cycles
 E2 =    -0.2284475709D+00 EUMP2 =    -0.33879184524847D+02
 CCSD(T)
 CCSD(T)= -0.33896215159D+02

 The electronic state is 1-A'.
 Alpha  occ. eigenvalues --   -1.35121  -1.34801  -0.70750  -0.70421  -0.54797
 Alpha  occ. eigenvalues --   -0.54476  -0.49676  -0.49358
 Alpha virt. eigenvalues --    0.20592   0.20918   0.30826   0.31139   0.80877
 Alpha virt. eigenvalues --    0.81191   0.83983   0.84337   0.87073   0.87456
 Alpha virt. eigenvalues --    1.17736   1.18052   1.22203   1.22521   2.57779

 Mulliken charges:
               1
     1  O   -0.737423
     2  H    0.367264
     3  H    0.370158
     4  O   -0.736938
     5  H    0.366188
     6  H    0.370750
 Sum of Mulliken charges =   0.00000

 Dipole moment (field-independent basis, Debye):
    X=             -1.8623    Y=             -0.7834    Z=              0.0000  Tot=              2.0203
 Quadrupole moment (field-independent basis, Debye-Ang):
   XX=             -9.0994   YY=             14.3427   ZZ=            -14.9872
   XY=             -4.4295   XZ=              0.0000   YZ=              0.0000

 MP4DQ=-33.8905627\MP4SDQ=-33.8925933\CCSD=-33.8936502\CCSD(T)=-33.8962
 Normal termination of Gaussian 16 at Sun Dec 10 06:48:09 2023.
