 Gaussian 16, Revision A.03,
 Gaussian 16:  ES64L-G16RevA.03 25-Dec-2016

 ------------------
 #p CCSD(T)/CEP-31G
 ------------------

 ------------
 H2O_H2O_3287
 ------------
 Symbolic Z-matrix:
 Charge =  0 Multiplicity = 1

                         Standard orientation:
 ---------------------------------------------------------------------
 Center     Atomic      Atomic             Coordinates (Angstroms)
 Number     Number       Type             X           Y           Z
 ---------------------------------------------------------------------
      1          8           0        0.040408   -2.527253    0.000000
      2          1           0       -0.759943   -3.097291    0.000000
      3          1           0        0.839198   -3.099477    0.000000
      4          8           0        0.040408    2.560598    0.000000
      5          1           0        0.203263    3.529611    0.000000
      6          1           0       -0.929046    2.400392    0.000000
 ---------------------------------------------------------------------

 SCF Done:  E(RHF) =  -33.6503722356     A.U. after   11 cycles
 E2 =    -0.2284780542D+00 EUMP2 =    -0.33878850289817D+02
 CCSD(T)
 CCSD(T)= -0.33895891674D+02

 The electronic state is 1-A'.
 Alpha  occ. eigenvalues --   -1.35020  -1.34628  -0.70648  -0.70242  -0.54675
 Alpha  occ. eigenvalues --   -0.54281  -0.49570  -0.49180
 Alpha virt. eigenvalues --    0.20663   0.21081   0.30906   0.31288   0.80981
 Alpha virt. eigenvalues --    0.81368   0.83867   0.84760   0.87198   0.87739
 Alpha virt. eigenvalues --    1.17822   1.18209   1.22292   1.22682   2.57871

 Mulliken charges:
               1
     1  O   -0.736186
     2  H    0.366189
     3  H    0.369998
     4  O   -0.735414
     5  H    0.364779
     6  H    0.370634
 Sum of Mulliken charges =  -0.00000

 Dipole moment (field-independent basis, Debye):
    X=             -1.8591    Y=             -0.7869    Z=              0.0000  Tot=              2.0188
 Quadrupole moment (field-independent basis, Debye-Ang):
   XX=             -9.1022   YY=             11.8971   ZZ=            -14.9869
   XY=             -3.9429   XZ=              0.0000   YZ=              0.0000

 \MP4DQ=-33.890236\MP4SDQ=-33.8922679\CCSD=-33.8933249\CCSD(T)=-33.8958
 Normal termination of Gaussian 16 at Sun Dec 10 06:39:01 2023.
