 Gaussian 16, Revision A.03,
 Gaussian 16:  ES64L-G16RevA.03 25-Dec-2016

 ------------------
 #p CCSD(T)/CEP-31G
 ------------------

 -----------
 H2O_H2O_366
 -----------
 Symbolic Z-matrix:
 Charge =  0 Multiplicity = 1

                         Standard orientation:
 ---------------------------------------------------------------------
 Center     Atomic      Atomic             Coordinates (Angstroms)
 Number     Number       Type             X           Y           Z
 ---------------------------------------------------------------------
      1          8           0        0.049584   -0.958950    0.000000
      2          1           0       -0.752443   -1.526628    0.000000
      3          1           0        0.846685   -1.533525    0.000000
      4          8           0        0.049584    1.015636    0.000000
      5          1           0       -0.041026    1.994051    0.000000
      6          1           0       -0.846562    0.612613    0.000000
 ---------------------------------------------------------------------

 SCF Done:  E(RHF) =  -33.5964196296     A.U. after   11 cycles
 E2 =    -0.2326490596D+00 EUMP2 =    -0.33829068689152D+02
 CCSD(T)
 CCSD(T)= -0.33846218852D+02

 The electronic state is 1-A'.
 Alpha  occ. eigenvalues --   -1.35785  -1.30352  -0.71616  -0.68453  -0.55278
 Alpha  occ. eigenvalues --   -0.50339  -0.45377  -0.44500
 Alpha virt. eigenvalues --    0.19946   0.27595   0.30910   0.33853   0.79387
 Alpha virt. eigenvalues --    0.84837   0.89907   0.96361   0.99285   1.16115
 Alpha virt. eigenvalues --    1.19495   1.24741   1.26418   1.32630   2.58162

 Mulliken charges:
               1
     1  O   -0.771559
     2  H    0.350883
     3  H    0.397561
     4  O   -0.660805
     5  H    0.325845
     6  H    0.358075
 Sum of Mulliken charges =  -0.00000

 Dipole moment (field-independent basis, Debye):
    X=             -1.9369    Y=             -1.4187    Z=              0.0000  Tot=              2.4009
 Quadrupole moment (field-independent basis, Debye-Ang):
   XX=             -9.6900   YY=             -4.9387   ZZ=            -14.9895
   XY=             -1.7613   XZ=              0.0000   YZ=              0.0000

 MP4DQ=-33.8399284\MP4SDQ=-33.842284\CCSD=-33.8432071\CCSD(T)=-33.84621
 Normal termination of Gaussian 16 at Sun Dec 10 06:31:37 2023.
