 Gaussian 16, Revision A.03,
 Gaussian 16:  ES64L-G16RevA.03 25-Dec-2016

 ------------------
 #p CCSD(T)/CEP-31G
 ------------------

 -----------
 H2O_H2O_958
 -----------
 Symbolic Z-matrix:
 Charge =  0 Multiplicity = 1

                         Standard orientation:
 ---------------------------------------------------------------------
 Center     Atomic      Atomic             Coordinates (Angstroms)
 Number     Number       Type             X           Y           Z
 ---------------------------------------------------------------------
      1          8           0        0.028571   -1.300589    0.000000
      2          1           0       -0.772072   -1.870218    0.000000
      3          1           0        0.827067   -1.873223    0.000000
      4          8           0        0.028571    1.315785    0.000000
      5          1           0        0.437135    2.209419    0.000000
      6          1           0       -0.949264    1.412452    0.000000
 ---------------------------------------------------------------------

 SCF Done:  E(RHF) =  -33.6363355257     A.U. after   11 cycles
 E2 =    -0.2298031156D+00 EUMP2 =    -0.33866138641290D+02
 CCSD(T)
 CCSD(T)= -0.33883557967D+02

 The electronic state is 1-A'.
 Alpha  occ. eigenvalues --   -1.33232  -1.32414  -0.68818  -0.68055  -0.54453
 Alpha  occ. eigenvalues --   -0.49262  -0.47880  -0.46585
 Alpha virt. eigenvalues --    0.21036   0.24072   0.32274   0.32733   0.79184
 Alpha virt. eigenvalues --    0.81076   0.84942   0.88060   0.99156   1.13789
 Alpha virt. eigenvalues --    1.19269   1.22380   1.24037   1.25691   2.56979

 Mulliken charges:
               1
     1  O   -0.712154
     2  H    0.347018
     3  H    0.362728
     4  O   -0.699296
     5  H    0.347183
     6  H    0.354521
 Sum of Mulliken charges =  -0.00000

 Dipole moment (field-independent basis, Debye):
    X=             -1.2369    Y=             -0.3730    Z=              0.0000  Tot=              1.2919
 Quadrupole moment (field-independent basis, Debye-Ang):
   XX=             -8.7086   YY=              0.4849   ZZ=            -14.9907
   XY=             -1.0921   XZ=              0.0000   YZ=              0.0000

 MP4DQ=-33.8776654\MP4SDQ=-33.879783\CCSD=-33.8808698\CCSD(T)=-33.88355
 Normal termination of Gaussian 16 at Sun Dec 10 06:42:40 2023.
