 Gaussian 16, Revision A.03,
 Gaussian 16:  ES64L-G16RevA.03 25-Dec-2016

 ------------------
 #p CCSD(T)/CEP-31G
 ------------------

 ------------
 H2O_H2O_2027
 ------------
 Symbolic Z-matrix:
 Charge =  0 Multiplicity = 1

                         Standard orientation:
 ---------------------------------------------------------------------
 Center     Atomic      Atomic             Coordinates (Angstroms)
 Number     Number       Type             X           Y           Z
 ---------------------------------------------------------------------
      1          8           0        0.007455   -1.880040    0.000000
      2          1           0       -0.792311   -2.450899    0.000000
      3          1           0        0.806831   -2.451444    0.000000
      4          8           0        0.007455    1.881012    0.000000
      5          1           0        0.725867    2.551378    0.000000
      6          1           0       -0.859666    2.343188    0.000000
 ---------------------------------------------------------------------

 SCF Done:  E(RHF) =  -33.6462454219     A.U. after   11 cycles
 E2 =    -0.2287705084D+00 EUMP2 =    -0.33875015930296D+02
 CCSD(T)
 CCSD(T)= -0.33892184280D+02

 The electronic state is 1-A'.
 Alpha  occ. eigenvalues --   -1.33990  -1.33959  -0.69610  -0.69576  -0.53728
 Alpha  occ. eigenvalues --   -0.53013  -0.48520  -0.48413
 Alpha virt. eigenvalues --    0.21082   0.21917   0.31613   0.31851   0.78295
 Alpha virt. eigenvalues --    0.81223   0.82930   0.86466   0.90424   0.95236
 Alpha virt. eigenvalues --    1.18689   1.18721   1.23052   1.23417   2.58221

 Mulliken charges:
               1
     1  O   -0.722262
     2  H    0.360330
     3  H    0.361938
     4  O   -0.722143
     5  H    0.360120
     6  H    0.362016
 Sum of Mulliken charges =   0.00000

 Dipole moment (field-independent basis, Debye):
    X=             -0.3398    Y=             -0.0238    Z=              0.0000  Tot=              0.3406
 Quadrupole moment (field-independent basis, Debye-Ang):
   XX=             -8.1426   YY=              7.6392   ZZ=            -14.9837
   XY=             -0.4339   XZ=              0.0000   YZ=              0.0000

 P4DQ=-33.8864779\MP4SDQ=-33.8885327\CCSD=-33.8895925\CCSD(T)=-33.89218
 Normal termination of Gaussian 16 at Sun Dec 10 07:03:53 2023.
