 Gaussian 16, Revision A.03,
 Gaussian 16:  ES64L-G16RevA.03 25-Dec-2016

 ------------------
 #p CCSD(T)/CEP-31G
 ------------------

 ------------
 H2O_H2O_4125
 ------------
 Symbolic Z-matrix:
 Charge =  0 Multiplicity = 1

                         Standard orientation:
 ---------------------------------------------------------------------
 Center     Atomic      Atomic             Coordinates (Angstroms)
 Number     Number       Type             X           Y           Z
 ---------------------------------------------------------------------
      1          8           0        0.000000   -0.000000    2.997424
      2          1           0        0.000000    0.799571    3.568556
      3          1           0       -0.000000   -0.799571    3.568556
      4          8           0        0.000000   -0.000000   -2.997424
      5          1           0       -0.000000   -0.799571   -3.568556
      6          1           0        0.000000    0.799571   -3.568556
 ---------------------------------------------------------------------

 SCF Done:  E(RHF) =  -33.6503863577     A.U. after   10 cycles
 E2 =    -0.2284535322D+00 EUMP2 =    -0.33878839889968D+02
 CCSD(T)
 CCSD(T)= -0.33895880546D+02

 The electronic state is 1-AG.
 Alpha  occ. eigenvalues --   -1.34923  -1.34923  -0.70549  -0.70549  -0.54580
 Alpha  occ. eigenvalues --   -0.54578  -0.49473  -0.49473
 Alpha virt. eigenvalues --    0.20769   0.20774   0.31001   0.31002   0.81080
 Alpha virt. eigenvalues --    0.81082   0.84215   0.84273   0.87297   0.87302
 Alpha virt. eigenvalues --    1.17919   1.17919   1.22388   1.22389   2.57968

 Mulliken charges:
               1
     1  O   -0.736141
     2  H    0.368071
     3  H    0.368071
     4  O   -0.736141
     5  H    0.368071
     6  H    0.368071
 Sum of Mulliken charges =  -0.00000

 Dipole moment (field-independent basis, Debye):
    X=             -0.0000    Y=              0.0000    Z=              0.0000  Tot=              0.0000
 Quadrupole moment (field-independent basis, Debye-Ang):
   XX=            -14.9865   YY=             -8.0417   ZZ=             19.7846
   XY=              0.0000   XZ=              0.0000   YZ=             -0.0000

 -33.8902254\MP4SDQ=-33.8922569\CCSD=-33.8933148\CCSD(T)=-33.8958805\RM
 Normal termination of Gaussian 16 at Sun Dec 10 06:54:24 2023.
