 Gaussian 16, Revision A.03,
 Gaussian 16:  ES64L-G16RevA.03 25-Dec-2016

 ------------------
 #p CCSD(T)/CEP-31G
 ------------------

 ----------
 H2O_H2O_54
 ----------
 Symbolic Z-matrix:
 Charge =  0 Multiplicity = 1

                         Standard orientation:
 ---------------------------------------------------------------------
 Center     Atomic      Atomic             Coordinates (Angstroms)
 Number     Number       Type             X           Y           Z
 ---------------------------------------------------------------------
      1          8           0        0.014785   -0.828101    0.000000
      2          1           0       -0.785661   -1.398006    0.000000
      3          1           0        0.813479   -1.400458    0.000000
      4          8           0        0.014785    0.831947    0.000000
      5          1           0        0.640454    1.589605    0.000000
      6          1           0       -0.904832    1.178085    0.000000
 ---------------------------------------------------------------------

 SCF Done:  E(RHF) =  -33.4868511637     A.U. after   11 cycles
 E2 =    -0.2387479443D+00 EUMP2 =    -0.33725599107943D+02
 CCSD(T)
 CCSD(T)= -0.33741932774D+02

 The electronic state is 1-A'.
 Alpha  occ. eigenvalues --   -1.37046  -1.28918  -0.70835  -0.67287  -0.64220
 Alpha  occ. eigenvalues --   -0.51703  -0.42464  -0.31711
 Alpha virt. eigenvalues --    0.21036   0.28565   0.31621   0.33685   0.80695
 Alpha virt. eigenvalues --    0.82184   0.88474   0.89010   1.03281   1.19543
 Alpha virt. eigenvalues --    1.21041   1.24500   1.27689   1.38946   2.52046

 Mulliken charges:
               1
     1  O   -0.694606
     2  H    0.333024
     3  H    0.359896
     4  O   -0.683624
     5  H    0.342338
     6  H    0.342972
 Sum of Mulliken charges =  -0.00000

 Dipole moment (field-independent basis, Debye):
    X=             -0.5376    Y=             -0.1130    Z=              0.0000  Tot=              0.5493
 Quadrupole moment (field-independent basis, Debye-Ang):
   XX=             -8.6551   YY=             -7.6854   ZZ=            -15.0211
   XY=             -0.3592   XZ=              0.0000   YZ=              0.0000

 4DQ=-33.7350001\MP4SDQ=-33.7378181\CCSD=-33.7383583\CCSD(T)=-33.741932
 Normal termination of Gaussian 16 at Sun Dec 10 06:25:44 2023.
