 Gaussian 16, Revision A.03,
 Gaussian 16:  ES64L-G16RevA.03 25-Dec-2016

 ------------------
 #p CCSD(T)/CEP-31G
 ------------------

 -----------
 H2O_H2O_487
 -----------
 Symbolic Z-matrix:
 Charge =  0 Multiplicity = 1

                         Standard orientation:
 ---------------------------------------------------------------------
 Center     Atomic      Atomic             Coordinates (Angstroms)
 Number     Number       Type             X           Y           Z
 ---------------------------------------------------------------------
      1          8           0        0.040440   -1.038192    0.000000
      2          1           0       -0.761009   -1.606685    0.000000
      3          1           0        0.838124   -1.611956    0.000000
      4          8           0        0.040440    1.071382    0.000000
      5          1           0        0.205165    2.040078    0.000000
      6          1           0       -0.929321    0.913046    0.000000
 ---------------------------------------------------------------------

 SCF Done:  E(RHF) =  -33.6135385332     A.U. after   11 cycles
 E2 =    -0.2316092625D+00 EUMP2 =    -0.33845147795713D+02
 CCSD(T)
 CCSD(T)= -0.33862466262D+02

 The electronic state is 1-A'.
 Alpha  occ. eigenvalues --   -1.34037  -1.31016  -0.69578  -0.67446  -0.56414
 Alpha  occ. eigenvalues --   -0.48839  -0.45382  -0.44986
 Alpha virt. eigenvalues --    0.20573   0.26281   0.31880   0.33274   0.79556
 Alpha virt. eigenvalues --    0.83428   0.89897   0.96973   0.99619   1.14868
 Alpha virt. eigenvalues --    1.19211   1.23314   1.24884   1.31253   2.53127

 Mulliken charges:
               1
     1  O   -0.741104
     2  H    0.345426
     3  H    0.379565
     4  O   -0.675971
     5  H    0.342185
     6  H    0.349900
 Sum of Mulliken charges =   0.00000

 Dipole moment (field-independent basis, Debye):
    X=             -1.6263    Y=             -0.8021    Z=              0.0000  Tot=              1.8133
 Quadrupole moment (field-independent basis, Debye-Ang):
   XX=             -9.2365   YY=             -3.3443   ZZ=            -15.0002
   XY=             -1.3209   XZ=              0.0000   YZ=              0.0000

 MP4DQ=-33.8563269\MP4SDQ=-33.858576\CCSD=-33.8595916\CCSD(T)=-33.86246
 Normal termination of Gaussian 16 at Sun Dec 10 06:33:52 2023.
