 Gaussian 16, Revision A.03,
 Gaussian 16:  ES64L-G16RevA.03 25-Dec-2016

 ------------------
 #p CCSD(T)/CEP-31G
 ------------------

 -----------
 H2O_H2O_231
 -----------
 Symbolic Z-matrix:
 Charge =  0 Multiplicity = 1

                         Standard orientation:
 ---------------------------------------------------------------------
 Center     Atomic      Atomic             Coordinates (Angstroms)
 Number     Number       Type             X           Y           Z
 ---------------------------------------------------------------------
      1          8           0        0.021865   -0.918587    0.000000
      2          1           0       -0.778869   -1.488088    0.000000
      3          1           0        0.820270   -1.491348    0.000000
      4          8           0        0.021865    0.927193    0.000000
      5          1           0        0.543709    1.759770    0.000000
      6          1           0       -0.934951    1.150818    0.000000
 ---------------------------------------------------------------------

 SCF Done:  E(RHF) =  -33.5604145336     A.U. after   11 cycles
 E2 =    -0.2342726694D+00 EUMP2 =    -0.33794687203016D+02
 CCSD(T)
 CCSD(T)= -0.33811623258D+02

 The electronic state is 1-A'.
 Alpha  occ. eigenvalues --   -1.34516  -1.29751  -0.69375  -0.66428  -0.60818
 Alpha  occ. eigenvalues --   -0.49432  -0.43336  -0.38037
 Alpha virt. eigenvalues --    0.21190   0.27173   0.32255   0.33543   0.80719
 Alpha virt. eigenvalues --    0.81479   0.89932   0.92619   1.03583   1.19936
 Alpha virt. eigenvalues --    1.22097   1.23236   1.27531   1.31780   2.49213

 Mulliken charges:
               1
     1  O   -0.712493
     2  H    0.338695
     3  H    0.367399
     4  O   -0.686304
     5  H    0.350145
     6  H    0.342558
 Sum of Mulliken charges =   0.00000

 Dipole moment (field-independent basis, Debye):
    X=             -0.8191    Y=             -0.2145    Z=              0.0000  Tot=              0.8467
 Quadrupole moment (field-independent basis, Debye-Ang):
   XX=             -8.6655   YY=             -5.3992   ZZ=            -15.0231
   XY=             -0.4913   XZ=              0.0000   YZ=              0.0000

 MP4DQ=-33.8051729\MP4SDQ=-33.807618\CCSD=-33.8084806\CCSD(T)=-33.81162
 Normal termination of Gaussian 16 at Sun Dec 10 06:29:04 2023.
