 Gaussian 16, Revision A.03,
 Gaussian 16:  ES64L-G16RevA.03 25-Dec-2016

 ------------------
 #p CCSD(T)/CEP-31G
 ------------------

 ------------
 H2O_H2O_2378
 ------------
 Symbolic Z-matrix:
 Charge =  0 Multiplicity = 1

                         Standard orientation:
 ---------------------------------------------------------------------
 Center     Atomic      Atomic             Coordinates (Angstroms)
 Number     Number       Type             X           Y           Z
 ---------------------------------------------------------------------
      1          8           0        0.011143   -2.065524    0.000000
      2          1           0       -0.788693   -2.636285    0.000000
      3          1           0        0.810449   -2.637027    0.000000
      4          8           0        0.011143    2.067709    0.000000
      5          1           0        0.684260    2.783542    0.000000
      6          1           0       -0.884300    2.472293    0.000000
 ---------------------------------------------------------------------

 SCF Done:  E(RHF) =  -33.6476638129     A.U. after   11 cycles
 E2 =    -0.2286493903D+00 EUMP2 =    -0.33876313203160D+02
 CCSD(T)
 CCSD(T)= -0.33893434078D+02

 The electronic state is 1-A'.
 Alpha  occ. eigenvalues --   -1.34258  -1.34218  -0.69880  -0.69837  -0.53898
 Alpha  occ. eigenvalues --   -0.53551  -0.48779  -0.48720
 Alpha virt. eigenvalues --    0.21051   0.21563   0.31474   0.31601   0.80822
 Alpha virt. eigenvalues --    0.81429   0.82165   0.87181   0.88802   0.90586
 Alpha virt. eigenvalues --    1.18474   1.18513   1.22905   1.23086   2.58333

 Mulliken charges:
               1
     1  O   -0.726876
     2  H    0.362508
     3  H    0.364375
     4  O   -0.726699
     5  H    0.362206
     6  H    0.364487
 Sum of Mulliken charges =  -0.00000

 Dipole moment (field-independent basis, Debye):
    X=             -0.5098    Y=             -0.0526    Z=              0.0000  Tot=              0.5125
 Quadrupole moment (field-independent basis, Debye-Ang):
   XX=             -8.1645   YY=              9.5989   ZZ=            -14.9844
   XY=             -0.7415   XZ=              0.0000   YZ=              0.0000

 \MP4DQ=-33.887751\MP4SDQ=-33.8897942\CCSD=-33.8908539\CCSD(T)=-33.8934
 Normal termination of Gaussian 16 at Sun Dec 10 07:10:12 2023.
