 Gaussian 16, Revision A.03,
 Gaussian 16:  ES64L-G16RevA.03 25-Dec-2016

 ------------------
 #p CCSD(T)/CEP-31G
 ------------------

 -----------
 H2O_H2O_352
 -----------
 Symbolic Z-matrix:
 Charge =  0 Multiplicity = 1

                         Standard orientation:
 ---------------------------------------------------------------------
 Center     Atomic      Atomic             Coordinates (Angstroms)
 Number     Number       Type             X           Y           Z
 ---------------------------------------------------------------------
      1          8           0        0.007455   -0.989216    0.000000
      2          1           0       -0.792486   -1.559830    0.000000
      3          1           0        0.806656   -1.560866    0.000000
      4          8           0        0.007455    0.990183    0.000000
      5          1           0        0.726073    1.660329    0.000000
      6          1           0       -0.859524    1.452627    0.000000
 ---------------------------------------------------------------------

 SCF Done:  E(RHF) =  -33.5864229617     A.U. after   11 cycles
 E2 =    -0.2327593752D+00 EUMP2 =    -0.33819182336905D+02
 CCSD(T)
 CCSD(T)= -0.33836278510D+02

 The electronic state is 1-A'.
 Alpha  occ. eigenvalues --   -1.33341  -1.30257  -0.68365  -0.66244  -0.59394
 Alpha  occ. eigenvalues --   -0.48306  -0.43843  -0.40361
 Alpha virt. eigenvalues --    0.21538   0.26260   0.32776   0.33489   0.78459
 Alpha virt. eigenvalues --    0.81038   0.90239   0.94107   1.05123   1.20259
 Alpha virt. eigenvalues --    1.21830   1.22949   1.25826   1.27728   2.48291

 Mulliken charges:
               1
     1  O   -0.699208
     2  H    0.344832
     3  H    0.353664
     4  O   -0.696499
     5  H    0.350405
     6  H    0.346806
 Sum of Mulliken charges =  -0.00000

 Dipole moment (field-independent basis, Debye):
    X=             -0.2868    Y=             -0.0230    Z=              0.0000  Tot=              0.2877
 Quadrupole moment (field-independent basis, Debye-Ang):
   XX=             -8.3833   YY=             -4.0720   ZZ=            -15.0293
   XY=             -0.1605   XZ=              0.0000   YZ=              0.0000

 DQ=-33.830016\MP4SDQ=-33.8323113\CCSD=-33.8332781\CCSD(T)=-33.8362785\
 Normal termination of Gaussian 16 at Sun Dec 10 06:31:21 2023.
