 Gaussian 16, Revision A.03,
 Gaussian 16:  ES64L-G16RevA.03 25-Dec-2016

 ------------------
 #p CCSD(T)/CEP-31G
 ------------------

 ------------
 H2O_H2O_3539
 ------------
 Symbolic Z-matrix:
 Charge =  0 Multiplicity = 1

                         Standard orientation:
 ---------------------------------------------------------------------
 Center     Atomic      Atomic             Coordinates (Angstroms)
 Number     Number       Type             X           Y           Z
 ---------------------------------------------------------------------
      1          8           0        0.045343   -2.654123    0.000000
      2          1           0       -0.755059   -3.224089    0.000000
      3          1           0        0.844081   -3.226419    0.000000
      4          8           0        0.045343    2.698680    0.000000
      5          1           0        0.080414    3.680656    0.000000
      6          1           0       -0.894931    2.413391    0.000000
 ---------------------------------------------------------------------

 SCF Done:  E(RHF) =  -33.6508280976     A.U. after   11 cycles
 E2 =    -0.2284502224D+00 EUMP2 =    -0.33879278319998D+02
 CCSD(T)
 CCSD(T)= -0.33896306395D+02

 The electronic state is 1-A'.
 Alpha  occ. eigenvalues --   -1.35180  -1.34708  -0.70810  -0.70323  -0.54861
 Alpha  occ. eigenvalues --   -0.54386  -0.49737  -0.49266
 Alpha virt. eigenvalues --    0.20534   0.21023   0.30773   0.31237   0.80816
 Alpha virt. eigenvalues --    0.81279   0.83866   0.84455   0.87006   0.87580
 Alpha virt. eigenvalues --    1.17681   1.18148   1.22147   1.22619   2.57719

 Mulliken charges:
               1
     1  O   -0.737770
     2  H    0.367040
     3  H    0.370731
     4  O   -0.737071
     5  H    0.365475
     6  H    0.371596
 Sum of Mulliken charges =  -0.00000

 Dipole moment (field-independent basis, Debye):
    X=             -2.0882    Y=             -1.0489    Z=              0.0000  Tot=              2.3368
 Quadrupole moment (field-independent basis, Debye-Ang):
   XX=             -9.3735   YY=             11.9540   ZZ=            -14.9875
   XY=             -4.8594   XZ=              0.0000   YZ=              0.0000

 MP4DQ=-33.8906545\MP4SDQ=-33.892685\CCSD=-33.8937415\CCSD(T)=-33.89630
 Normal termination of Gaussian 16 at Sun Dec 10 06:43:36 2023.
