 Gaussian 16, Revision A.03,
 Gaussian 16:  ES64L-G16RevA.03 25-Dec-2016

 ------------------
 #p CCSD(T)/CEP-31G
 ------------------

 -----------
 H2O_H2O_824
 -----------
 Symbolic Z-matrix:
 Charge =  0 Multiplicity = 1

                         Standard orientation:
 ---------------------------------------------------------------------
 Center     Atomic      Atomic             Coordinates (Angstroms)
 Number     Number       Type             X           Y           Z
 ---------------------------------------------------------------------
      1          8           0        0.057342   -1.167278    0.000000
      2          1           0       -0.744516   -1.735194    0.000000
      3          1           0        0.854613   -1.741617    0.000000
      4          8           0        0.057342    1.281045    0.000000
      5          1           0       -0.510574    2.082903    0.000000
      6          1           0       -0.516997    0.483774    0.000000
 ---------------------------------------------------------------------

 SCF Done:  E(RHF) =  -33.6469335683     A.U. after   11 cycles
 E2 =    -0.2300930182D+00 EUMP2 =    -0.33877026586541D+02
 CCSD(T)
 CCSD(T)= -0.33893626518D+02

 The electronic state is 1-A'.
 Alpha  occ. eigenvalues --   -1.37593  -1.30773  -0.73255  -0.68704  -0.55541
 Alpha  occ. eigenvalues --   -0.52164  -0.50708  -0.45327
 Alpha virt. eigenvalues --    0.18649   0.27234   0.28967   0.38053   0.76297
 Alpha virt. eigenvalues --    0.81896   0.88647   0.88820   0.98307   1.11157
 Alpha virt. eigenvalues --    1.18162   1.19589   1.25407   1.31760   2.66470

 Mulliken charges:
               1
     1  O   -0.784723
     2  H    0.372291
     3  H    0.418278
     4  O   -0.731908
     5  H    0.329357
     6  H    0.396705
 Sum of Mulliken charges =   0.00000

 Dipole moment (field-independent basis, Debye):
    X=             -2.4314    Y=             -3.0678    Z=              0.0000  Tot=              3.9145
 Quadrupole moment (field-independent basis, Debye-Ang):
   XX=            -10.1139   YY=             -4.7272   ZZ=            -15.0091
   XY=             -3.6154   XZ=              0.0000   YZ=              0.0000

 MP4DQ=-33.8876426\MP4SDQ=-33.8898423\CCSD=-33.8907785\CCSD(T)=-33.8936
 Normal termination of Gaussian 16 at Sun Dec 10 06:40:09 2023.
