 Gaussian 16, Revision A.03,
 Gaussian 16:  ES64L-G16RevA.03 25-Dec-2016

 ------------------
 #p CCSD(T)/CEP-31G
 ------------------

 ------------
 H2O_H2O_1596
 ------------
 Symbolic Z-matrix:
 Charge =  0 Multiplicity = 1

                         Standard orientation:
 ---------------------------------------------------------------------
 Center     Atomic      Atomic             Coordinates (Angstroms)
 Number     Number       Type             X           Y           Z
 ---------------------------------------------------------------------
      1          8           0        0.056151   -1.591485    0.000000
      2          1           0       -0.745099   -2.160260    0.000000
      3          1           0        0.854036   -2.164970    0.000000
      4          8           0        0.056151    1.683097    0.000000
      5          1           0       -0.345379    2.579913    0.000000
      6          1           0       -0.661974    1.012423    0.000000
 ---------------------------------------------------------------------

 SCF Done:  E(RHF) =  -33.6525668132     A.U. after   11 cycles
 E2 =    -0.2289421038D+00 EUMP2 =    -0.33881508916950D+02
 CCSD(T)
 CCSD(T)= -0.33898547806D+02

 The electronic state is 1-A'.
 Alpha  occ. eigenvalues --   -1.35844  -1.33031  -0.71489  -0.68602  -0.55620
 Alpha  occ. eigenvalues --   -0.52754  -0.50428  -0.47620
 Alpha virt. eigenvalues --    0.19254   0.23957   0.30135   0.33477   0.76340
 Alpha virt. eigenvalues --    0.78995   0.84107   0.86338   0.87927   1.05278
 Alpha virt. eigenvalues --    1.16979   1.20511   1.21749   1.27753   2.54536

 Mulliken charges:
               1
     1  O   -0.745137
     2  H    0.364439
     3  H    0.382050
     4  O   -0.739066
     5  H    0.350912
     6  H    0.386803
 Sum of Mulliken charges =   0.00000

 Dipole moment (field-independent basis, Debye):
    X=             -2.5285    Y=             -2.2883    Z=              0.0000  Tot=              3.4103
 Quadrupole moment (field-independent basis, Debye-Ang):
   XX=            -10.0613   YY=             -0.2330   ZZ=            -14.9939
   XY=             -4.2341   XZ=              0.0000   YZ=              0.0000

 6\MP4DQ=-33.8928142\MP4SDQ=-33.8948966\CCSD=-33.8959313\CCSD(T)=-33.89
 Normal termination of Gaussian 16 at Sun Dec 10 06:54:34 2023.
