 Gaussian 16, Revision A.03,
 Gaussian 16:  ES64L-G16RevA.03 25-Dec-2016

 ------------------
 #p CCSD(T)/CEP-31G
 ------------------

 ------------
 H2O_H2O_1494
 ------------
 Symbolic Z-matrix:
 Charge =  0 Multiplicity = 1

                         Standard orientation:
 ---------------------------------------------------------------------
 Center     Atomic      Atomic             Coordinates (Angstroms)
 Number     Number       Type             X           Y           Z
 ---------------------------------------------------------------------
      1          8           0        0.054196   -1.546133    0.000000
      2          1           0       -0.747050   -2.114913    0.000000
      3          1           0        0.852086   -2.119611    0.000000
      4          8           0        0.054196    1.623324    0.000000
      5          1           0       -0.226848    2.564876    0.000000
      6          1           0       -0.745322    1.052116    0.000000
 ---------------------------------------------------------------------

 SCF Done:  E(RHF) =  -33.6507868067     A.U. after   11 cycles
 E2 =    -0.2290724378D+00 EUMP2 =    -0.33879859244496D+02
 CCSD(T)
 CCSD(T)= -0.33896959089D+02

 The electronic state is 1-A'.
 Alpha  occ. eigenvalues --   -1.35467  -1.32978  -0.71111  -0.68549  -0.55170
 Alpha  occ. eigenvalues --   -0.52603  -0.50032  -0.47547
 Alpha virt. eigenvalues --    0.19505   0.23944   0.30442   0.33156   0.76006
 Alpha virt. eigenvalues --    0.79009   0.84610   0.86218   0.88475   1.08779
 Alpha virt. eigenvalues --    1.17293   1.20838   1.22058   1.27074   2.55836

 Mulliken charges:
               1
     1  O   -0.740118
     2  H    0.361299
     3  H    0.379762
     4  O   -0.731248
     5  H    0.349013
     6  H    0.381292
 Sum of Mulliken charges =  -0.00000

 Dipole moment (field-independent basis, Debye):
    X=             -2.4293    Y=             -1.9310    Z=              0.0000  Tot=              3.1033
 Quadrupole moment (field-independent basis, Debye-Ang):
   XX=             -9.9296   YY=              0.3518   ZZ=            -14.9920
   XY=             -3.7156   XZ=              0.0000   YZ=              0.0000

 MP4DQ=-33.891206\MP4SDQ=-33.8932975\CCSD=-33.8943365\CCSD(T)=-33.89695
 Normal termination of Gaussian 16 at Sun Dec 10 06:52:40 2023.
