 Gaussian 16, Revision A.03,
 Gaussian 16:  ES64L-G16RevA.03 25-Dec-2016

 ------------------
 #p CCSD(T)/CEP-31G
 ------------------

 ---------
 H2O_H2O_7
 ---------
 Symbolic Z-matrix:
 Charge =  0 Multiplicity = 1

                         Standard orientation:
 ---------------------------------------------------------------------
 Center     Atomic      Atomic             Coordinates (Angstroms)
 Number     Number       Type             X           Y           Z
 ---------------------------------------------------------------------
      1          8           0        0.025276   -0.797273    0.000000
      2          1           0       -0.775838   -1.366238    0.000000
      3          1           0        0.823298   -1.370568    0.000000
      4          8           0        0.025276    0.808916    0.000000
      5          1           0        0.492127    1.673530    0.000000
      6          1           0       -0.944010    0.970133    0.000000
 ---------------------------------------------------------------------

 SCF Done:  E(RHF) =  -33.4613099671     A.U. after   12 cycles
 E2 =    -0.2400960544D+00 EUMP2 =    -0.33701406021555D+02
 CCSD(T)
 CCSD(T)= -0.33717624312D+02

 The electronic state is 1-A'.
 Alpha  occ. eigenvalues --   -1.38737  -1.28719  -0.72583  -0.69022  -0.63122
 Alpha  occ. eigenvalues --   -0.53017  -0.42438  -0.30697
 Alpha virt. eigenvalues --    0.20614   0.28848   0.31425   0.33616   0.81980
 Alpha virt. eigenvalues --    0.82894   0.88561   0.89309   0.99594   1.19176
 Alpha virt. eigenvalues --    1.22039   1.23596   1.27042   1.41021   2.54842

 Mulliken charges:
               1
     1  O   -0.699827
     2  H    0.324948
     3  H    0.371332
     4  O   -0.670018
     5  H    0.330321
     6  H    0.343244
 Sum of Mulliken charges =  -0.00000

 Dipole moment (field-independent basis, Debye):
    X=             -0.9104    Y=             -0.3499    Z=              0.0000  Tot=              0.9753
 Quadrupole moment (field-independent basis, Debye-Ang):
   XX=             -8.8885   YY=             -8.4499   ZZ=            -14.9857
   XY=             -0.6584   XZ=              0.0000   YZ=              0.0000

 -33.7105504\MP4SDQ=-33.7134782\CCSD=-33.7138953\CCSD(T)=-33.7176243\RM
 Normal termination of Gaussian 16 at Sun Dec 10 06:24:51 2023.
