 Gaussian 16, Revision A.03,
 Gaussian 16:  ES64L-G16RevA.03 25-Dec-2016

 ------------------
 #p CCSD(T)/CEP-31G
 ------------------

 ------------
 H2O_H2O_3085
 ------------
 Symbolic Z-matrix:
 Charge =  0 Multiplicity = 1

                         Standard orientation:
 ---------------------------------------------------------------------
 Center     Atomic      Atomic             Coordinates (Angstroms)
 Number     Number       Type             X           Y           Z
 ---------------------------------------------------------------------
      1          8           0        0.034783   -2.426222    0.000000
      2          1           0       -0.765489   -2.996372    0.000000
      3          1           0        0.833652   -2.998335    0.000000
      4          8           0        0.034783    2.449741    0.000000
      5          1           0        0.322596    3.389246    0.000000
      6          1           0       -0.947284    2.417308    0.000000
 ---------------------------------------------------------------------

 SCF Done:  E(RHF) =  -33.6498853103     A.U. after   11 cycles
 E2 =    -0.2285061039D+00 EUMP2 =    -0.33878391414200D+02
 CCSD(T)
 CCSD(T)= -0.33895446956D+02

 The electronic state is 1-A'.
 Alpha  occ. eigenvalues --   -1.34859  -1.34557  -0.70486  -0.70172  -0.54487
 Alpha  occ. eigenvalues --   -0.54181  -0.49402  -0.49102
 Alpha virt. eigenvalues --    0.20785   0.21135   0.31039   0.31329   0.81143
 Alpha virt. eigenvalues --    0.81452   0.83688   0.85201   0.87391   0.87937
 Alpha virt. eigenvalues --    1.17963   1.18260   1.22437   1.22737   2.58026

 Mulliken charges:
               1
     1  O   -0.734496
     2  H    0.365399
     3  H    0.369100
     4  O   -0.733751
     5  H    0.364213
     6  H    0.369535
 Sum of Mulliken charges =  -0.00000

 Dipole moment (field-independent basis, Debye):
    X=             -1.5988    Y=             -0.5565    Z=              0.0000  Tot=              1.6928
 Quadrupole moment (field-independent basis, Debye-Ang):
   XX=             -8.8331   YY=             11.7953   ZZ=            -14.9863
   XY=             -3.1191   XZ=              0.0000   YZ=              0.0000

 \MP4DQ=-33.8897872\MP4SDQ=-33.8918205\CCSD=-33.8928783\CCSD(T)=-33.895
 Normal termination of Gaussian 16 at Sun Dec 10 06:35:27 2023.
