 Gaussian 16, Revision A.03,
 Gaussian 16:  ES64L-G16RevA.03 25-Dec-2016

 ------------------
 #p CCSD(T)/CEP-31G
 ------------------

 -----------
 H2O_H2O_640
 -----------
 Symbolic Z-matrix:
 Charge =  0 Multiplicity = 1

                         Standard orientation:
 ---------------------------------------------------------------------
 Center     Atomic      Atomic             Coordinates (Angstroms)
 Number     Number       Type             X           Y           Z
 ---------------------------------------------------------------------
      1          8           0        0.047579   -1.108607    0.000000
      2          1           0       -0.754046   -1.676853    0.000000
      3          1           0        0.845086   -1.682619    0.000000
      4          8           0        0.047579    1.159030    0.000000
      5          1           0        0.020459    2.141257    0.000000
      6          1           0       -0.872765    0.814831    0.000000
 ---------------------------------------------------------------------

 SCF Done:  E(RHF) =  -33.6294179530     A.U. after   11 cycles
 E2 =    -0.2309277512D+00 EUMP2 =    -0.33860345704243D+02
 CCSD(T)
 CCSD(T)= -0.33877660385D+02

 The electronic state is 1-A'.
 Alpha  occ. eigenvalues --   -1.34506  -1.31432  -0.70155  -0.67771  -0.55123
 Alpha  occ. eigenvalues --   -0.49184  -0.48403  -0.45665
 Alpha virt. eigenvalues --    0.20130   0.26087   0.31354   0.33480   0.78562
 Alpha virt. eigenvalues --    0.84185   0.89398   0.94852   0.97119   1.14546
 Alpha virt. eigenvalues --    1.18899   1.22187   1.24131   1.31348   2.57979

 Mulliken charges:
               1
     1  O   -0.748481
     2  H    0.350502
     3  H    0.384729
     4  O   -0.684135
     5  H    0.336667
     6  H    0.360718
 Sum of Mulliken charges =   0.00000

 Dipole moment (field-independent basis, Debye):
    X=             -1.9728    Y=             -1.2510    Z=              0.0000  Tot=              2.3360
 Quadrupole moment (field-independent basis, Debye-Ang):
   XX=             -9.5636   YY=             -2.7335   ZZ=            -14.9961
   XY=             -1.9345   XZ=              0.0000   YZ=              0.0000

 DQ=-33.8716126\MP4SDQ=-33.8738231\CCSD=-33.8748543\CCSD(T)=-33.8776604
 Normal termination of Gaussian 16 at Sun Dec 10 06:36:42 2023.
