 Gaussian 16, Revision A.03,
 Gaussian 16:  ES64L-G16RevA.03 25-Dec-2016

 ------------------
 #p CCSD(T)/CEP-31G
 ------------------

 ------------
 H2O_H2O_2786
 ------------
 Symbolic Z-matrix:
 Charge =  0 Multiplicity = 1

                         Standard orientation:
 ---------------------------------------------------------------------
 Center     Atomic      Atomic             Coordinates (Angstroms)
 Number     Number       Type             X           Y           Z
 ---------------------------------------------------------------------
      1          8           0        0.037678   -2.264108    0.000000
      2          1           0       -0.762705   -2.834101    0.000000
      3          1           0        0.836435   -2.836377    0.000000
      4          8           0        0.037678    2.292347    0.000000
      5          1           0        0.263614    3.248620    0.000000
      6          1           0       -0.940185    2.195943    0.000000
 ---------------------------------------------------------------------

 SCF Done:  E(RHF) =  -33.6496466715     A.U. after   11 cycles
 E2 =    -0.2285376131D+00 EUMP2 =    -0.33878184284561D+02
 CCSD(T)
 CCSD(T)= -0.33895247146D+02

 The electronic state is 1-A'.
 Alpha  occ. eigenvalues --   -1.34822  -1.34405  -0.70449  -0.70013  -0.54439
 Alpha  occ. eigenvalues --   -0.54008  -0.49362  -0.48947
 Alpha virt. eigenvalues --    0.20760   0.21320   0.31062   0.31464   0.81157
 Alpha virt. eigenvalues --    0.81630   0.82822   0.85738   0.87457   0.88781
 Alpha virt. eigenvalues --    1.17990   1.18405   1.22464   1.22885   2.58061

 Mulliken charges:
               1
     1  O   -0.733714
     2  H    0.364458
     3  H    0.369272
     4  O   -0.732559
     5  H    0.362793
     6  H    0.369751
 Sum of Mulliken charges =   0.00000

 Dipole moment (field-independent basis, Debye):
    X=             -1.7286    Y=             -0.6715    Z=              0.0000  Tot=              1.8545
 Quadrupole moment (field-independent basis, Debye-Ang):
   XX=             -8.9709   YY=              9.8592   ZZ=            -14.9863
   XY=             -3.1655   XZ=              0.0000   YZ=              0.0000

 P4DQ=-33.8895843\MP4SDQ=-33.8916192\CCSD=-33.8926764\CCSD(T)=-33.89524
 Normal termination of Gaussian 16 at Sun Dec 10 06:30:04 2023.
