 Gaussian 16, Revision A.03,
 Gaussian 16:  ES64L-G16RevA.03 25-Dec-2016

 ------------------
 #p CCSD(T)/CEP-31G
 ------------------

 ------------
 H2O_H2O_2439
 ------------
 Symbolic Z-matrix:
 Charge =  0 Multiplicity = 1

                         Standard orientation:
 ---------------------------------------------------------------------
 Center     Atomic      Atomic             Coordinates (Angstroms)
 Number     Number       Type             X           Y           Z
 ---------------------------------------------------------------------
      1          8           0        0.045353   -2.069122    0.000000
      2          1           0       -0.755282   -2.638762    0.000000
      3          1           0        0.843857   -2.641744    0.000000
      4          8           0        0.045353    2.113642    0.000000
      5          1           0        0.080823    3.095604    0.000000
      6          1           0       -0.895038    1.828737    0.000000
 ---------------------------------------------------------------------

 SCF Done:  E(RHF) =  -33.6498479914     A.U. after   11 cycles
 E2 =    -0.2285815548D+00 EUMP2 =    -0.33878429546125D+02
 CCSD(T)
 CCSD(T)= -0.33895488352D+02

 The electronic state is 1-A'.
 Alpha  occ. eigenvalues --   -1.34949  -1.34156  -0.70578  -0.69749  -0.54579
 Alpha  occ. eigenvalues --   -0.53762  -0.49492  -0.48704
 Alpha virt. eigenvalues --    0.20491   0.21717   0.30929   0.31730   0.80759
 Alpha virt. eigenvalues --    0.80942   0.81950   0.85869   0.87360   0.91512
 Alpha virt. eigenvalues --    1.17871   1.18715   1.22308   1.23201   2.57880

 Mulliken charges:
               1
     1  O   -0.734464
     2  H    0.363650
     3  H    0.370913
     4  O   -0.732288
     5  H    0.360439
     6  H    0.371749
 Sum of Mulliken charges =   0.00000

 Dipole moment (field-independent basis, Debye):
    X=             -2.0743    Y=             -1.0679    Z=              0.0000  Tot=              2.3330
 Quadrupole moment (field-independent basis, Debye-Ang):
   XX=             -9.3789   YY=              6.8471   ZZ=            -14.9871
   XY=             -3.6657   XZ=              0.0000   YZ=              0.0000

 P4DQ=-33.8898225\MP4SDQ=-33.8918606\CCSD=-33.8929145\CCSD(T)=-33.89548
 Normal termination of Gaussian 16 at Sun Dec 10 07:11:17 2023.
