 Gaussian 16, Revision A.03,
 Gaussian 16:  ES64L-G16RevA.03 25-Dec-2016

 ------------------
 #p CCSD(T)/CEP-31G
 ------------------

 ------------
 H2O_H2O_4668
 ------------
 Symbolic Z-matrix:
 Charge =  0 Multiplicity = 1

                         Standard orientation:
 ---------------------------------------------------------------------
 Center     Atomic      Atomic             Coordinates (Angstroms)
 Number     Number       Type             X           Y           Z
 ---------------------------------------------------------------------
      1          8           0        0.052815   -3.238423    0.000000
      2          1           0       -0.747548   -3.808444    0.000000
      3          1           0        0.851592   -3.810663    0.000000
      4          8           0        0.052815    3.308790    0.000000
      5          1           0       -0.167531    4.266367    0.000000
      6          1           0       -0.781546    2.789802    0.000000
 ---------------------------------------------------------------------

 SCF Done:  E(RHF) =  -33.6515853933     A.U. after   11 cycles
 E2 =    -0.2283950599D+00 EUMP2 =    -0.33879980453247D+02
 CCSD(T)
 CCSD(T)= -0.33896986509D+02

 The electronic state is 1-A'.
 Alpha  occ. eigenvalues --   -1.35479  -1.34992  -0.71111  -0.70614  -0.55203
 Alpha  occ. eigenvalues --   -0.54711  -0.50048  -0.49560
 Alpha virt. eigenvalues --    0.20281   0.20780   0.30519   0.31010   0.80504
 Alpha virt. eigenvalues --    0.80985   0.83548   0.84037   0.86653   0.87187
 Alpha virt. eigenvalues --    1.17414   1.17898   1.21873   1.22365   2.57435

 Mulliken charges:
               1
     1  O   -0.740407
     2  H    0.369009
     3  H    0.371398
     4  O   -0.740138
     5  H    0.367717
     6  H    0.372421
 Sum of Mulliken charges =  -0.00000

 Dipole moment (field-independent basis, Debye):
    X=             -2.4384    Y=             -1.6444    Z=              0.0000  Tot=              2.9410
 Quadrupole moment (field-independent basis, Debye-Ang):
   XX=             -9.8502   YY=             13.5569   ZZ=            -14.9883
   XY=             -7.5401   XZ=              0.0000   YZ=              0.0000

 3\MP4DQ=-33.8913408\MP4SDQ=-33.893369\CCSD=-33.8944247\CCSD(T)=-33.896
 Normal termination of Gaussian 16 at Sun Dec 10 07:05:42 2023.
