 Gaussian 16, Revision A.03,
 Gaussian 16:  ES64L-G16RevA.03 25-Dec-2016

 ------------------
 #p CCSD(T)/CEP-31G
 ------------------

 -----------
 H2O_H2O_540
 -----------
 Symbolic Z-matrix:
 Charge =  0 Multiplicity = 1

                         Standard orientation:
 ---------------------------------------------------------------------
 Center     Atomic      Atomic             Coordinates (Angstroms)
 Number     Number       Type             X           Y           Z
 ---------------------------------------------------------------------
      1          8           0        0.047584   -1.055433    0.000000
      2          1           0       -0.754142   -1.623536    0.000000
      3          1           0        0.844988   -1.629585    0.000000
      4          8           0        0.047584    1.105839    0.000000
      5          1           0        0.020638    2.088071    0.000000
      6          1           0       -0.872821    0.761803    0.000000
 ---------------------------------------------------------------------

 SCF Done:  E(RHF) =  -33.6212056299     A.U. after   11 cycles
 E2 =    -0.2314100510D+00 EUMP2 =    -0.33852615680865D+02
 CCSD(T)
 CCSD(T)= -0.33869902929D+02

 The electronic state is 1-A'.
 Alpha  occ. eigenvalues --   -1.34681  -1.31111  -0.70346  -0.67836  -0.55359
 Alpha  occ. eigenvalues --   -0.49375  -0.47344  -0.45280
 Alpha virt. eigenvalues --    0.20129   0.26523   0.31318   0.33567   0.78853
 Alpha virt. eigenvalues --    0.84463   0.89706   0.96145   0.98734   1.14333
 Alpha virt. eigenvalues --    1.18917   1.22713   1.24736   1.31778   2.57110

 Mulliken charges:
               1
     1  O   -0.754654
     2  H    0.350072
     3  H    0.387638
     4  O   -0.676500
     5  H    0.334861
     6  H    0.358583
 Sum of Mulliken charges =  -0.00000

 Dipole moment (field-independent basis, Debye):
    X=             -1.9365    Y=             -1.2470    Z=              0.0000  Tot=              2.3033
 Quadrupole moment (field-independent basis, Debye-Ang):
   XX=             -9.5719   YY=             -3.4197   ZZ=            -14.9964
   XY=             -1.8208   XZ=              0.0000   YZ=              0.0000

 \MP4DQ=-33.8637871\MP4SDQ=-33.8660337\CCSD=-33.8670417\CCSD(T)=-33.869
 Normal termination of Gaussian 16 at Sun Dec 10 06:34:51 2023.
