 Gaussian 16, Revision A.03,
 Gaussian 16:  ES64L-G16RevA.03 25-Dec-2016

 ------------------
 #p CCSD(T)/CEP-31G
 ------------------

 ------------
 H2O_H2O_2681
 ------------
 Symbolic Z-matrix:
 Charge =  0 Multiplicity = 1

                         Standard orientation:
 ---------------------------------------------------------------------
 Center     Atomic      Atomic             Coordinates (Angstroms)
 Number     Number       Type             X           Y           Z
 ---------------------------------------------------------------------
      1          8           0        0.021860   -2.221559    0.000000
      2          1           0       -0.778194   -2.792015    0.000000
      3          1           0        0.820948   -2.793366    0.000000
      4          8           0        0.021860    2.230217    0.000000
      5          1           0        0.542709    3.063417    0.000000
      6          1           0       -0.935222    2.452700    0.000000
 ---------------------------------------------------------------------

 SCF Done:  E(RHF) =  -33.6487204629     A.U. after   11 cycles
 E2 =    -0.2285762555D+00 EUMP2 =    -0.33877296718444D+02
 CCSD(T)
 CCSD(T)= -0.33894386100D+02

 The electronic state is 1-A'.
 Alpha  occ. eigenvalues --   -1.34518  -1.34385  -0.70142  -0.70002  -0.54113
 Alpha  occ. eigenvalues --   -0.53899  -0.49045  -0.48911
 Alpha virt. eigenvalues --    0.20975   0.21327   0.31313   0.31442   0.81396
 Alpha virt. eigenvalues --    0.81744   0.82516   0.86624   0.87832   0.88812
 Alpha virt. eigenvalues --    1.18256   1.18387   1.22739   1.22881   2.58311

 Mulliken charges:
               1
     1  O   -0.730476
     2  H    0.363746
     3  H    0.366738
     4  O   -0.729995
     5  H    0.363061
     6  H    0.366926
 Sum of Mulliken charges =   0.00000

 Dipole moment (field-independent basis, Debye):
    X=             -1.0025    Y=             -0.2064    Z=              0.0000  Tot=              1.0235
 Quadrupole moment (field-independent basis, Debye-Ang):
   XX=             -8.3757   YY=             10.8507   ZZ=            -14.9852
   XY=             -1.6511   XZ=              0.0000   YZ=              0.0000

 \MP4DQ=-33.8887154\MP4SDQ=-33.8907531\CCSD=-33.8918121\CCSD(T)=-33.894
 Normal termination of Gaussian 16 at Sun Dec 10 06:28:06 2023.
