 Gaussian 16, Revision A.03,
 Gaussian 16:  ES64L-G16RevA.03 25-Dec-2016

 ------------------
 #p CCSD(T)/CEP-31G
 ------------------

 ------------
 H2O_H2O_1821
 ------------
 Symbolic Z-matrix:
 Charge =  0 Multiplicity = 1

                         Standard orientation:
 ---------------------------------------------------------------------
 Center     Atomic      Atomic             Coordinates (Angstroms)
 Number     Number       Type             X           Y           Z
 ---------------------------------------------------------------------
      1          8           0        0.056142   -1.711137    0.000000
      2          1           0       -0.744994   -2.280072    0.000000
      3          1           0        0.854142   -2.284461    0.000000
      4          8           0        0.056142    1.802771    0.000000
      5          1           0       -0.345568    2.699507    0.000000
      6          1           0       -0.661849    1.131954    0.000000
 ---------------------------------------------------------------------

 SCF Done:  E(RHF) =  -33.6525643019     A.U. after   11 cycles
 E2 =    -0.2287612675D+00 EUMP2 =    -0.33881325569400D+02
 CCSD(T)
 CCSD(T)= -0.33898342129D+02

 The electronic state is 1-A'.
 Alpha  occ. eigenvalues --   -1.35792  -1.33362  -0.71434  -0.68917  -0.55571
 Alpha  occ. eigenvalues --   -0.53083  -0.50373  -0.47949
 Alpha virt. eigenvalues --    0.19319   0.23346   0.30163   0.33004   0.77122
 Alpha virt. eigenvalues --    0.79540   0.83234   0.86080   0.86933   1.00183
 Alpha virt. eigenvalues --    1.17074   1.20228   1.21608   1.26676   2.55037

 Mulliken charges:
               1
     1  O   -0.743696
     2  H    0.365357
     3  H    0.379529
     4  O   -0.740295
     5  H    0.354356
     6  H    0.384749
 Sum of Mulliken charges =   0.00000

 Dipole moment (field-independent basis, Debye):
    X=             -2.5447    Y=             -2.2630    Z=              0.0000  Tot=              3.4054
 Quadrupole moment (field-independent basis, Debye-Ang):
   XX=            -10.0647   YY=              0.5941   ZZ=            -14.9926
   XY=             -4.5350   XZ=              0.0000   YZ=              0.0000

 6\MP4DQ=-33.8926427\MP4SDQ=-33.8947079\CCSD=-33.8957452\CCSD(T)=-33.89
 Normal termination of Gaussian 16 at Sun Dec 10 06:58:43 2023.
