 Gaussian 16, Revision A.03,
 Gaussian 16:  ES64L-G16RevA.03 25-Dec-2016

 ------------------
 #p CCSD(T)/CEP-31G
 ------------------

 ------------
 H2O_H2O_1132
 ------------
 Symbolic Z-matrix:
 Charge =  0 Multiplicity = 1

                         Standard orientation:
 ---------------------------------------------------------------------
 Center     Atomic      Atomic             Coordinates (Angstroms)
 Number     Number       Type             X           Y           Z
 ---------------------------------------------------------------------
      1          8           0        0.025270   -1.395559    0.000000
      2          1           0       -0.775187   -1.965450    0.000000
      3          1           0        0.823953   -1.967931    0.000000
      4          8           0        0.025270    1.407260    0.000000
      5          1           0        0.491121    2.272413    0.000000
      6          1           0       -0.944202    1.567356    0.000000
 ---------------------------------------------------------------------

 SCF Done:  E(RHF) =  -33.6392826479     A.U. after   11 cycles
 E2 =    -0.2294892663D+00 EUMP2 =    -0.33868771914262D+02
 CCSD(T)
 CCSD(T)= -0.33886165805D+02

 The electronic state is 1-A'.
 Alpha  occ. eigenvalues --   -1.33314  -1.32778  -0.68915  -0.68392  -0.54046
 Alpha  occ. eigenvalues --   -0.50255  -0.47911  -0.47026
 Alpha virt. eigenvalues --    0.21077   0.23539   0.32191   0.32567   0.79446
 Alpha virt. eigenvalues --    0.80602   0.81950   0.87040   0.97712   1.12816
 Alpha virt. eigenvalues --    1.19175   1.21339   1.23993   1.24376   2.58503

 Mulliken charges:
               1
     1  O   -0.710805
     2  H    0.349052
     3  H    0.360809
     4  O   -0.704017
     5  H    0.348527
     6  H    0.356434
 Sum of Mulliken charges =   0.00000

 Dipole moment (field-independent basis, Debye):
    X=             -1.1124    Y=             -0.2901    Z=              0.0000  Tot=              1.1496
 Quadrupole moment (field-independent basis, Debye-Ang):
   XX=             -8.5830   YY=              1.7282   ZZ=            -14.9872
   XY=             -1.0407   XZ=              0.0000   YZ=              0.0000

 \MP4DQ=-33.8803198\MP4SDQ=-33.8824232\CCSD=-33.8835064\CCSD(T)=-33.886
 Normal termination of Gaussian 16 at Sun Dec 10 06:45:55 2023.
