 Gaussian 16, Revision A.03,
 Gaussian 16:  ES64L-G16RevA.03 25-Dec-2016

 ------------------
 #p CCSD(T)/CEP-31G
 ------------------

 ------------
 H2O_H2O_1730
 ------------
 Symbolic Z-matrix:
 Charge =  0 Multiplicity = 1

                         Standard orientation:
 ---------------------------------------------------------------------
 Center     Atomic      Atomic             Coordinates (Angstroms)
 Number     Number       Type             X           Y           Z
 ---------------------------------------------------------------------
      1          8           0        0.018361   -1.717742    0.000000
      2          1           0       -0.781734   -2.288139    0.000000
      3          1           0        0.817407   -2.289608    0.000000
      4          8           0        0.018361    1.723770    0.000000
      5          1           0        0.592648    2.521079    0.000000
      6          1           0       -0.922100    2.008443    0.000000
 ---------------------------------------------------------------------

 SCF Done:  E(RHF) =  -33.6449215335     A.U. after   11 cycles
 E2 =    -0.2289206083D+00 EUMP2 =    -0.33873842141834D+02
 CCSD(T)
 CCSD(T)= -0.33891066261D+02

 The electronic state is 1-A'.
 Alpha  occ. eigenvalues --   -1.33828  -1.33660  -0.69447  -0.69270  -0.53690
 Alpha  occ. eigenvalues --   -0.52444  -0.48350  -0.48090
 Alpha virt. eigenvalues --    0.21032   0.22327   0.31769   0.32035   0.76508
 Alpha virt. eigenvalues --    0.80749   0.83909   0.85112   0.91965   1.01654
 Alpha virt. eigenvalues --    1.18803   1.19040   1.23280   1.23660   2.58441

 Mulliken charges:
               1
     1  O   -0.718573
     2  H    0.356806
     3  H    0.361811
     4  O   -0.717490
     5  H    0.355877
     6  H    0.361569
 Sum of Mulliken charges =   0.00000

 Dipole moment (field-independent basis, Debye):
    X=             -0.8319    Y=             -0.1492    Z=              0.0000  Tot=              0.8451
 Quadrupole moment (field-independent basis, Debye-Ang):
   XX=             -8.3395   YY=              5.6135   ZZ=            -14.9837
   XY=             -0.9728   XZ=              0.0000   YZ=              0.0000

 4DQ=-33.8853285\MP4SDQ=-33.8873985\CCSD=-33.8884597\CCSD(T)=-33.891066
 Normal termination of Gaussian 16 at Sun Dec 10 06:57:02 2023.
