 Gaussian 16, Revision A.03,
 Gaussian 16:  ES64L-G16RevA.03 25-Dec-2016

 ------------------
 #p CCSD(T)/CEP-31G
 ------------------

 ------------
 H2O_H2O_3300
 ------------
 Symbolic Z-matrix:
 Charge =  0 Multiplicity = 1

                         Standard orientation:
 ---------------------------------------------------------------------
 Center     Atomic      Atomic             Coordinates (Angstroms)
 Number     Number       Type             X           Y           Z
 ---------------------------------------------------------------------
      1          8           0        0.000000   -0.000000    2.558659
      2          1           0        0.000000    0.799571    3.129791
      3          1           0       -0.000000   -0.799571    3.129791
      4          8           0        0.000000   -0.000000   -2.558659
      5          1           0       -0.000000   -0.799571   -3.129791
      6          1           0        0.000000    0.799571   -3.129791
 ---------------------------------------------------------------------

 SCF Done:  E(RHF) =  -33.6495253435     A.U. after   10 cycles
 E2 =    -0.2285056185D+00 EUMP2 =    -0.33878030961998D+02
 CCSD(T)
 CCSD(T)= -0.33895096476D+02

 The electronic state is 1-AG.
 Alpha  occ. eigenvalues --   -1.34677  -1.34677  -0.70301  -0.70301  -0.54300
 Alpha  occ. eigenvalues --   -0.54264  -0.49216  -0.49213
 Alpha virt. eigenvalues --    0.20938   0.21004   0.31192   0.31205   0.81316
 Alpha virt. eigenvalues --    0.81360   0.84118   0.85083   0.87550   0.87652
 Alpha virt. eigenvalues --    1.18130   1.18130   1.22599   1.22615   2.58192

 Mulliken charges:
               1
     1  O   -0.733174
     2  H    0.366587
     3  H    0.366587
     4  O   -0.733174
     5  H    0.366587
     6  H    0.366587
 Sum of Mulliken charges =  -0.00000

 Dipole moment (field-independent basis, Debye):
    X=             -0.0000    Y=              0.0000    Z=              0.0000  Tot=              0.0000
 Quadrupole moment (field-independent basis, Debye-Ang):
   XX=            -14.9857   YY=             -8.0553   ZZ=             15.0724
   XY=              0.0000   XZ=              0.0000   YZ=             -0.0000

 33.8894343\MP4SDQ=-33.8914682\CCSD=-33.8925274\CCSD(T)=-33.8950965\RMS
 Normal termination of Gaussian 16 at Sun Dec 10 06:39:16 2023.
