 Gaussian 16, Revision A.03,
 Gaussian 16:  ES64L-G16RevA.03 25-Dec-2016

 ------------------
 #p CCSD(T)/CEP-31G
 ------------------

 ------------
 H2O_H2O_2343
 ------------
 Symbolic Z-matrix:
 Charge =  0 Multiplicity = 1

                         Standard orientation:
 ---------------------------------------------------------------------
 Center     Atomic      Atomic             Coordinates (Angstroms)
 Number     Number       Type             X           Y           Z
 ---------------------------------------------------------------------
      1          8           0        0.052844   -2.001949    0.000000
      2          1           0       -0.747998   -2.571297    0.000000
      3          1           0        0.851140   -2.574863    0.000000
      4          8           0        0.052844    2.072228    0.000000
      5          1           0       -0.166695    3.029990    0.000000
      6          1           0       -0.781954    1.553943    0.000000
 ---------------------------------------------------------------------

 SCF Done:  E(RHF) =  -33.6510960775     A.U. after   11 cycles
 E2 =    -0.2285623744D+00 EUMP2 =    -0.33879658451963D+02
 CCSD(T)
 CCSD(T)= -0.33896683300D+02

 The electronic state is 1-A'.
 Alpha  occ. eigenvalues --   -1.35346  -1.34009  -0.70980  -0.69586  -0.55042
 Alpha  occ. eigenvalues --   -0.53680  -0.49907  -0.48574
 Alpha virt. eigenvalues --    0.20023   0.22064   0.30567   0.31995   0.80108
 Alpha virt. eigenvalues --    0.80526   0.82074   0.85726   0.86795   0.92335
 Alpha virt. eigenvalues --    1.17520   1.19072   1.21903   1.23724   2.57331

 Mulliken charges:
               1
     1  O   -0.738682
     2  H    0.365005
     3  H    0.373953
     4  O   -0.736246
     5  H    0.359654
     6  H    0.376316
 Sum of Mulliken charges =  -0.00000

 Dipole moment (field-independent basis, Debye):
    X=             -2.4148    Y=             -1.6933    Z=              0.0000  Tot=              2.9494
 Quadrupole moment (field-independent basis, Debye-Ang):
   XX=             -9.8442   YY=              4.3232   ZZ=            -14.9891
   XY=             -4.5740   XZ=              0.0000   YZ=              0.0000

 7\MP4DQ=-33.8910219\MP4SDQ=-33.8930609\CCSD=-33.8941098\CCSD(T)=-33.89
 Normal termination of Gaussian 16 at Sun Dec 10 07:09:34 2023.
