 Gaussian 16, Revision A.03,
 Gaussian 16:  ES64L-G16RevA.03 25-Dec-2016

 ------------------
 #p CCSD(T)/CEP-31G
 ------------------

 ------------
 H2O_H2O_1042
 ------------
 Symbolic Z-matrix:
 Charge =  0 Multiplicity = 1

                         Standard orientation:
 ---------------------------------------------------------------------
 Center     Atomic      Atomic             Coordinates (Angstroms)
 Number     Number       Type             X           Y           Z
 ---------------------------------------------------------------------
      1          8           0        0.051327   -1.314312    0.000000
      2          1           0       -0.750110   -1.882821    0.000000
      3          1           0        0.849023   -1.888060    0.000000
      4          8           0        0.051327    1.377681    0.000000
      5          1           0       -0.104086    2.347914    0.000000
      6          1           0       -0.816064    0.916012    0.000000
 ---------------------------------------------------------------------

 SCF Done:  E(RHF) =  -33.6455411505     A.U. after   11 cycles
 E2 =    -0.2297797247D+00 EUMP2 =    -0.33875320875185D+02
 CCSD(T)
 CCSD(T)= -0.33892563542D+02

 The electronic state is 1-A'.
 Alpha  occ. eigenvalues --   -1.34964  -1.32274  -0.70614  -0.68017  -0.54729
 Alpha  occ. eigenvalues --   -0.51368  -0.49534  -0.46761
 Alpha virt. eigenvalues --    0.19802   0.24989   0.30899   0.33390   0.78160
 Alpha virt. eigenvalues --    0.81082   0.86820   0.87253   0.92207   1.16263
 Alpha virt. eigenvalues --    1.18589   1.21659   1.22579   1.28901   2.63874

 Mulliken charges:
               1
     1  O   -0.739853
     2  H    0.355544
     3  H    0.381700
     4  O   -0.711897
     5  H    0.340948
     6  H    0.373557
 Sum of Mulliken charges =   0.00000

 Dipole moment (field-independent basis, Debye):
    X=             -2.2368    Y=             -1.5996    Z=              0.0000  Tot=              2.7499
 Quadrupole moment (field-independent basis, Debye-Ang):
   XX=             -9.7538   YY=             -0.9462   ZZ=            -14.9931
   XY=             -2.7600   XZ=              0.0000   YZ=              0.0000

 \MP4DQ=-33.88669\MP4SDQ=-33.8888305\CCSD=-33.8898778\CCSD(T)=-33.89256
 Normal termination of Gaussian 16 at Sun Dec 10 06:44:14 2023.
