 Gaussian 16, Revision A.03,
 Gaussian 16:  ES64L-G16RevA.03 25-Dec-2016

 ------------------
 #p CCSD(T)/CEP-31G
 ------------------

 ------------
 H2O_H2O_1528
 ------------
 Symbolic Z-matrix:
 Charge =  0 Multiplicity = 1

                         Standard orientation:
 ---------------------------------------------------------------------
 Center     Atomic      Atomic             Coordinates (Angstroms)
 Number     Number       Type             X           Y           Z
 ---------------------------------------------------------------------
      1          8           0        0.011143   -1.613464    0.000000
      2          1           0       -0.788767   -2.184121    0.000000
      3          1           0        0.810375   -2.185071    0.000000
      4          8           0        0.011143    1.615646    0.000000
      5          1           0        0.684353    2.331392    0.000000
      6          1           0       -0.884247    2.020347    0.000000
 ---------------------------------------------------------------------

 SCF Done:  E(RHF) =  -33.6429687795     A.U. after   11 cycles
 E2 =    -0.2290480380D+00 EUMP2 =    -0.33872016817478D+02
 CCSD(T)
 CCSD(T)= -0.33889308282D+02

 The electronic state is 1-A'.
 Alpha  occ. eigenvalues --   -1.33539  -1.33420  -0.69151  -0.69036  -0.53636
 Alpha  occ. eigenvalues --   -0.51765  -0.48096  -0.47766
 Alpha virt. eigenvalues --    0.21161   0.22612   0.31911   0.32260   0.76771
 Alpha virt. eigenvalues --    0.80410   0.83934   0.84860   0.94499   1.04793
 Alpha virt. eigenvalues --    1.19027   1.19269   1.23475   1.23975   2.59352

 Mulliken charges:
               1
     1  O   -0.713415
     2  H    0.354902
     3  H    0.358508
     4  O   -0.712839
     5  H    0.354599
     6  H    0.358246
 Sum of Mulliken charges =   0.00000

 Dipole moment (field-independent basis, Debye):
    X=             -0.5022    Y=             -0.0544    Z=              0.0000  Tot=              0.5051
 Quadrupole moment (field-independent basis, Debye-Ang):
   XX=             -8.2304   YY=              4.5891   ZZ=            -14.9835
   XY=             -0.5286   XZ=              0.0000   YZ=              0.0000

 \MP4DQ=-33.883539\MP4SDQ=-33.8856189\CCSD=-33.8866875\CCSD(T)=-33.8893
 Normal termination of Gaussian 16 at Sun Dec 10 06:53:18 2023.
