 Gaussian 16, Revision A.03,
 Gaussian 16:  ES64L-G16RevA.03 25-Dec-2016

 ------------------
 #p CCSD(T)/CEP-31G
 ------------------

 ------------
 H2O_H2O_3810
 ------------
 Symbolic Z-matrix:
 Charge =  0 Multiplicity = 1

                         Standard orientation:
 ---------------------------------------------------------------------
 Center     Atomic      Atomic             Coordinates (Angstroms)
 Number     Number       Type             X           Y           Z
 ---------------------------------------------------------------------
      1          8           0        0.034781   -2.811798    0.000000
      2          1           0       -0.765395   -3.382082    0.000000
      3          1           0        0.833746   -3.383777    0.000000
      4          8           0        0.034781    2.835329    0.000000
      5          1           0        0.322437    3.774881    0.000000
      6          1           0       -0.947280    2.802730    0.000000
 ---------------------------------------------------------------------

 SCF Done:  E(RHF) =  -33.6505615540     A.U. after   11 cycles
 E2 =    -0.2284540047D+00 EUMP2 =    -0.33879015558699D+02
 CCSD(T)
 CCSD(T)= -0.33896051239D+02

 The electronic state is 1-A'.
 Alpha  occ. eigenvalues --   -1.35041  -1.34818  -0.70669  -0.70439  -0.54707
 Alpha  occ. eigenvalues --   -0.54483  -0.49594  -0.49372
 Alpha virt. eigenvalues --    0.20662   0.20889   0.30895   0.31113   0.80959
 Alpha virt. eigenvalues --    0.81179   0.84078   0.84348   0.87166   0.87437
 Alpha virt. eigenvalues --    1.17809   1.18029   1.22277   1.22499   2.57855

 Mulliken charges:
               1
     1  O   -0.736796
     2  H    0.367163
     3  H    0.369633
     4  O   -0.736419
     5  H    0.366356
     6  H    0.370063
 Sum of Mulliken charges =  -0.00000

 Dipole moment (field-independent basis, Debye):
    X=             -1.6031    Y=             -0.5525    Z=              0.0000  Tot=              1.6957
 Quadrupole moment (field-independent basis, Debye-Ang):
   XX=             -8.8261   YY=             15.5226   ZZ=            -14.9869
   XY=             -3.7246   XZ=              0.0000   YZ=              0.0000

 MP4DQ=-33.8903974\MP4SDQ=-33.8924285\CCSD=-33.8934858\CCSD(T)=-33.8960
 Normal termination of Gaussian 16 at Sun Dec 10 06:48:35 2023.
