 Gaussian 16, Revision A.03,
 Gaussian 16:  ES64L-G16RevA.03 25-Dec-2016

 ------------------
 #p CCSD(T)/CEP-31G
 ------------------

 ------------
 H2O_H2O_1162
 ------------
 Symbolic Z-matrix:
 Charge =  0 Multiplicity = 1

                         Standard orientation:
 ---------------------------------------------------------------------
 Center     Atomic      Atomic             Coordinates (Angstroms)
 Number     Number       Type             X           Y           Z
 ---------------------------------------------------------------------
      1          8           0        0.040426   -1.397146    0.000000
      2          1           0       -0.760547   -1.966310    0.000000
      3          1           0        0.838590   -1.970243    0.000000
      4          8           0        0.040426    1.430403    0.000000
      5          1           0        0.204340    2.399237    0.000000
      6          1           0       -0.929202    1.271256    0.000000
 ---------------------------------------------------------------------

 SCF Done:  E(RHF) =  -33.6428338079     A.U. after   11 cycles
 E2 =    -0.2295068991D+00 EUMP2 =    -0.33872340706932D+02
 CCSD(T)
 CCSD(T)= -0.33889674309D+02

 The electronic state is 1-A'.
 Alpha  occ. eigenvalues --   -1.34004  -1.32745  -0.69629  -0.68339  -0.54239
 Alpha  occ. eigenvalues --   -0.51086  -0.48552  -0.47144
 Alpha virt. eigenvalues --    0.20493   0.23871   0.31656   0.32654   0.79066
 Alpha virt. eigenvalues --    0.79624   0.83335   0.86684   0.93888   1.15055
 Alpha virt. eigenvalues --    1.18585   1.22413   1.23289   1.25829   2.59433

 Mulliken charges:
               1
     1  O   -0.722224
     2  H    0.351378
     3  H    0.369269
     4  O   -0.707325
     5  H    0.345909
     6  H    0.362994
 Sum of Mulliken charges =   0.00000

 Dipole moment (field-independent basis, Debye):
    X=             -1.7805    Y=             -0.8295    Z=              0.0000  Tot=              1.9642
 Quadrupole moment (field-independent basis, Debye-Ang):
   XX=             -9.1654   YY=              1.0670   ZZ=            -14.9880
   XY=             -1.9376   XZ=              0.0000   YZ=              0.0000

 MP4DQ=-33.883837\MP4SDQ=-33.8859521\CCSD=-33.8870207\CCSD(T)=-33.88967
 Normal termination of Gaussian 16 at Sun Dec 10 06:46:28 2023.
