 Gaussian 16, Revision A.03,
 Gaussian 16:  ES64L-G16RevA.03 25-Dec-2016

 ------------------
 #p CCSD(T)/CEP-31G
 ------------------

 ------------
 H2O_H2O_4687
 ------------
 Symbolic Z-matrix:
 Charge =  0 Multiplicity = 1

                         Standard orientation:
 ---------------------------------------------------------------------
 Center     Atomic      Atomic             Coordinates (Angstroms)
 Number     Number       Type             X           Y           Z
 ---------------------------------------------------------------------
      1          8           0        0.040403   -3.271810    0.000000
      2          1           0       -0.759772   -3.842097    0.000000
      3          1           0        0.839370   -3.843787    0.000000
      4          8           0        0.040403    3.305181    0.000000
      5          1           0        0.202958    4.274244    0.000000
      6          1           0       -0.929001    3.144675    0.000000
 ---------------------------------------------------------------------

 SCF Done:  E(RHF) =  -33.6511414857     A.U. after   11 cycles
 E2 =    -0.2284164933D+00 EUMP2 =    -0.33879557978935D+02
 CCSD(T)
 CCSD(T)= -0.33896576963D+02

 The electronic state is 1-A'.
 Alpha  occ. eigenvalues --   -1.35250  -1.35020  -0.70880  -0.70644  -0.54949
 Alpha  occ. eigenvalues --   -0.54718  -0.49812  -0.49582
 Alpha virt. eigenvalues --    0.20485   0.20720   0.30720   0.30949   0.80741
 Alpha virt. eigenvalues --    0.80969   0.83828   0.84055   0.86916   0.87178
 Alpha virt. eigenvalues --    1.17624   1.17853   1.22087   1.22317   2.57657

 Mulliken charges:
               1
     1  O   -0.738817
     2  H    0.368477
     3  H    0.370341
     4  O   -0.738586
     5  H    0.367772
     6  H    0.370813
 Sum of Mulliken charges =   0.00000

 Dipole moment (field-independent basis, Debye):
    X=             -1.8655    Y=             -0.7797    Z=              0.0000  Tot=              2.0219
 Quadrupole moment (field-independent basis, Debye-Ang):
   XX=             -9.0965   YY=             18.7205   ZZ=            -14.9876
   XY=             -5.3111   XZ=              0.0000   YZ=              0.0000

 MP4DQ=-33.8909278\MP4SDQ=-33.8929572\CCSD=-33.8940138\CCSD(T)=-33.8965
 Normal termination of Gaussian 16 at Sun Dec 10 07:06:02 2023.
