 Gaussian 16, Revision A.03,
 Gaussian 16:  ES64L-G16RevA.03 25-Dec-2016

 ------------------
 #p CCSD(T)/CEP-31G
 ------------------

 ------------
 H2O_H2O_2806
 ------------
 Symbolic Z-matrix:
 Charge =  0 Multiplicity = 1

                         Standard orientation:
 ---------------------------------------------------------------------
 Center     Atomic      Atomic             Coordinates (Angstroms)
 Number     Number       Type             X           Y           Z
 ---------------------------------------------------------------------
      1          8           0        0.021860   -2.288038    0.000000
      2          1           0       -0.778180   -2.858513    0.000000
      3          1           0        0.820962   -2.859826    0.000000
      4          8           0        0.021860    2.296697    0.000000
      5          1           0        0.542689    3.129910    0.000000
      6          1           0       -0.935228    2.519156    0.000000
 ---------------------------------------------------------------------

 SCF Done:  E(RHF) =  -33.6489716668     A.U. after   11 cycles
 E2 =    -0.2285556280D+00 EUMP2 =    -0.33877527294853D+02
 CCSD(T)
 CCSD(T)= -0.33894609241D+02

 The electronic state is 1-A'.
 Alpha  occ. eigenvalues --   -1.34576  -1.34450  -0.70200  -0.70068  -0.54172
 Alpha  occ. eigenvalues --   -0.53995  -0.49106  -0.48980
 Alpha virt. eigenvalues --    0.20964   0.21244   0.31270   0.31391   0.81379
 Alpha virt. eigenvalues --    0.81634   0.83038   0.86285   0.87710   0.88340
 Alpha virt. eigenvalues --    1.18208   1.18332   1.22690   1.22820   2.58284

 Mulliken charges:
               1
     1  O   -0.731327
     2  H    0.364284
     3  H    0.367048
     4  O   -0.730905
     5  H    0.363648
     6  H    0.367252
 Sum of Mulliken charges =  -0.00000

 Dipole moment (field-independent basis, Debye):
    X=             -1.0033    Y=             -0.2059    Z=              0.0000  Tot=              1.0242
 Quadrupole moment (field-independent basis, Debye-Ang):
   XX=             -8.3721   YY=             11.5454   ZZ=            -14.9854
   XY=             -1.7154   XZ=              0.0000   YZ=              0.0000

 4DQ=-33.8889414\MP4SDQ=-33.8909777\CCSD=-33.8920368\CCSD(T)=-33.894609
 Normal termination of Gaussian 16 at Sun Dec 10 06:30:25 2023.
