 Gaussian 16, Revision A.03,
 Gaussian 16:  ES64L-G16RevA.03 25-Dec-2016

 ------------------
 #p CCSD(T)/CEP-31G
 ------------------

 ------------
 H2O_H2O_1205
 ------------
 Symbolic Z-matrix:
 Charge =  0 Multiplicity = 1

                         Standard orientation:
 ---------------------------------------------------------------------
 Center     Atomic      Atomic             Coordinates (Angstroms)
 Number     Number       Type             X           Y           Z
 ---------------------------------------------------------------------
      1          8           0        0.018362   -1.438532    0.000000
      2          1           0       -0.781835   -2.008787    0.000000
      3          1           0        0.817306   -2.010540    0.000000
      4          8           0        0.018362    1.444553    0.000000
      5          1           0        0.592790    2.241760    0.000000
      6          1           0       -0.922049    1.729393    0.000000
 ---------------------------------------------------------------------

 SCF Done:  E(RHF) =  -33.6396218410     A.U. after   11 cycles
 E2 =    -0.2293710508D+00 EUMP2 =    -0.33868992891849D+02
 CCSD(T)
 CCSD(T)= -0.33886378083D+02

 The electronic state is 1-A'.
 Alpha  occ. eigenvalues --   -1.33248  -1.32914  -0.68846  -0.68534  -0.53882
 Alpha  occ. eigenvalues --   -0.50474  -0.47846  -0.47155
 Alpha virt. eigenvalues --    0.21203   0.23281   0.32202   0.32520   0.79678
 Alpha virt. eigenvalues --    0.79697   0.81914   0.86645   0.97997   1.10724
 Alpha virt. eigenvalues --    1.19236   1.20396   1.24055   1.24166   2.59029

 Mulliken charges:
               1
     1  O   -0.708699
     2  H    0.350158
     3  H    0.358174
     4  O   -0.705620
     5  H    0.350132
     6  H    0.355855
 Sum of Mulliken charges =  -0.00000

 Dipole moment (field-independent basis, Debye):
    X=             -0.8133    Y=             -0.1497    Z=              0.0000  Tot=              0.8270
 Quadrupole moment (field-independent basis, Debye-Ang):
   XX=             -8.3960   YY=              2.4021   ZZ=            -14.9860
   XY=             -0.7576   XZ=              0.0000   YZ=              0.0000

 MP4DQ=-33.8805487\MP4SDQ=-33.8826442\CCSD=-33.883727\CCSD(T)=-33.88637
 Normal termination of Gaussian 16 at Sun Dec 10 06:47:17 2023.
