 Gaussian 16, Revision A.03,
 Gaussian 16:  ES64L-G16RevA.03 25-Dec-2016

 ------------------
 #p CCSD(T)/CEP-31G
 ------------------

 ------------
 H2O_H2O_4175
 ------------
 Symbolic Z-matrix:
 Charge =  0 Multiplicity = 1

                         Standard orientation:
 ---------------------------------------------------------------------
 Center     Atomic      Atomic             Coordinates (Angstroms)
 Number     Number       Type             X           Y           Z
 ---------------------------------------------------------------------
      1          8           0        0.000000   -0.000000    3.024016
      2          1           0        0.000000    0.799571    3.595148
      3          1           0       -0.000000   -0.799571    3.595148
      4          8           0        0.000000   -0.000000   -3.024016
      5          1           0       -0.000000   -0.799571   -3.595148
      6          1           0        0.000000    0.799571   -3.595148
 ---------------------------------------------------------------------

 SCF Done:  E(RHF) =  -33.6504238280     A.U. after   10 cycles
 E2 =    -0.2284513147D+00 EUMP2 =    -0.33878875142748D+02
 CCSD(T)
 CCSD(T)= -0.33895914726D+02

 The electronic state is 1-AG.
 Alpha  occ. eigenvalues --   -1.34935  -1.34935  -0.70561  -0.70561  -0.54594
 Alpha  occ. eigenvalues --   -0.54592  -0.49485  -0.49485
 Alpha virt. eigenvalues --    0.20760   0.20764   0.30992   0.30992   0.81068
 Alpha virt. eigenvalues --    0.81069   0.84204   0.84252   0.87284   0.87287
 Alpha virt. eigenvalues --    1.17909   1.17909   1.22378   1.22378   2.57957

 Mulliken charges:
               1
     1  O   -0.736272
     2  H    0.368136
     3  H    0.368136
     4  O   -0.736272
     5  H    0.368136
     6  H    0.368136
 Sum of Mulliken charges =  -0.00000

 Dipole moment (field-independent basis, Debye):
    X=             -0.0000    Y=              0.0000    Z=             -0.0000  Tot=              0.0000
 Quadrupole moment (field-independent basis, Debye-Ang):
   XX=            -14.9865   YY=             -8.0411   ZZ=             20.0693
   XY=              0.0000   XZ=              0.0000   YZ=             -0.0000

 -33.8902599\MP4SDQ=-33.8922912\CCSD=-33.8933492\CCSD(T)=-33.8959147\RM
 Normal termination of Gaussian 16 at Sun Dec 10 06:55:17 2023.
