 Gaussian 16, Revision A.03,
 Gaussian 16:  ES64L-G16RevA.03 25-Dec-2016

 ------------------
 #p CCSD(T)/CEP-31G
 ------------------

 ------------
 H2O_H2O_4653
 ------------
 Symbolic Z-matrix:
 Charge =  0 Multiplicity = 1

                         Standard orientation:
 ---------------------------------------------------------------------
 Center     Atomic      Atomic             Coordinates (Angstroms)
 Number     Number       Type             X           Y           Z
 ---------------------------------------------------------------------
      1          8           0        0.011143   -3.275450    0.000000
      2          1           0       -0.788596   -3.846348    0.000000
      3          1           0        0.810546   -3.846816    0.000000
      4          8           0        0.011143    3.277638    0.000000
      5          1           0        0.684137    3.993587    0.000000
      6          1           0       -0.884369    3.682069    0.000000
 ---------------------------------------------------------------------

 SCF Done:  E(RHF) =  -33.6507504217     A.U. after   11 cycles
 E2 =    -0.2284326597D+00 EUMP2 =    -0.33879183081360D+02
 CCSD(T)
 CCSD(T)= -0.33896213336D+02

 The electronic state is 1-A'.
 Alpha  occ. eigenvalues --   -1.35048  -1.35033  -0.70676  -0.70660  -0.54725
 Alpha  occ. eigenvalues --   -0.54710  -0.49604  -0.49588
 Alpha virt. eigenvalues --    0.20666   0.20681   0.30898   0.30913   0.80950
 Alpha virt. eigenvalues --    0.80965   0.84074   0.84091   0.87149   0.87167
 Alpha virt. eigenvalues --    1.17809   1.17824   1.22276   1.22291   2.57852

 Mulliken charges:
               1
     1  O   -0.737415
     2  H    0.368443
     3  H    0.368971
     4  O   -0.737393
     5  H    0.368322
     6  H    0.369071
 Sum of Mulliken charges =  -0.00000

 Dipole moment (field-independent basis, Debye):
    X=             -0.5145    Y=             -0.0511    Z=              0.0000  Tot=              0.5170
 Quadrupole moment (field-independent basis, Debye-Ang):
   XX=             -8.1170   YY=             22.5073   ZZ=            -14.9869
   XY=             -1.3462   XZ=              0.0000   YZ=              0.0000

 \MP4DQ=-33.8905611\MP4SDQ=-33.8925915\CCSD=-33.893649\CCSD(T)=-33.8962
 Normal termination of Gaussian 16 at Sun Dec 10 07:05:25 2023.
