 Gaussian 16, Revision A.03,
 Gaussian 16:  ES64L-G16RevA.03 25-Dec-2016

 ------------------
 #p CCSD(T)/CEP-31G
 ------------------

 ------------
 H2O_H2O_1081
 ------------
 Symbolic Z-matrix:
 Charge =  0 Multiplicity = 1

                         Standard orientation:
 ---------------------------------------------------------------------
 Center     Atomic      Atomic             Coordinates (Angstroms)
 Number     Number       Type             X           Y           Z
 ---------------------------------------------------------------------
      1          8           0        0.021862   -1.370632    0.000000
      2          1           0       -0.778490   -1.940670    0.000000
      3          1           0        0.820651   -1.942858    0.000000
      4          8           0        0.021862    1.379267    0.000000
      5          1           0        0.543147    2.212195    0.000000
      6          1           0       -0.935104    1.602252    0.000000
 ---------------------------------------------------------------------

 SCF Done:  E(RHF) =  -33.6379150520     A.U. after   11 cycles
 E2 =    -0.2295570574D+00 EUMP2 =    -0.33867472109474D+02
 CCSD(T)
 CCSD(T)= -0.33884882343D+02

 The electronic state is 1-A'.
 Alpha  occ. eigenvalues --   -1.33171  -1.32677  -0.68760  -0.68304  -0.54108
 Alpha  occ. eigenvalues --   -0.49843  -0.47795  -0.46871
 Alpha virt. eigenvalues --    0.21183   0.23617   0.32294   0.32625   0.79434
 Alpha virt. eigenvalues --    0.80928   0.82371   0.87379   0.99118   1.12282
 Alpha virt. eigenvalues --    1.19300   1.21290   1.24121   1.24485   2.58120

 Mulliken charges:
               1
     1  O   -0.708461
     2  H    0.348395
     3  H    0.359156
     4  O   -0.702697
     5  H    0.348745
     6  H    0.354863
 Sum of Mulliken charges =  -0.00000

 Dipole moment (field-independent basis, Debye):
    X=             -0.9584    Y=             -0.2133    Z=              0.0000  Tot=              0.9818
 Quadrupole moment (field-independent basis, Debye-Ang):
   XX=             -8.4948   YY=              1.5055   ZZ=            -14.9881
   XY=             -0.8563   XZ=              0.0000   YZ=              0.0000

 \MP4DQ=-33.8790243\MP4SDQ=-33.8811275\CCSD=-33.8822146\CCSD(T)=-33.884
 Normal termination of Gaussian 16 at Sun Dec 10 06:44:58 2023.
