 Gaussian 16, Revision A.03,
 Gaussian 16:  ES64L-G16RevA.03 25-Dec-2016

 ------------------
 #p CCSD(T)/CEP-31G
 ------------------

 -----------
 H2O_H2O_933
 -----------
 Symbolic Z-matrix:
 Charge =  0 Multiplicity = 1

                         Standard orientation:
 ---------------------------------------------------------------------
 Center     Atomic      Atomic             Coordinates (Angstroms)
 Number     Number       Type             X           Y           Z
 ---------------------------------------------------------------------
      1          8           0        0.028571   -1.287294    0.000000
      2          1           0       -0.772083   -1.856907    0.000000
      3          1           0        0.827056   -1.859943    0.000000
      4          8           0        0.028571    1.302489    0.000000
      5          1           0        0.437152    2.196115    0.000000
      6          1           0       -0.949262    1.399175    0.000000
 ---------------------------------------------------------------------

 SCF Done:  E(RHF) =  -33.6356995676     A.U. after   11 cycles
 E2 =    -0.2298552964D+00 EUMP2 =    -0.33865554863969D+02
 CCSD(T)
 CCSD(T)= -0.33882976561D+02

 The electronic state is 1-A'.
 Alpha  occ. eigenvalues --   -1.33210  -1.32357  -0.68790  -0.68005  -0.54526
 Alpha  occ. eigenvalues --   -0.49076  -0.47868  -0.46510
 Alpha virt. eigenvalues --    0.21043   0.24146   0.32295   0.32756   0.79174
 Alpha virt. eigenvalues --    0.80994   0.85632   0.88205   0.99450   1.13732
 Alpha virt. eigenvalues --    1.19296   1.22436   1.24061   1.25899   2.56705

 Mulliken charges:
               1
     1  O   -0.712201
     2  H    0.346724
     3  H    0.362839
     4  O   -0.698584
     5  H    0.347144
     6  H    0.354078
 Sum of Mulliken charges =  -0.00000

 Dipole moment (field-independent basis, Debye):
    X=             -1.2334    Y=             -0.3722    Z=              0.0000  Tot=              1.2883
 Quadrupole moment (field-independent basis, Debye-Ang):
   XX=             -8.7119   YY=              0.3194   ZZ=            -14.9913
   XY=             -1.0759   XZ=              0.0000   YZ=              0.0000

 MP4DQ=-33.8770763\MP4SDQ=-33.879196\CCSD=-33.8802831\CCSD(T)=-33.88297
 Normal termination of Gaussian 16 at Sun Dec 10 06:42:12 2023.
