 Gaussian 16, Revision A.03,
 Gaussian 16:  ES64L-G16RevA.03 25-Dec-2016

 ------------------
 #p CCSD(T)/CEP-31G
 ------------------

 ------------
 H2O_H2O_2111
 ------------
 Symbolic Z-matrix:
 Charge =  0 Multiplicity = 1

                         Standard orientation:
 ---------------------------------------------------------------------
 Center     Atomic      Atomic             Coordinates (Angstroms)
 Number     Number       Type             X           Y           Z
 ---------------------------------------------------------------------
      1          8           0        0.037681   -1.905128    0.000000
      2          1           0       -0.762853   -2.474909    0.000000
      3          1           0        0.836287   -2.477610    0.000000
      4          8           0        0.037681    1.933347    0.000000
      5          1           0        0.263873    2.889561    0.000000
      6          1           0       -0.940206    1.837205    0.000000
 ---------------------------------------------------------------------

 SCF Done:  E(RHF) =  -33.6482751694     A.U. after   11 cycles
 E2 =    -0.2287147251D+00 EUMP2 =    -0.33876989894473D+02
 CCSD(T)
 CCSD(T)= -0.33894099868D+02

 The electronic state is 1-A'.
 Alpha  occ. eigenvalues --   -1.34549  -1.33950  -0.70176  -0.69544  -0.54153
 Alpha  occ. eigenvalues --   -0.53392  -0.49073  -0.48474
 Alpha virt. eigenvalues --    0.20656   0.21978   0.31255   0.31835   0.78228
 Alpha virt. eigenvalues --    0.80986   0.82556   0.86036   0.88417   0.95979
 Alpha virt. eigenvalues --    1.18205   1.18892   1.22685   1.23345   2.57997

 Mulliken charges:
               1
     1  O   -0.729126
     2  H    0.360820
     3  H    0.368463
     4  O   -0.726678
     5  H    0.358034
     6  H    0.368487
 Sum of Mulliken charges =  -0.00000

 Dipole moment (field-independent basis, Debye):
    X=             -1.7165    Y=             -0.6849    Z=              0.0000  Tot=              1.8481
 Quadrupole moment (field-independent basis, Debye-Ang):
   XX=             -8.9854   YY=              6.4147   ZZ=            -14.9857
   XY=             -2.5676   XZ=              0.0000   YZ=              0.0000

 \MP4DQ=-33.8884113\MP4SDQ=-33.8904609\CCSD=-33.8915149\CCSD(T)=-33.894
 Normal termination of Gaussian 16 at Sun Dec 10 07:05:24 2023.
