 Gaussian 16, Revision A.03,
 Gaussian 16:  ES64L-G16RevA.03 25-Dec-2016

 ------------------
 #p CCSD(T)/CEP-31G
 ------------------

 ------------
 H2O_H2O_1158
 ------------
 Symbolic Z-matrix:
 Charge =  0 Multiplicity = 1

                         Standard orientation:
 ---------------------------------------------------------------------
 Center     Atomic      Atomic             Coordinates (Angstroms)
 Number     Number       Type             X           Y           Z
 ---------------------------------------------------------------------
      1          8           0        0.028570   -1.406952    0.000000
      2          1           0       -0.771993   -1.976694    0.000000
      3          1           0        0.827147   -1.979473    0.000000
      4          8           0        0.028570    1.422156    0.000000
      5          1           0        0.437008    2.315849    0.000000
      6          1           0       -0.949279    1.518685    0.000000
 ---------------------------------------------------------------------

 SCF Done:  E(RHF) =  -33.6402059946     A.U. after   11 cycles
 E2 =    -0.2294630348D+00 EUMP2 =    -0.33869669029385D+02
 CCSD(T)
 CCSD(T)= -0.33887049414D+02

 The electronic state is 1-A'.
 Alpha  occ. eigenvalues --   -1.33445  -1.32819  -0.69053  -0.68425  -0.54043
 Alpha  occ. eigenvalues --   -0.50514  -0.48023  -0.47109
 Alpha virt. eigenvalues --    0.20972   0.23533   0.32095   0.32545   0.79420
 Alpha virt. eigenvalues --    0.80071   0.82182   0.86851   0.96690   1.13322
 Alpha virt. eigenvalues --    1.19062   1.21536   1.23861   1.24400   2.58692

 Mulliken charges:
               1
     1  O   -0.712971
     2  H    0.349525
     3  H    0.362419
     4  O   -0.704892
     5  H    0.348166
     6  H    0.357753
 Sum of Mulliken charges =  -0.00000

 Dipole moment (field-independent basis, Debye):
    X=             -1.2598    Y=             -0.3776    Z=              0.0000  Tot=              1.3152
 Quadrupole moment (field-independent basis, Debye-Ang):
   XX=             -8.6846   YY=              1.7633   ZZ=            -14.9869
   XY=             -1.2214   XZ=              0.0000   YZ=              0.0000

 DQ=-33.8812095\MP4SDQ=-33.8833142\CCSD=-33.8843942\CCSD(T)=-33.8870494
 Normal termination of Gaussian 16 at Sun Dec 10 06:46:24 2023.
