 Gaussian 16, Revision A.03,
 Gaussian 16:  ES64L-G16RevA.03 25-Dec-2016

 ------------------
 #p CCSD(T)/CEP-31G
 ------------------

 ------------
 H2O_H2O_2574
 ------------
 Symbolic Z-matrix:
 Charge =  0 Multiplicity = 1

                         Standard orientation:
 ---------------------------------------------------------------------
 Center     Atomic      Atomic             Coordinates (Angstroms)
 Number     Number       Type             X           Y           Z
 ---------------------------------------------------------------------
      1          8           0        0.057243   -2.097888    0.000000
      2          1           0       -0.743629   -2.667194    0.000000
      3          1           0        0.855509   -2.670843    0.000000
      4          8           0        0.057243    2.211853    0.000000
      5          1           0       -0.512063    3.012726    0.000000
      6          1           0       -0.515711    1.413587    0.000000
 ---------------------------------------------------------------------

 SCF Done:  E(RHF) =  -33.6532139035     A.U. after   11 cycles
 E2 =    -0.2284372786D+00 EUMP2 =    -0.33881651182100D+02
 CCSD(T)
 CCSD(T)= -0.33898613857D+02

 The electronic state is 1-A'.
 Alpha  occ. eigenvalues --   -1.35993  -1.34058  -0.71633  -0.69641  -0.55813
 Alpha  occ. eigenvalues --   -0.53816  -0.50584  -0.48648
 Alpha virt. eigenvalues --    0.19488   0.22139   0.30056   0.32156   0.79956
 Alpha virt. eigenvalues --    0.81880   0.82031   0.85418   0.85938   0.89113
 Alpha virt. eigenvalues --    1.16962   1.19122   1.21362   1.24447   2.56728

 Mulliken charges:
               1
     1  O   -0.745720
     2  H    0.369227
     3  H    0.376960
     4  O   -0.745416
     5  H    0.361961
     6  H    0.382988
 Sum of Mulliken charges =   0.00000

 Dipole moment (field-independent basis, Debye):
    X=             -2.6222    Y=             -2.7373    Z=              0.0000  Tot=              3.7906
 Quadrupole moment (field-independent basis, Debye-Ang):
   XX=            -10.1566   YY=              1.0043   ZZ=            -14.9921
   XY=             -6.0545   XZ=              0.0000   YZ=              0.0000

 1\MP4DQ=-33.8929665\MP4SDQ=-33.8950017\CCSD=-33.8960464\CCSD(T)=-33.89
 Normal termination of Gaussian 16 at Sun Dec 10 06:26:06 2023.
