 Gaussian 16, Revision A.03,
 Gaussian 16:  ES64L-G16RevA.03 25-Dec-2016

 ------------------
 #p CCSD(T)/CEP-31G
 ------------------

 -----------
 H2O_H2O_429
 -----------
 Symbolic Z-matrix:
 Charge =  0 Multiplicity = 1

                         Standard orientation:
 ---------------------------------------------------------------------
 Center     Atomic      Atomic             Coordinates (Angstroms)
 Number     Number       Type             X           Y           Z
 ---------------------------------------------------------------------
      1          8           0        0.014784   -1.027535    0.000000
      2          1           0       -0.785492   -1.597678    0.000000
      3          1           0        0.813649   -1.599655    0.000000
      4          8           0        0.014784    1.031391    0.000000
      5          1           0        0.640229    1.789233    0.000000
      6          1           0       -0.904936    1.377254    0.000000
 ---------------------------------------------------------------------

 SCF Done:  E(RHF) =  -33.5997311787     A.U. after   11 cycles
 E2 =    -0.2320076016D+00 EUMP2 =    -0.33831738780302D+02
 CCSD(T)
 CCSD(T)= -0.33848946080D+02

 The electronic state is 1-A'.
 Alpha  occ. eigenvalues --   -1.33128  -1.30628  -0.68334  -0.66578  -0.58169
 Alpha  occ. eigenvalues --   -0.48058  -0.44296  -0.42164
 Alpha virt. eigenvalues --    0.21461   0.25893   0.32763   0.33367   0.78887
 Alpha virt. eigenvalues --    0.80588   0.90208   0.96571   1.02506   1.19079
 Alpha virt. eigenvalues --    1.20269   1.23055   1.25298   1.27547   2.49139

 Mulliken charges:
               1
     1  O   -0.703752
     2  H    0.342811
     3  H    0.358342
     4  O   -0.694028
     5  H    0.351062
     6  H    0.345565
 Sum of Mulliken charges =   0.00000

 Dipole moment (field-independent basis, Debye):
    X=             -0.5805    Y=             -0.0906    Z=              0.0000  Tot=              0.5875
 Quadrupole moment (field-independent basis, Debye-Ang):
   XX=             -8.4551   YY=             -3.3577   ZZ=            -15.0208
   XY=             -0.3473   XZ=              0.0000   YZ=              0.0000

 MP4DQ=-33.8427727\MP4SDQ=-33.8450111\CCSD=-33.8460213\CCSD(T)=-33.8489
 Normal termination of Gaussian 16 at Sun Dec 10 06:32:47 2023.
