 Gaussian 16, Revision A.03,
 Gaussian 16:  ES64L-G16RevA.03 25-Dec-2016

 ------------------
 #p CCSD(T)/CEP-31G
 ------------------

 ------------
 H2O_H2O_3845
 ------------
 Symbolic Z-matrix:
 Charge =  0 Multiplicity = 1

                         Standard orientation:
 ---------------------------------------------------------------------
 Center     Atomic      Atomic             Coordinates (Angstroms)
 Number     Number       Type             X           Y           Z
 ---------------------------------------------------------------------
      1          8           0        0.055238   -2.791994    0.000000
      2          1           0       -0.745289   -3.361786    0.000000
      3          1           0        0.853851   -3.364465    0.000000
      4          8           0        0.055238    2.876472    0.000000
      5          1           0       -0.287947    3.797195    0.000000
      6          1           0       -0.704422    2.253237    0.000000
 ---------------------------------------------------------------------

 SCF Done:  E(RHF) =  -33.6517450708     A.U. after   11 cycles
 E2 =    -0.2283978347D+00 EUMP2 =    -0.33880142905458D+02
 CCSD(T)
 CCSD(T)= -0.33897144200D+02

 The electronic state is 1-A'.
 Alpha  occ. eigenvalues --   -1.35556  -1.34766  -0.71189  -0.70380  -0.55290
 Alpha  occ. eigenvalues --   -0.54488  -0.50127  -0.49337
 Alpha virt. eigenvalues --    0.20210   0.21029   0.30452   0.31254   0.80426
 Alpha virt. eigenvalues --    0.81202   0.83442   0.84256   0.86563   0.87441
 Alpha virt. eigenvalues --    1.17344   1.18129   1.21802   1.22604   2.57359

 Mulliken charges:
               1
     1  O   -0.740996
     2  H    0.368658
     3  H    0.372339
     4  O   -0.740537
     5  H    0.366341
     6  H    0.374194
 Sum of Mulliken charges =  -0.00000

 Dipole moment (field-independent basis, Debye):
    X=             -2.5461    Y=             -1.9843    Z=              0.0000  Tot=              3.2280
 Quadrupole moment (field-independent basis, Debye-Ang):
   XX=            -10.0188   YY=              8.5505   ZZ=            -14.9889
   XY=             -7.0274   XZ=              0.0000   YZ=              0.0000

 \MP4DQ=-33.8914996\MP4SDQ=-33.8935275\CCSD=-33.8945824\CCSD(T)=-33.897
 Normal termination of Gaussian 16 at Sun Dec 10 06:49:14 2023.
