 Gaussian 16, Revision A.03,
 Gaussian 16:  ES64L-G16RevA.03 25-Dec-2016

 ------------------
 #p CCSD(T)/CEP-31G
 ------------------

 ------------
 H2O_H2O_2968
 ------------
 Symbolic Z-matrix:
 Charge =  0 Multiplicity = 1

                         Standard orientation:
 ---------------------------------------------------------------------
 Center     Atomic      Atomic             Coordinates (Angstroms)
 Number     Number       Type             X           Y           Z
 ---------------------------------------------------------------------
      1          8           0        0.052833   -2.334330    0.000000
      2          1           0       -0.747831   -2.903928    0.000000
      3          1           0        0.851308   -2.906994    0.000000
      4          8           0        0.052833    2.404641    0.000000
      5          1           0       -0.167005    3.362335    0.000000
      6          1           0       -0.781802    1.886096    0.000000
 ---------------------------------------------------------------------

 SCF Done:  E(RHF) =  -33.6512908691     A.U. after   11 cycles
 E2 =    -0.2284569122D+00 EUMP2 =    -0.33879747781276D+02
 CCSD(T)
 CCSD(T)= -0.33896762829D+02

 The electronic state is 1-A'.
 Alpha  occ. eigenvalues --   -1.35386  -1.34422  -0.71018  -0.70022  -0.55094
 Alpha  occ. eigenvalues --   -0.54116  -0.49949  -0.48988
 Alpha virt. eigenvalues --    0.20283   0.21410   0.30586   0.31564   0.80601
 Alpha virt. eigenvalues --    0.81549   0.83067   0.84983   0.86752   0.88214
 Alpha virt. eigenvalues --    1.17495   1.18469   1.21941   1.22976   2.57523

 Mulliken charges:
               1
     1  O   -0.739445
     2  H    0.366785
     3  H    0.372691
     4  O   -0.738177
     5  H    0.363432
     6  H    0.374714
 Sum of Mulliken charges =  -0.00000

 Dipole moment (field-independent basis, Debye):
    X=             -2.4270    Y=             -1.6682    Z=              0.0000  Tot=              2.9450
 Quadrupole moment (field-independent basis, Debye-Ang):
   XX=             -9.8466   YY=              6.8288   ZZ=            -14.9886
   XY=             -5.3640   XZ=              0.0000   YZ=              0.0000

 MP4DQ=-33.8911131\MP4SDQ=-33.8931436\CCSD=-33.8941975\CCSD(T)=-33.8967
 Normal termination of Gaussian 16 at Sun Dec 10 06:33:24 2023.
