 Gaussian 16, Revision A.03,
 Gaussian 16:  ES64L-G16RevA.03 25-Dec-2016

 ------------------
 #p CCSD(T)/CEP-31G
 ------------------

 ------------
 H2O_H2O_1783
 ------------
 Symbolic Z-matrix:
 Charge =  0 Multiplicity = 1

                         Standard orientation:
 ---------------------------------------------------------------------
 Center     Atomic      Atomic             Coordinates (Angstroms)
 Number     Number       Type             X           Y           Z
 ---------------------------------------------------------------------
      1          8           0        0.028567   -1.739340    0.000000
      2          1           0       -0.771807   -2.309346    0.000000
      3          1           0        0.827334   -2.311597    0.000000
      4          8           0        0.028567    1.754563    0.000000
      5          1           0        0.436710    2.648390    0.000000
      6          1           0       -0.949313    1.850769    0.000000
 ---------------------------------------------------------------------

 SCF Done:  E(RHF) =  -33.6460046456     A.U. after   11 cycles
 E2 =    -0.2288915646D+00 EUMP2 =    -0.33874896210159D+02
 CCSD(T)
 CCSD(T)= -0.33892088339D+02

 The electronic state is 1-A'.
 Alpha  occ. eigenvalues --   -1.34077  -1.33685  -0.69699  -0.69284  -0.53823
 Alpha  occ. eigenvalues --   -0.52716  -0.48587  -0.48161
 Alpha virt. eigenvalues --    0.20848   0.22324   0.31633   0.31987   0.76309
 Alpha virt. eigenvalues --    0.80720   0.83632   0.85308   0.90705   1.01780
 Alpha virt. eigenvalues --    1.18590   1.19126   1.23156   1.23547   2.58260

 Mulliken charges:
               1
     1  O   -0.722007
     2  H    0.357336
     3  H    0.364794
     4  O   -0.719676
     5  H    0.355266
     6  H    0.364286
 Sum of Mulliken charges =  -0.00000

 Dipole moment (field-independent basis, Debye):
    X=             -1.2944    Y=             -0.3755    Z=              0.0000  Tot=              1.3478
 Quadrupole moment (field-independent basis, Debye-Ang):
   XX=             -8.6281   YY=              5.4312   ZZ=            -14.9844
   XY=             -1.6223   XZ=              0.0000   YZ=              0.0000

 \MP4DQ=-33.8863612\MP4SDQ=-33.8884288\CCSD=-33.8894861\CCSD(T)=-33.892
 Normal termination of Gaussian 16 at Sun Dec 10 06:58:01 2023.
