 Gaussian 16, Revision A.03,
 Gaussian 16:  ES64L-G16RevA.03 25-Dec-2016

 ------------------
 #p CCSD(T)/CEP-31G
 ------------------

 ------------
 H2O_H2O_1607
 ------------
 Symbolic Z-matrix:
 Charge =  0 Multiplicity = 1

                         Standard orientation:
 ---------------------------------------------------------------------
 Center     Atomic      Atomic             Coordinates (Angstroms)
 Number     Number       Type             X           Y           Z
 ---------------------------------------------------------------------
      1          8           0        0.025268   -1.648175    0.000000
      2          1           0       -0.775053   -2.218255    0.000000
      3          1           0        0.824088   -2.220357    0.000000
      4          8           0        0.025268    1.659888    0.000000
      5          1           0        0.490914    2.525151    0.000000
      6          1           0       -0.944241    1.819754    0.000000
 ---------------------------------------------------------------------

 SCF Done:  E(RHF) =  -33.6445569405     A.U. after   11 cycles
 E2 =    -0.2290047832D+00 EUMP2 =    -0.33873561723717D+02
 CCSD(T)
 CCSD(T)= -0.33890808951D+02

 The electronic state is 1-A'.
 Alpha  occ. eigenvalues --   -1.33839  -1.33500  -0.69459  -0.69100  -0.53749
 Alpha  occ. eigenvalues --   -0.52211  -0.48356  -0.47931
 Alpha virt. eigenvalues --    0.20935   0.22570   0.31799   0.32121   0.76110
 Alpha virt. eigenvalues --    0.80433   0.84403   0.84492   0.92384   1.05219
 Alpha virt. eigenvalues --    1.18776   1.19357   1.23374   1.23719   2.58842

 Mulliken charges:
               1
     1  O   -0.718106
     2  H    0.355263
     3  H    0.362888
     4  O   -0.715627
     5  H    0.353533
     6  H    0.362049
 Sum of Mulliken charges =   0.00000

 Dipole moment (field-independent basis, Debye):
    X=             -1.1401    Y=             -0.2910    Z=              0.0000  Tot=              1.1766
 Quadrupole moment (field-independent basis, Debye-Ang):
   XX=             -8.5335   YY=              4.6065   ZZ=            -14.9841
   XY=             -1.3098   XZ=              0.0000   YZ=              0.0000

 \MP4DQ=-33.8850552\MP4SDQ=-33.8871331\CCSD=-33.8881951\CCSD(T)=-33.890
 Normal termination of Gaussian 16 at Sun Dec 10 06:54:46 2023.
