 Gaussian 16, Revision A.03,
 Gaussian 16:  ES64L-G16RevA.03 25-Dec-2016

 ------------------
 #p CCSD(T)/CEP-31G
 ------------------

 ------------
 H2O_H2O_3180
 ------------
 Symbolic Z-matrix:
 Charge =  0 Multiplicity = 1

                         Standard orientation:
 ---------------------------------------------------------------------
 Center     Atomic      Atomic             Coordinates (Angstroms)
 Number     Number       Type             X           Y           Z
 ---------------------------------------------------------------------
      1          8           0        0.018360   -2.488900    0.000000
      2          1           0       -0.781573   -3.059524    0.000000
      3          1           0        0.817569   -3.060539    0.000000
      4          8           0        0.018360    2.494938    0.000000
      5          1           0        0.592420    3.292410    0.000000
      6          1           0       -0.922181    2.779343    0.000000
 ---------------------------------------------------------------------

 SCF Done:  E(RHF) =  -33.6495100736     A.U. after   11 cycles
 E2 =    -0.2285124688D+00 EUMP2 =    -0.33878022542382D+02
 CCSD(T)
 CCSD(T)= -0.33895088631D+02

 The electronic state is 1-A'.
 Alpha  occ. eigenvalues --   -1.34696  -1.34622  -0.70320  -0.70243  -0.54307
 Alpha  occ. eigenvalues --   -0.54219  -0.49233  -0.49160
 Alpha virt. eigenvalues --    0.20926   0.21050   0.31179   0.31251   0.81306
 Alpha virt. eigenvalues --    0.81404   0.83949   0.85260   0.87556   0.87737
 Alpha virt. eigenvalues --    1.18110   1.18183   1.22588   1.22662   2.58182

 Mulliken charges:
               1
     1  O   -0.733145
     2  H    0.365647
     3  H    0.367498
     4  O   -0.732938
     5  H    0.365242
     6  H    0.367695
 Sum of Mulliken charges =   0.00000

 Dipole moment (field-independent basis, Debye):
    X=             -0.8445    Y=             -0.1427    Z=              0.0000  Tot=              0.8564
 Quadrupole moment (field-independent basis, Debye-Ang):
   XX=             -8.2736   YY=             13.8468   ZZ=            -14.9857
   XY=             -1.5890   XZ=              0.0000   YZ=              0.0000

 MP4DQ=-33.8894262\MP4SDQ=-33.8914603\CCSD=-33.8925192\CCSD(T)=-33.8950
 Normal termination of Gaussian 16 at Sun Dec 10 06:37:07 2023.
