 Gaussian 16, Revision A.03,
 Gaussian 16:  ES64L-G16RevA.03 25-Dec-2016

 ------------------
 #p CCSD(T)/CEP-31G
 ------------------

 ------------
 H2O_H2O_3926
 ------------
 Symbolic Z-matrix:
 Charge =  0 Multiplicity = 1

                         Standard orientation:
 ---------------------------------------------------------------------
 Center     Atomic      Atomic             Coordinates (Angstroms)
 Number     Number       Type             X           Y           Z
 ---------------------------------------------------------------------
      1          8           0        0.003735   -2.890924    0.000000
      2          1           0       -0.795899   -3.461967    0.000000
      3          1           0        0.803243   -3.462145    0.000000
      4          8           0        0.003735    2.891168    0.000000
      5          1           0        0.764311    3.513287    0.000000
      6          1           0       -0.831420    3.408876    0.000000
 ---------------------------------------------------------------------

 SCF Done:  E(RHF) =  -33.6502270149     A.U. after   10 cycles
 E2 =    -0.2284631639D+00 EUMP2 =    -0.33878690178824D+02
 CCSD(T)
 CCSD(T)= -0.33895735411D+02

 The electronic state is 1-A'.
 Alpha  occ. eigenvalues --   -1.34874  -1.34872  -0.70501  -0.70498  -0.54523
 Alpha  occ. eigenvalues --   -0.54518  -0.49422  -0.49420
 Alpha virt. eigenvalues --    0.20807   0.20817   0.31041   0.31043   0.81130
 Alpha virt. eigenvalues --    0.81135   0.84252   0.84374   0.87355   0.87365
 Alpha virt. eigenvalues --    1.17961   1.17963   1.22432   1.22434   2.58013

 Mulliken charges:
               1
     1  O   -0.735589
     2  H    0.367669
     3  H    0.367920
     4  O   -0.735585
     5  H    0.367623
     6  H    0.367962
 Sum of Mulliken charges =   0.00000

 Dipole moment (field-independent basis, Debye):
    X=             -0.1722    Y=             -0.0057    Z=              0.0000  Tot=              0.1723
 Quadrupole moment (field-independent basis, Debye-Ang):
   XX=             -8.0533   YY=             18.6202   ZZ=            -14.9863
   XY=             -0.3835   XZ=              0.0000   YZ=              0.0000

 MP4DQ=-33.890079\MP4SDQ=-33.8921109\CCSD=-33.8931691\CCSD(T)=-33.89573
 Normal termination of Gaussian 16 at Sun Dec 10 06:50:44 2023.
