 Gaussian 16, Revision A.03,
 Gaussian 16:  ES64L-G16RevA.03 25-Dec-2016

 ------------------
 #p CCSD(T)/CEP-31G
 ------------------

 ------------
 H2O_H2O_3089
 ------------
 Symbolic Z-matrix:
 Charge =  0 Multiplicity = 1

                         Standard orientation:
 ---------------------------------------------------------------------
 Center     Atomic      Atomic             Coordinates (Angstroms)
 Number     Number       Type             X           Y           Z
 ---------------------------------------------------------------------
      1          8           0        0.045347   -2.414803    0.000000
      2          1           0       -0.755137   -2.984654    0.000000
      3          1           0        0.844003   -2.987214    0.000000
      4          8           0        0.045347    2.459347    0.000000
      5          1           0        0.080557    3.441318    0.000000
      6          1           0       -0.894969    2.174193    0.000000
 ---------------------------------------------------------------------

 SCF Done:  E(RHF) =  -33.6505249612     A.U. after   11 cycles
 E2 =    -0.2284818185D+00 EUMP2 =    -0.33879006779733D+02
 CCSD(T)
 CCSD(T)= -0.33896043955D+02

 The electronic state is 1-A'.
 Alpha  occ. eigenvalues --   -1.35100  -1.34527  -0.70729  -0.70135  -0.54764
 Alpha  occ. eigenvalues --   -0.54186  -0.49653  -0.49081
 Alpha virt. eigenvalues --    0.20572   0.21212   0.30834   0.31397   0.80897
 Alpha virt. eigenvalues --    0.81464   0.83526   0.84964   0.87105   0.87999
 Alpha virt. eigenvalues --    1.17748   1.18317   1.22214   1.22794   2.57793

 Mulliken charges:
               1
     1  O   -0.736755
     2  H    0.365990
     3  H    0.370772
     4  O   -0.735668
     5  H    0.363951
     6  H    0.371711
 Sum of Mulliken charges =  -0.00000

 Dipole moment (field-independent basis, Debye):
    X=             -2.0843    Y=             -1.0541    Z=              0.0000  Tot=              2.3357
 Quadrupole moment (field-independent basis, Debye-Ang):
   XX=             -9.3749   YY=              9.8741   ZZ=            -14.9873
   XY=             -4.3685   XZ=              0.0000   YZ=              0.0000

 MP4DQ=-33.8903891\MP4SDQ=-33.8924209\CCSD=-33.8934771\CCSD(T)=-33.8960
 Normal termination of Gaussian 16 at Sun Dec 10 06:35:31 2023.
