 Gaussian 16, Revision A.03,
 Gaussian 16:  ES64L-G16RevA.03 25-Dec-2016

 ------------------
 #p CCSD(T)/CEP-31G
 ------------------

 ------------
 H2O_H2O_4032
 ------------
 Symbolic Z-matrix:
 Charge =  0 Multiplicity = 1

                         Standard orientation:
 ---------------------------------------------------------------------
 Center     Atomic      Atomic             Coordinates (Angstroms)
 Number     Number       Type             X           Y           Z
 ---------------------------------------------------------------------
      1          8           0        0.025265   -2.937863    0.000000
      2          1           0       -0.774728   -3.508404    0.000000
      3          1           0        0.824414   -3.509585    0.000000
      4          8           0        0.025265    2.949606    0.000000
      5          1           0        0.490412    3.815136    0.000000
      6          1           0       -0.944337    3.108913    0.000000
 ---------------------------------------------------------------------

 SCF Done:  E(RHF) =  -33.6505067212     A.U. after   11 cycles
 E2 =    -0.2284512393D+00 EUMP2 =    -0.33878957960521D+02
 CCSD(T)
 CCSD(T)= -0.33895995183D+02

 The electronic state is 1-A'.
 Alpha  occ. eigenvalues --   -1.34992  -1.34889  -0.70619  -0.70514  -0.54654
 Alpha  occ. eigenvalues --   -0.54552  -0.49544  -0.49442
 Alpha virt. eigenvalues --    0.20709   0.20813   0.30941   0.31040   0.81010
 Alpha virt. eigenvalues --    0.81111   0.84148   0.84273   0.87221   0.87345
 Alpha virt. eigenvalues --    1.17856   1.17957   1.22324   1.22426   2.57904

 Mulliken charges:
               1
     1  O   -0.736580
     2  H    0.367486
     3  H    0.369094
     4  O   -0.736404
     5  H    0.367049
     6  H    0.369354
 Sum of Mulliken charges =   0.00000

 Dipole moment (field-independent basis, Debye):
    X=             -1.1652    Y=             -0.2753    Z=              0.0000  Tot=              1.1973
 Quadrupole moment (field-independent basis, Debye-Ang):
   XX=             -8.4553   YY=             17.9692   ZZ=            -14.9867
   XY=             -2.7477   XZ=              0.0000   YZ=              0.0000

 MP4DQ=-33.890341\MP4SDQ=-33.8923722\CCSD=-33.8934298\CCSD(T)=-33.89599
 Normal termination of Gaussian 16 at Sun Dec 10 06:52:40 2023.
