 Gaussian 16, Revision A.03,
 Gaussian 16:  ES64L-G16RevA.03 25-Dec-2016

 ------------------
 #p CCSD(T)/CEP-31G
 ------------------

 -----------
 H2O_H2O_324
 -----------
 Symbolic Z-matrix:
 Charge =  0 Multiplicity = 1

                         Standard orientation:
 ---------------------------------------------------------------------
 Center     Atomic      Atomic             Coordinates (Angstroms)
 Number     Number       Type             X           Y           Z
 ---------------------------------------------------------------------
      1          8           0        0.057405   -0.901427    0.000000
      2          1           0       -0.745085   -1.468449    0.000000
      3          1           0        0.854036   -1.476654    0.000000
      4          8           0        0.057405    1.015066    0.000000
      5          1           0       -0.509617    1.817556    0.000000
      6          1           0       -0.517821    0.218434    0.000000
 ---------------------------------------------------------------------

 SCF Done:  E(RHF) =  -33.5626795966     A.U. after   11 cycles
 E2 =    -0.2322781484D+00 EUMP2 =    -0.33794957745040D+02
 CCSD(T)
 CCSD(T)= -0.33810435666D+02

 The electronic state is 1-A'.
 Alpha  occ. eigenvalues --   -1.41821  -1.28206  -0.78422  -0.72706  -0.55001
 Alpha  occ. eigenvalues --   -0.49119  -0.47825  -0.42543
 Alpha virt. eigenvalues --    0.18304   0.27220   0.30024   0.39652   0.76972
 Alpha virt. eigenvalues --    0.84890   0.90791   0.93100   0.98364   1.15938
 Alpha virt. eigenvalues --    1.17710   1.21369   1.32787   1.33852   2.90842

 Mulliken charges:
               1
     1  O   -0.795195
     2  H    0.376528
     3  H    0.459338
     4  O   -0.706254
     5  H    0.293733
     6  H    0.371851
 Sum of Mulliken charges =  -0.00000

 Dipole moment (field-independent basis, Debye):
    X=             -2.1840    Y=             -3.4163    Z=              0.0000  Tot=              4.0548
 Quadrupole moment (field-independent basis, Debye-Ang):
   XX=            -10.0829   YY=             -7.4239   ZZ=            -14.9500
   XY=             -2.8009   XZ=              0.0000   YZ=              0.0000

 \MP4DQ=-33.8039739\MP4SDQ=-33.8064496\CCSD=-33.8071265\CCSD(T)=-33.810
 Normal termination of Gaussian 16 at Sun Dec 10 06:30:50 2023.
