 Gaussian 16, Revision A.03,
 Gaussian 16:  ES64L-G16RevA.03 25-Dec-2016

 ------------------
 #p CCSD(T)/CEP-31G
 ------------------

 ------------
 H2O_H2O_2101
 ------------
 Symbolic Z-matrix:
 Charge =  0 Multiplicity = 1

                         Standard orientation:
 ---------------------------------------------------------------------
 Center     Atomic      Atomic             Coordinates (Angstroms)
 Number     Number       Type             X           Y           Z
 ---------------------------------------------------------------------
      1          8           0        0.003735   -1.920323    0.000000
      2          1           0       -0.795931   -2.491321    0.000000
      3          1           0        0.803211   -2.491589    0.000000
      4          8           0        0.003735    1.920567    0.000000
      5          1           0        0.764346    2.542642    0.000000
      6          1           0       -0.831391    2.438321    0.000000
 ---------------------------------------------------------------------

 SCF Done:  E(RHF) =  -33.6465422875     A.U. after   10 cycles
 E2 =    -0.2287406532D+00 EUMP2 =    -0.33875282940740D+02
 CCSD(T)
 CCSD(T)= -0.33892440351D+02

 The electronic state is 1-A'.
 Alpha  occ. eigenvalues --   -1.34038  -1.34019  -0.69659  -0.69637  -0.53753
 Alpha  occ. eigenvalues --   -0.53134  -0.48568  -0.48481
 Alpha virt. eigenvalues --    0.21086   0.21833   0.31580   0.31803   0.78855
 Alpha virt. eigenvalues --    0.81299   0.82739   0.86726   0.90099   0.93932
 Alpha virt. eigenvalues --    1.18653   1.18668   1.23012   1.23351   2.58242

 Mulliken charges:
               1
     1  O   -0.723187
     2  H    0.361213
     3  H    0.361975
     4  O   -0.723160
     5  H    0.361128
     6  H    0.362031
 Sum of Mulliken charges =  -0.00000

 Dipole moment (field-independent basis, Debye):
    X=             -0.1704    Y=             -0.0059    Z=              0.0000  Tot=              0.1705
 Quadrupole moment (field-independent basis, Debye-Ang):
   XX=             -8.1116   YY=              8.1199   ZZ=            -14.9838
   XY=             -0.2229   XZ=              0.0000   YZ=              0.0000

 MP4DQ=-33.8867399\MP4SDQ=-33.8887917\CCSD=-33.8898515\CCSD(T)=-33.8924
 Normal termination of Gaussian 16 at Sun Dec 10 07:05:13 2023.
