 Gaussian 16, Revision A.03,
 Gaussian 16:  ES64L-G16RevA.03 25-Dec-2016

 ------------------
 #p CCSD(T)/CEP-31G
 ------------------

 ------------
 H2O_H2O_2488
 ------------
 Symbolic Z-matrix:
 Charge =  0 Multiplicity = 1

                         Standard orientation:
 ---------------------------------------------------------------------
 Center     Atomic      Atomic             Coordinates (Angstroms)
 Number     Number       Type             X           Y           Z
 ---------------------------------------------------------------------
      1          8           0        0.042974   -2.098841    0.000000
      2          1           0       -0.757593   -2.668577    0.000000
      3          1           0        0.841547   -2.671368    0.000000
      4          8           0        0.042974    2.137603    0.000000
      5          1           0        0.142474    3.115154    0.000000
      6          1           0       -0.914011    1.914697    0.000000
 ---------------------------------------------------------------------

 SCF Done:  E(RHF) =  -33.6496439325     A.U. after   11 cycles
 E2 =    -0.2285787321D+00 EUMP2 =    -0.33878222664624D+02
 CCSD(T)
 CCSD(T)= -0.33895286869D+02

 The electronic state is 1-A'.
 Alpha  occ. eigenvalues --   -1.34875  -1.34205  -0.70503  -0.69802  -0.54495
 Alpha  occ. eigenvalues --   -0.53799  -0.49415  -0.48748
 Alpha virt. eigenvalues --    0.20591   0.21624   0.30999   0.31666   0.81031
 Alpha virt. eigenvalues --    0.81138   0.81896   0.85921   0.87453   0.90979
 Alpha virt. eigenvalues --    1.17937   1.18634   1.22390   1.23117   2.57972

 Mulliken charges:
               1
     1  O   -0.733754
     2  H    0.363580
     3  H    0.370245
     4  O   -0.731819
     5  H    0.360856
     6  H    0.370892
 Sum of Mulliken charges =   0.00000

 Dipole moment (field-independent basis, Debye):
    X=             -1.9665    Y=             -0.9283    Z=              0.0000  Tot=              2.1746
 Quadrupole moment (field-independent basis, Debye-Ang):
   XX=             -9.2457   YY=              7.5342   ZZ=            -14.9867
   XY=             -3.4468   XZ=              0.0000   YZ=              0.0000

 MP4DQ=-33.8896206\MP4SDQ=-33.8916582\CCSD=-33.8927132\CCSD(T)=-33.8952
 Normal termination of Gaussian 16 at Sun Dec 10 07:12:10 2023.
