 Gaussian 16, Revision A.03,
 Gaussian 16:  ES64L-G16RevA.03 25-Dec-2016

 ------------------
 #p CCSD(T)/CEP-31G
 ------------------

 ------------
 H2O_H2O_2474
 ------------
 Symbolic Z-matrix:
 Charge =  0 Multiplicity = 1

                         Standard orientation:
 ---------------------------------------------------------------------
 Center     Atomic      Atomic             Coordinates (Angstroms)
 Number     Number       Type             X           Y           Z
 ---------------------------------------------------------------------
      1          8           0        0.057247   -2.044708    0.000000
      2          1           0       -0.743658   -2.613968    0.000000
      3          1           0        0.855479   -2.617709    0.000000
      4          8           0        0.057247    2.158667    0.000000
      5          1           0       -0.512013    2.959572    0.000000
      6          1           0       -0.515754    1.360434    0.000000
 ---------------------------------------------------------------------

 SCF Done:  E(RHF) =  -33.6533515444     A.U. after   11 cycles
 E2 =    -0.2284574964D+00 EUMP2 =    -0.33881809040774D+02
 CCSD(T)
 CCSD(T)= -0.33898770203D+02

 The electronic state is 1-A'.
 Alpha  occ. eigenvalues --   -1.36023  -1.33975  -0.71663  -0.69553  -0.55850
 Alpha  occ. eigenvalues --   -0.53734  -0.50616  -0.48566
 Alpha virt. eigenvalues --    0.19402   0.22293   0.30024   0.32279   0.79910
 Alpha virt. eigenvalues --    0.81746   0.81977   0.85474   0.85956   0.89706
 Alpha virt. eigenvalues --    1.16935   1.19266   1.21331   1.24862   2.56515

 Mulliken charges:
               1
     1  O   -0.746080
     2  H    0.369197
     3  H    0.377483
     4  O   -0.745836
     5  H    0.361315
     6  H    0.383920
 Sum of Mulliken charges =   0.00000

 Dipole moment (field-independent basis, Debye):
    X=             -2.6201    Y=             -2.7462    Z=              0.0000  Tot=              3.7956
 Quadrupole moment (field-independent basis, Debye-Ang):
   XX=            -10.1555   YY=              0.7137   ZZ=            -14.9925
   XY=             -5.9170   XZ=              0.0000   YZ=              0.0000

 MP4DQ=-33.8931194\MP4SDQ=-33.8951574\CCSD=-33.8962005\CCSD(T)=-33.8987
 Normal termination of Gaussian 16 at Sun Dec 10 07:11:55 2023.
