 Gaussian 16, Revision A.03,
 Gaussian 16:  ES64L-G16RevA.03 25-Dec-2016

 ------------------
 #p CCSD(T)/CEP-31G
 ------------------

 ------------
 H2O_H2O_2103
 ------------
 Symbolic Z-matrix:
 Charge =  0 Multiplicity = 1

                         Standard orientation:
 ---------------------------------------------------------------------
 Center     Atomic      Atomic             Coordinates (Angstroms)
 Number     Number       Type             X           Y           Z
 ---------------------------------------------------------------------
      1          8           0        0.011143   -1.919269    0.000000
      2          1           0       -0.788713   -2.490002    0.000000
      3          1           0        0.810428   -2.490801    0.000000
      4          8           0        0.011143    1.921453    0.000000
      5          1           0        0.684285    2.637263    0.000000
      6          1           0       -0.884285    2.326069    0.000000
 ---------------------------------------------------------------------

 SCF Done:  E(RHF) =  -33.6466618875     A.U. after   11 cycles
 E2 =    -0.2287397486D+00 EUMP2 =    -0.33875401636125D+02
 CCSD(T)
 CCSD(T)= -0.33892555847D+02

 The electronic state is 1-A'.
 Alpha  occ. eigenvalues --   -1.34069  -1.34020  -0.69690  -0.69636  -0.53772
 Alpha  occ. eigenvalues --   -0.53161  -0.48592  -0.48493
 Alpha virt. eigenvalues --    0.21062   0.21835   0.31581   0.31781   0.78800
 Alpha virt. eigenvalues --    0.81280   0.82723   0.86650   0.89905   0.94205
 Alpha virt. eigenvalues --    1.18625   1.18675   1.23021   1.23323   2.58238

 Mulliken charges:
               1
     1  O   -0.723598
     2  H    0.360670
     3  H    0.362942
     4  O   -0.723356
     5  H    0.360314
     6  H    0.363029
 Sum of Mulliken charges =   0.00000

 Dipole moment (field-independent basis, Debye):
    X=             -0.5083    Y=             -0.0532    Z=              0.0000  Tot=              0.5111
 Quadrupole moment (field-independent basis, Debye-Ang):
   XX=             -8.1799   YY=              8.0088   ZZ=            -14.9839
   XY=             -0.6715   XZ=              0.0000   YZ=              0.0000

 \MP4DQ=-33.8868562\MP4SDQ=-33.8889079\CCSD=-33.8899672\CCSD(T)=-33.892
 Normal termination of Gaussian 16 at Sun Dec 10 07:05:15 2023.
