 Gaussian 16, Revision A.03,
 Gaussian 16:  ES64L-G16RevA.03 25-Dec-2016

 ------------------
 #p CCSD(T)/CEP-31G
 ------------------

 ------------
 H2O_H2O_4434
 ------------
 Symbolic Z-matrix:
 Charge =  0 Multiplicity = 1

                         Standard orientation:
 ---------------------------------------------------------------------
 Center     Atomic      Atomic             Coordinates (Angstroms)
 Number     Number       Type             X           Y           Z
 ---------------------------------------------------------------------
      1          8           0        0.031739   -3.146550    0.000000
      2          1           0       -0.768326   -3.716990    0.000000
      3          1           0        0.830815   -3.718374    0.000000
      4          8           0        0.031739    3.165746    0.000000
      5          1           0        0.380049    4.084541    0.000000
      6          1           0       -0.950357    3.197256    0.000000
 ---------------------------------------------------------------------

 SCF Done:  E(RHF) =  -33.6508570805     A.U. after   11 cycles
 E2 =    -0.2284313205D+00 EUMP2 =    -0.33879288401034D+02
 CCSD(T)
 CCSD(T)= -0.33896315565D+02

 The electronic state is 1-A'.
 Alpha  occ. eigenvalues --   -1.35122  -1.34978  -0.70751  -0.70603  -0.54805
 Alpha  occ. eigenvalues --   -0.54660  -0.49680  -0.49535
 Alpha virt. eigenvalues --    0.20598   0.20744   0.30831   0.30973   0.80874
 Alpha virt. eigenvalues --    0.81017   0.83989   0.84130   0.87066   0.87234
 Alpha virt. eigenvalues --    1.17740   1.17883   1.22205   1.22349   2.57780

 Mulliken charges:
               1
     1  O   -0.737808
     2  H    0.368076
     3  H    0.369733
     4  O   -0.737616
     5  H    0.367555
     6  H    0.370061
 Sum of Mulliken charges =   0.00000

 Dipole moment (field-independent basis, Debye):
    X=             -1.4650    Y=             -0.4490    Z=              0.0000  Tot=              1.5322
 Quadrupole moment (field-independent basis, Debye-Ang):
   XX=             -8.6914   YY=             19.2426   ZZ=            -14.9871
   XY=             -3.8348   XZ=              0.0000   YZ=              0.0000

 4DQ=-33.8906642\MP4SDQ=-33.8926943\CCSD=-33.8937514\CCSD(T)=-33.896315
 Normal termination of Gaussian 16 at Sun Dec 10 06:59:49 2023.
