 Gaussian 16, Revision A.03,
 Gaussian 16:  ES64L-G16RevA.03 25-Dec-2016

 ------------------
 #p CCSD(T)/CEP-31G
 ------------------

 ------------
 H2O_H2O_4117
 ------------
 Symbolic Z-matrix:
 Charge =  0 Multiplicity = 1

                         Standard orientation:
 ---------------------------------------------------------------------
 Center     Atomic      Atomic             Coordinates (Angstroms)
 Number     Number       Type             X           Y           Z
 ---------------------------------------------------------------------
      1          8           0        0.051270   -2.949612    0.000000
      2          1           0       -0.749145   -3.519561    0.000000
      3          1           0        0.849996   -3.521926    0.000000
      4          8           0        0.051270    3.013166    0.000000
      5          1           0       -0.105886    3.983119    0.000000
      6          1           0       -0.815290    2.549939    0.000000
 ---------------------------------------------------------------------

 SCF Done:  E(RHF) =  -33.6514069342     A.U. after   11 cycles
 E2 =    -0.2284106698D+00 EUMP2 =    -0.33879817603941D+02
 CCSD(T)
 CCSD(T)= -0.33896828775D+02

 The electronic state is 1-A'.
 Alpha  occ. eigenvalues --   -1.35404  -1.34867  -0.71035  -0.70485  -0.55117
 Alpha  occ. eigenvalues --   -0.54576  -0.49969  -0.49433
 Alpha virt. eigenvalues --    0.20346   0.20897   0.30584   0.31122   0.80583
 Alpha virt. eigenvalues --    0.81112   0.83642   0.84181   0.86742   0.87345
 Alpha virt. eigenvalues --    1.17482   1.18015   1.21943   1.22483   2.57508

 Mulliken charges:
               1
     1  O   -0.739786
     2  H    0.368373
     3  H    0.371413
     4  O   -0.739350
     5  H    0.366815
     6  H    0.372535
 Sum of Mulliken charges =   0.00000

 Dipole moment (field-independent basis, Debye):
    X=             -2.3649    Y=             -1.4895    Z=              0.0000  Tot=              2.7949
 Quadrupole moment (field-independent basis, Debye-Ang):
   XX=             -9.7445   YY=             12.2570   ZZ=            -14.9882
   XY=             -6.5208   XZ=              0.0000   YZ=              0.0000

 \MP4DQ=-33.8911816\MP4SDQ=-33.8932104\CCSD=-33.8942662\CCSD(T)=-33.896
 Normal termination of Gaussian 16 at Sun Dec 10 06:54:16 2023.
