 Gaussian 16, Revision A.03,
 Gaussian 16:  ES64L-G16RevA.03 25-Dec-2016

 ------------------
 #p CCSD(T)/CEP-31G
 ------------------

 ------------
 H2O_H2O_1500
 ------------
 Symbolic Z-matrix:
 Charge =  0 Multiplicity = 1

                         Standard orientation:
 ---------------------------------------------------------------------
 Center     Atomic      Atomic             Coordinates (Angstroms)
 Number     Number       Type             X           Y           Z
 ---------------------------------------------------------------------
      1          8           0        0.000000   -0.000000    1.601354
      2          1           0        0.000000    0.799571    2.172486
      3          1           0       -0.000000   -0.799571    2.172486
      4          8           0        0.000000   -0.000000   -1.601354
      5          1           0       -0.000000   -0.799571   -2.172486
      6          1           0        0.000000    0.799571   -2.172486
 ---------------------------------------------------------------------

 SCF Done:  E(RHF) =  -33.6424977411     A.U. after   10 cycles
 E2 =    -0.2290626950D+00 EUMP2 =    -0.33871560436181D+02
 CCSD(T)
 CCSD(T)= -0.33888864439D+02

 The electronic state is 1-AG.
 Alpha  occ. eigenvalues --   -1.33477  -1.33371  -0.69088  -0.68991  -0.53615
 Alpha  occ. eigenvalues --   -0.51623  -0.48039  -0.47698
 Alpha virt. eigenvalues --    0.21218   0.22637   0.31922   0.32320   0.77014
 Alpha virt. eigenvalues --    0.80389   0.83731   0.85011   0.95241   1.04579
 Alpha virt. eigenvalues --    1.19078   1.19281   1.23495   1.24066   2.59532

 Mulliken charges:
               1
     1  O   -0.712077
     2  H    0.356038
     3  H    0.356038
     4  O   -0.712077
     5  H    0.356038
     6  H    0.356038
 Sum of Mulliken charges =  -0.00000

 Dipole moment (field-independent basis, Debye):
    X=             -0.0000    Y=              0.0000    Z=             -0.0000  Tot=              0.0000
 Quadrupole moment (field-independent basis, Debye-Ang):
   XX=            -14.9835   YY=             -8.1586   ZZ=              4.5269
   XY=              0.0000   XZ=              0.0000   YZ=             -0.0000

 -33.8830905\MP4SDQ=-33.8851707\CCSD=-33.8862414\CCSD(T)=-33.8888644\RM
 Normal termination of Gaussian 16 at Sun Dec 10 06:52:47 2023.
