 Gaussian 16, Revision A.03,
 Gaussian 16:  ES64L-G16RevA.03 25-Dec-2016

 ------------------
 #p CCSD(T)/CEP-31G
 ------------------

 ------------
 H2O_H2O_4371
 ------------
 Symbolic Z-matrix:
 Charge =  0 Multiplicity = 1

                         Standard orientation:
 ---------------------------------------------------------------------
 Center     Atomic      Atomic             Coordinates (Angstroms)
 Number     Number       Type             X           Y           Z
 ---------------------------------------------------------------------
      1          8           0        0.056087   -3.067249    0.000000
      2          1           0       -0.744368   -3.637142    0.000000
      3          1           0        0.854772   -3.639619    0.000000
      4          8           0        0.056087    3.159017    0.000000
      5          1           0       -0.346694    4.055273    0.000000
      6          1           0       -0.661101    2.487342    0.000000
 ---------------------------------------------------------------------

 SCF Done:  E(RHF) =  -33.6518520702     A.U. after   11 cycles
 E2 =    -0.2283835198D+00 EUMP2 =    -0.33880235590084D+02
 CCSD(T)
 CCSD(T)= -0.33897233798D+02

 The electronic state is 1-A'.
 Alpha  occ. eigenvalues --   -1.35611  -1.34908  -0.71244  -0.70529  -0.55349
 Alpha  occ. eigenvalues --   -0.54638  -0.50183  -0.49481
 Alpha virt. eigenvalues --    0.20164   0.20886   0.30404   0.31119   0.80368
 Alpha virt. eigenvalues --    0.81060   0.83385   0.84097   0.86501   0.87262
 Alpha virt. eigenvalues --    1.17294   1.17992   1.21751   1.22463   2.57309

 Mulliken charges:
               1
     1  O   -0.741363
     2  H    0.369262
     3  H    0.372101
     4  O   -0.741109
     5  H    0.367388
     6  H    0.373721
 Sum of Mulliken charges =   0.00000

 Dipole moment (field-independent basis, Debye):
    X=             -2.5879    Y=             -2.1479    Z=              0.0000  Tot=              3.3632
 Quadrupole moment (field-independent basis, Debye-Ang):
   XX=            -10.0825   YY=              9.4154   ZZ=            -14.9889
   XY=             -7.9836   XZ=              0.0000   YZ=              0.0000

 5\MP4DQ=-33.8915902\MP4SDQ=-33.8936177\CCSD=-33.8946727\CCSD(T)=-33.89
 Normal termination of Gaussian 16 at Sun Dec 10 06:58:42 2023.
