 Gaussian 16, Revision A.03,
 Gaussian 16:  ES64L-G16RevA.03 25-Dec-2016

 ------------------
 #p CCSD(T)/CEP-31G
 ------------------

 ------------
 H2O_H2O_1439
 ------------
 Symbolic Z-matrix:
 Charge =  0 Multiplicity = 1

                         Standard orientation:
 ---------------------------------------------------------------------
 Center     Atomic      Atomic             Coordinates (Angstroms)
 Number     Number       Type             X           Y           Z
 ---------------------------------------------------------------------
      1          8           0        0.045367   -1.537315    0.000000
      2          1           0       -0.755630   -2.106446    0.000000
      3          1           0        0.843507   -2.110445    0.000000
      4          8           0        0.045367    1.581778    0.000000
      5          1           0        0.081462    2.563717    0.000000
      6          1           0       -0.895205    1.297471    0.000000
 ---------------------------------------------------------------------

 SCF Done:  E(RHF) =  -33.6468068236     A.U. after   11 cycles
 E2 =    -0.2291634502D+00 EUMP2 =    -0.33875970273788D+02
 CCSD(T)
 CCSD(T)= -0.33893185792D+02

 The electronic state is 1-A'.
 Alpha  occ. eigenvalues --   -1.34545  -1.33120  -0.70178  -0.68686  -0.54309
 Alpha  occ. eigenvalues --   -0.52275  -0.49074  -0.47621
 Alpha virt. eigenvalues --    0.20188   0.23399   0.31203   0.32533   0.75952
 Alpha virt. eigenvalues --    0.79501   0.84734   0.85018   0.90534   1.11165
 Alpha virt. eigenvalues --    1.18111   1.21278   1.22717   1.24879   2.58703

 Mulliken charges:
               1
     1  O   -0.727490
     2  H    0.355910
     3  H    0.371654
     4  O   -0.718193
     5  H    0.348798
     6  H    0.369322
 Sum of Mulliken charges =   0.00000

 Dipole moment (field-independent basis, Debye):
    X=             -2.0282    Y=             -1.1085    Z=              0.0000  Tot=              2.3114
 Quadrupole moment (field-independent basis, Debye-Ang):
   XX=             -9.4015   YY=              2.0224   ZZ=            -14.9875
   XY=             -2.6074   XZ=              0.0000   YZ=              0.0000

 \MP4DQ=-33.8874146\MP4SDQ=-33.8895092\CCSD=-33.8905623\CCSD(T)=-33.893
 Normal termination of Gaussian 16 at Sun Dec 10 06:51:39 2023.
