 Gaussian 16, Revision A.03,
 Gaussian 16:  ES64L-G16RevA.03 25-Dec-2016

 ------------------
 #p CCSD(T)/CEP-31G
 ------------------

 ------------
 H2O_H2O_4993
 ------------
 Symbolic Z-matrix:
 Charge =  0 Multiplicity = 1

                         Standard orientation:
 ---------------------------------------------------------------------
 Center     Atomic      Atomic             Coordinates (Angstroms)
 Number     Number       Type             X           Y           Z
 ---------------------------------------------------------------------
      1          8           0        0.052812   -3.411266    0.000000
      2          1           0       -0.747511   -3.981343    0.000000
      3          1           0        0.851630   -3.983451    0.000000
      4          8           0        0.052812    3.481640    0.000000
      5          1           0       -0.167600    4.439202    0.000000
      6          1           0       -0.781513    2.962595    0.000000
 ---------------------------------------------------------------------

 SCF Done:  E(RHF) =  -33.6516168815     A.U. after   11 cycles
 E2 =    -0.2283908276D+00 EUMP2 =    -0.33880007709024D+02
 CCSD(T)
 CCSD(T)= -0.33897012922D+02

 The electronic state is 1-A'.
 Alpha  occ. eigenvalues --   -1.35492  -1.35054  -0.71124  -0.70679  -0.55217
 Alpha  occ. eigenvalues --   -0.54776  -0.50061  -0.49623
 Alpha virt. eigenvalues --    0.20270   0.20718   0.30509   0.30949   0.80491
 Alpha virt. eigenvalues --    0.80923   0.83533   0.83971   0.86638   0.87114
 Alpha virt. eigenvalues --    1.17402   1.17838   1.21862   1.22303   2.57423

 Mulliken charges:
               1
     1  O   -0.740514
     2  H    0.369224
     3  H    0.371290
     4  O   -0.740303
     5  H    0.368113
     6  H    0.372191
 Sum of Mulliken charges =  -0.00000

 Dipole moment (field-independent basis, Debye):
    X=             -2.4392    Y=             -1.6424    Z=              0.0000  Tot=              2.9406
 Quadrupole moment (field-independent basis, Debye-Ang):
   XX=             -9.8506   YY=             14.8342   ZZ=            -14.9883
   XY=             -7.9587   XZ=              0.0000   YZ=              0.0000

 8\MP4DQ=-33.8913675\MP4SDQ=-33.8933956\CCSD=-33.8944513\CCSD(T)=-33.89
 Normal termination of Gaussian 16 at Sun Dec 10 07:11:43 2023.
