 Gaussian 16, Revision A.03,
 Gaussian 16:  ES64L-G16RevA.03 25-Dec-2016

 ------------------
 #p CCSD(T)/CEP-31G
 ------------------

 -----------
 H2O_H2O_939
 -----------
 Symbolic Z-matrix:
 Charge =  0 Multiplicity = 1

                         Standard orientation:
 ---------------------------------------------------------------------
 Center     Atomic      Atomic             Coordinates (Angstroms)
 Number     Number       Type             X           Y           Z
 ---------------------------------------------------------------------
      1          8           0        0.045378   -1.271422    0.000000
      2          1           0       -0.755911   -1.840140    0.000000
      3          1           0        0.843223   -1.844962    0.000000
      4          8           0        0.045378    1.315838    0.000000
      5          1           0        0.081978    2.297758    0.000000
      6          1           0       -0.895340    1.032013    0.000000
 ---------------------------------------------------------------------

 SCF Done:  E(RHF) =  -33.6406915288     A.U. after   11 cycles
 E2 =    -0.2299609907D+00 EUMP2 =    -0.33870652519530D+02
 CCSD(T)
 CCSD(T)= -0.33887998198D+02

 The electronic state is 1-A'.
 Alpha  occ. eigenvalues --   -1.34222  -1.32236  -0.69855  -0.67952  -0.54619
 Alpha  occ. eigenvalues --   -0.50318  -0.48816  -0.46601
 Alpha virt. eigenvalues --    0.20253   0.24810   0.31495   0.33018   0.78502
 Alpha virt. eigenvalues --    0.83027   0.86002   0.87954   0.94594   1.16299
 Alpha virt. eigenvalues --    1.18720   1.22340   1.23143   1.29144   2.59369

 Mulliken charges:
               1
     1  O   -0.731432
     2  H    0.350975
     3  H    0.375627
     4  O   -0.700800
     5  H    0.341973
     6  H    0.363658
 Sum of Mulliken charges =  -0.00000

 Dipole moment (field-independent basis, Debye):
    X=             -1.9595    Y=             -1.1074    Z=              0.0000  Tot=              2.2508
 Quadrupole moment (field-independent basis, Debye-Ang):
   XX=             -9.4276   YY=             -0.6707   ZZ=            -14.9916
   XY=             -2.0873   XZ=              0.0000   YZ=              0.0000

 MP4DQ=-33.8820931\MP4SDQ=-33.8842377\CCSD=-33.8853016\CCSD(T)=-33.8879
 Normal termination of Gaussian 16 at Sun Dec 10 06:42:19 2023.
