 Gaussian 16, Revision A.03,
 Gaussian 16:  ES64L-G16RevA.03 25-Dec-2016

 ------------------
 #p CCSD(T)/CEP-31G
 ------------------

 ------------
 H2O_H2O_3706
 ------------
 Symbolic Z-matrix:
 Charge =  0 Multiplicity = 1

                         Standard orientation:
 ---------------------------------------------------------------------
 Center     Atomic      Atomic             Coordinates (Angstroms)
 Number     Number       Type             X           Y           Z
 ---------------------------------------------------------------------
      1          8           0        0.021859   -2.766687    0.000000
      2          1           0       -0.778099   -3.337276    0.000000
      3          1           0        0.821042   -3.338362    0.000000
      4          8           0        0.021859    2.775353    0.000000
      5          1           0        0.542570    3.608639    0.000000
      6          1           0       -0.935260    2.997677    0.000000
 ---------------------------------------------------------------------

 SCF Done:  E(RHF) =  -33.6501847844     A.U. after   11 cycles
 E2 =    -0.2284703171D+00 EUMP2 =    -0.33878655101523D+02
 CCSD(T)
 CCSD(T)= -0.33895701604D+02

 The electronic state is 1-A'.
 Alpha  occ. eigenvalues --   -1.34887  -1.34802  -0.70513  -0.70425  -0.54531
 Alpha  occ. eigenvalues --   -0.54446  -0.49434  -0.49349
 Alpha virt. eigenvalues --    0.20795   0.20884   0.31027   0.31109   0.81119
 Alpha virt. eigenvalues --    0.81203   0.84214   0.84477   0.87347   0.87456
 Alpha virt. eigenvalues --    1.17947   1.18031   1.22418   1.22503   2.58002

 Mulliken charges:
               1
     1  O   -0.735463
     2  H    0.366908
     3  H    0.368554
     4  O   -0.735285
     5  H    0.366500
     6  H    0.368785
 Sum of Mulliken charges =  -0.00000

 Dipole moment (field-independent basis, Debye):
    X=             -1.0073    Y=             -0.2036    Z=              0.0000  Tot=              1.0277
 Quadrupole moment (field-independent basis, Debye-Ang):
   XX=             -8.3552   YY=             16.5155   ZZ=            -14.9864
   XY=             -2.1846   XZ=              0.0000   YZ=              0.0000

 4DQ=-33.8900448\MP4SDQ=-33.8920769\CCSD=-33.893135\CCSD(T)=-33.8957016
 Normal termination of Gaussian 16 at Sun Dec 10 06:46:39 2023.
