 Gaussian 16, Revision A.03,
 Gaussian 16:  ES64L-G16RevA.03 25-Dec-2016

 ------------------
 #p CCSD(T)/CEP-31G
 ------------------

 -----------
 H2O_H2O_735
 -----------
 Symbolic Z-matrix:
 Charge =  0 Multiplicity = 1

                         Standard orientation:
 ---------------------------------------------------------------------
 Center     Atomic      Atomic             Coordinates (Angstroms)
 Number     Number       Type             X           Y           Z
 ---------------------------------------------------------------------
      1          8           0        0.034798   -1.176454    0.000000
      2          1           0       -0.766209   -1.745570    0.000000
      3          1           0        0.832928   -1.749598    0.000000
      4          8           0        0.034798    1.199883    0.000000
      5          1           0        0.323825    2.139015    0.000000
      6          1           0       -0.947310    1.168718    0.000000
 ---------------------------------------------------------------------

 SCF Done:  E(RHF) =  -33.6302541522     A.U. after   11 cycles
 E2 =    -0.2304167713D+00 EUMP2 =    -0.33860670923492D+02
 CCSD(T)
 CCSD(T)= -0.33878077560D+02

 The electronic state is 1-A'.
 Alpha  occ. eigenvalues --   -1.33375  -1.31847  -0.68935  -0.67627  -0.55278
 Alpha  occ. eigenvalues --   -0.48106  -0.47754  -0.45921
 Alpha virt. eigenvalues --    0.20843   0.24988   0.32206   0.32958   0.79098
 Alpha virt. eigenvalues --    0.81645   0.89173   0.91364   0.99774   1.13859
 Alpha virt. eigenvalues --    1.19294   1.22636   1.24165   1.28910   2.54692

 Mulliken charges:
               1
     1  O   -0.721602
     2  H    0.345551
     3  H    0.369043
     4  O   -0.690912
     5  H    0.345673
     6  H    0.352247
 Sum of Mulliken charges =   0.00000

 Dipole moment (field-independent basis, Debye):
    X=             -1.4636    Y=             -0.5680    Z=              0.0000  Tot=              1.5699
 Quadrupole moment (field-independent basis, Debye-Ang):
   XX=             -8.9652   YY=             -1.2635   ZZ=            -14.9963
   XY=             -1.2361   XZ=              0.0000   YZ=              0.0000

 MP4DQ=-33.8720995\MP4SDQ=-33.8742553\CCSD=-33.8753296\CCSD(T)=-33.8780
 Normal termination of Gaussian 16 at Sun Dec 10 06:38:28 2023.
