 Gaussian 16, Revision A.03,
 Gaussian 16:  ES64L-G16RevA.03 25-Dec-2016

 ------------------
 #p CCSD(T)/CEP-31G
 ------------------

 -----------
 H2O_H2O_907
 -----------
 Symbolic Z-matrix:
 Charge =  0 Multiplicity = 1

                         Standard orientation:
 ---------------------------------------------------------------------
 Center     Atomic      Atomic             Coordinates (Angstroms)
 Number     Number       Type             X           Y           Z
 ---------------------------------------------------------------------
      1          8           0        0.025271   -1.275899    0.000000
      2          1           0       -0.775268   -1.845674    0.000000
      3          1           0        0.823871   -1.848387    0.000000
      4          8           0        0.025271    1.287593    0.000000
      5          1           0        0.491247    2.152678    0.000000
      6          1           0       -0.944178    1.447829    0.000000
 ---------------------------------------------------------------------

 SCF Done:  E(RHF) =  -33.6343635049     A.U. after   11 cycles
 E2 =    -0.2298995151D+00 EUMP2 =    -0.33864263019974D+02
 CCSD(T)
 CCSD(T)= -0.33881690117D+02

 The electronic state is 1-A'.
 Alpha  occ. eigenvalues --   -1.33082  -1.32291  -0.68648  -0.67949  -0.54593
 Alpha  occ. eigenvalues --   -0.48720  -0.47762  -0.46397
 Alpha virt. eigenvalues --    0.21154   0.24157   0.32400   0.32785   0.79247
 Alpha virt. eigenvalues --    0.80544   0.86555   0.88386   1.00570   1.13009
 Alpha virt. eigenvalues --    1.19414   1.22341   1.24148   1.25648   2.56333

 Mulliken charges:
               1
     1  O   -0.709609
     2  H    0.346258
     3  H    0.361038
     4  O   -0.698223
     5  H    0.347728
     6  H    0.352809
 Sum of Mulliken charges =  -0.00000

 Dipole moment (field-independent basis, Debye):
    X=             -1.0874    Y=             -0.2852    Z=              0.0000  Tot=              1.1242
 Quadrupole moment (field-independent basis, Debye-Ang):
   XX=             -8.6120   YY=              0.2478   ZZ=            -14.9923
   XY=             -0.9115   XZ=              0.0000   YZ=              0.0000

 4DQ=-33.8757828\MP4SDQ=-33.8779005\CCSD=-33.8789898\CCSD(T)=-33.881690
 Normal termination of Gaussian 16 at Sun Dec 10 06:41:43 2023.
