 Gaussian 16, Revision A.03,
 Gaussian 16:  ES64L-G16RevA.03 25-Dec-2016

 ------------------
 #p CCSD(T)/CEP-31G
 ------------------

 ------------
 H2O_H2O_3527
 ------------
 Symbolic Z-matrix:
 Charge =  0 Multiplicity = 1

                         Standard orientation:
 ---------------------------------------------------------------------
 Center     Atomic      Atomic             Coordinates (Angstroms)
 Number     Number       Type             X           Y           Z
 ---------------------------------------------------------------------
      1          8           0        0.007455   -2.677793    0.000000
      2          1           0       -0.792253   -3.248734    0.000000
      3          1           0        0.806889   -3.249117    0.000000
      4          8           0        0.007455    2.678767    0.000000
      5          1           0        0.725799    3.349206    0.000000
      6          1           0       -0.859713    3.140856    0.000000
 ---------------------------------------------------------------------

 SCF Done:  E(RHF) =  -33.6498369296     A.U. after   11 cycles
 E2 =    -0.2284871485D+00 EUMP2 =    -0.33878324078070D+02
 CCSD(T)
 CCSD(T)= -0.33895380573D+02

 The electronic state is 1-A'.
 Alpha  occ. eigenvalues --   -1.34764  -1.34754  -0.70389  -0.70379  -0.54393
 Alpha  occ. eigenvalues --   -0.54372  -0.49306  -0.49296
 Alpha virt. eigenvalues --    0.20887   0.20924   0.31128   0.31140   0.81241
 Alpha virt. eigenvalues --    0.81263   0.84239   0.84714   0.87478   0.87524
 Alpha virt. eigenvalues --    1.18055   1.18065   1.22529   1.22541   2.58114

 Mulliken charges:
               1
     1  O   -0.734246
     2  H    0.366814
     3  H    0.367432
     4  O   -0.734221
     5  H    0.366701
     6  H    0.367520
 Sum of Mulliken charges =  -0.00000

 Dipole moment (field-independent basis, Debye):
    X=             -0.3434    Y=             -0.0229    Z=              0.0000  Tot=              0.3441
 Quadrupole moment (field-independent basis, Debye-Ang):
   XX=             -8.0864   YY=             16.2711   ZZ=            -14.9859
   XY=             -0.6955   XZ=              0.0000   YZ=              0.0000

 P4DQ=-33.889721\MP4SDQ=-33.891754\CCSD=-33.8928127\CCSD(T)=-33.8953806
 Normal termination of Gaussian 16 at Sun Dec 10 06:43:23 2023.
