 Gaussian 16, Revision A.03,
 Gaussian 16:  ES64L-G16RevA.03 25-Dec-2016

 ------------------
 #p CCSD(T)/CEP-31G
 ------------------

 -----------
 H2O_H2O_340
 -----------
 Symbolic Z-matrix:
 Charge =  0 Multiplicity = 1

                         Standard orientation:
 ---------------------------------------------------------------------
 Center     Atomic      Atomic             Coordinates (Angstroms)
 Number     Number       Type             X           Y           Z
 ---------------------------------------------------------------------
      1          8           0        0.047594   -0.949086    0.000000
      2          1           0       -0.754366   -1.516858    0.000000
      3          1           0        0.844761   -1.523568    0.000000
      4          8           0        0.047594    0.999452    0.000000
      5          1           0        0.021054    1.981696    0.000000
      6          1           0       -0.872953    0.655797    0.000000
 ---------------------------------------------------------------------

 SCF Done:  E(RHF) =  -33.5915802577     A.U. after   11 cycles
 E2 =    -0.2328507255D+00 EUMP2 =    -0.33824430983290D+02
 CCSD(T)
 CCSD(T)= -0.33841608064D+02

 The electronic state is 1-A'.
 Alpha  occ. eigenvalues --   -1.35599  -1.30298  -0.71359  -0.68268  -0.55925
 Alpha  occ. eigenvalues --   -0.50199  -0.44374  -0.44370
 Alpha virt. eigenvalues --    0.20094   0.27544   0.31126   0.33664   0.79722
 Alpha virt. eigenvalues --    0.84857   0.89903   0.96563   0.98966   1.16766
 Alpha virt. eigenvalues --    1.19541   1.25072   1.26356   1.32701   2.56466

 Mulliken charges:
               1
     1  O   -0.766995
     2  H    0.348713
     3  H    0.394333
     4  O   -0.659161
     5  H    0.328668
     6  H    0.354443
 Sum of Mulliken charges =  -0.00000

 Dipole moment (field-independent basis, Debye):
    X=             -1.8474    Y=             -1.2500    Z=              0.0000  Tot=              2.2305
 Quadrupole moment (field-independent basis, Debye-Ang):
   XX=             -9.5910   YY=             -4.9856   ZZ=            -14.9896
   XY=             -1.5918   XZ=              0.0000   YZ=              0.0000

 MP4DQ=-33.8352956\MP4SDQ=-33.8376646\CCSD=-33.838584\CCSD(T)=-33.84160
 Normal termination of Gaussian 16 at Sun Dec 10 06:31:08 2023.
