 Gaussian 16, Revision A.03,
 Gaussian 16:  ES64L-G16RevA.03 25-Dec-2016

 ------------------
 #p CCSD(T)/CEP-31G
 ------------------

 ------------
 H2O_H2O_4861
 ------------
 Symbolic Z-matrix:
 Charge =  0 Multiplicity = 1

                         Standard orientation:
 ---------------------------------------------------------------------
 Center     Atomic      Atomic             Coordinates (Angstroms)
 Number     Number       Type             X           Y           Z
 ---------------------------------------------------------------------
      1          8           0        0.037671   -3.367650    0.000000
      2          1           0       -0.762447   -3.938015    0.000000
      3          1           0        0.836694   -3.939548    0.000000
      4          8           0        0.037671    3.395924    0.000000
      5          1           0        0.263164    4.352303    0.000000
      6          1           0       -0.940146    3.299066    0.000000
 ---------------------------------------------------------------------

 SCF Done:  E(RHF) =  -33.6511394177     A.U. after   11 cycles
 E2 =    -0.2284150261D+00 EUMP2 =    -0.33879554443735D+02
 CCSD(T)
 CCSD(T)= -0.33896573522D+02

 The electronic state is 1-A'.
 Alpha  occ. eigenvalues --   -1.35240  -1.35055  -0.70869  -0.70681  -0.54938
 Alpha  occ. eigenvalues --   -0.54753  -0.49801  -0.49617
 Alpha virt. eigenvalues --    0.20496   0.20683   0.30731   0.30913   0.80752
 Alpha virt. eigenvalues --    0.80934   0.83839   0.84021   0.86928   0.87137
 Alpha virt. eigenvalues --    1.17634   1.17817   1.22098   1.22282   2.57667

 Mulliken charges:
               1
     1  O   -0.738805
     2  H    0.368596
     3  H    0.370208
     4  O   -0.738621
     5  H    0.368019
     6  H    0.370602
 Sum of Mulliken charges =  -0.00000

 Dipole moment (field-independent basis, Debye):
    X=             -1.7398    Y=             -0.6601    Z=              0.0000  Tot=              1.8608
 Quadrupole moment (field-independent basis, Debye-Ang):
   XX=             -8.9574   YY=             20.2547   ZZ=            -14.9875
   XY=             -5.0506   XZ=              0.0000   YZ=              0.0000

 \MP4DQ=-33.8909243\MP4SDQ=-33.8929537\CCSD=-33.8940104\CCSD(T)=-33.896
 Normal termination of Gaussian 16 at Sun Dec 10 07:09:16 2023.
