 Gaussian 16, Revision A.03,
 Gaussian 16:  ES64L-G16RevA.03 25-Dec-2016

 ------------------
 #p CCSD(T)/CEP-31G
 ------------------

 ------------
 H2O_H2O_2524
 ------------
 Symbolic Z-matrix:
 Charge =  0 Multiplicity = 1

                         Standard orientation:
 ---------------------------------------------------------------------
 Center     Atomic      Atomic             Coordinates (Angstroms)
 Number     Number       Type             X           Y           Z
 ---------------------------------------------------------------------
      1          8           0        0.057245   -2.071298    0.000000
      2          1           0       -0.743643   -2.640581    0.000000
      3          1           0        0.855494   -2.644276    0.000000
      4          8           0        0.057245    2.185260    0.000000
      5          1           0       -0.512038    2.986149    0.000000
      6          1           0       -0.515733    1.387010    0.000000
 ---------------------------------------------------------------------

 SCF Done:  E(RHF) =  -33.6532811220     A.U. after   11 cycles
 E2 =    -0.2284469124D+00 EUMP2 =    -0.33881728034406D+02
 CCSD(T)
 CCSD(T)= -0.33898689890D+02

 The electronic state is 1-A'.
 Alpha  occ. eigenvalues --   -1.36008  -1.34017  -0.71647  -0.69598  -0.55831
 Alpha  occ. eigenvalues --   -0.53776  -0.50600  -0.48608
 Alpha virt. eigenvalues --    0.19446   0.22214   0.30040   0.32215   0.79934
 Alpha virt. eigenvalues --    0.81895   0.81927   0.85454   0.85940   0.89389
 Alpha virt. eigenvalues --    1.16949   1.19193   1.21347   1.24647   2.56630

 Mulliken charges:
               1
     1  O   -0.745896
     2  H    0.369212
     3  H    0.377215
     4  O   -0.745620
     5  H    0.361646
     6  H    0.383443
 Sum of Mulliken charges =  -0.00000

 Dipole moment (field-independent basis, Debye):
    X=             -2.6212    Y=             -2.7417    Z=              0.0000  Tot=              3.7931
 Quadrupole moment (field-independent basis, Debye-Ang):
   XX=            -10.1561   YY=              0.8591   ZZ=            -14.9923
   XY=             -5.9858   XZ=              0.0000   YZ=              0.0000

 \MP4DQ=-33.8930409\MP4SDQ=-33.8950775\CCSD=-33.8961214\CCSD(T)=-33.898
 Normal termination of Gaussian 16 at Sun Dec 10 06:25:10 2023.
