 Gaussian 16, Revision A.03,
 Gaussian 16:  ES64L-G16RevA.03 25-Dec-2016

 ------------------
 #p CCSD(T)/CEP-31G
 ------------------

 -----------
 H2O_H2O_547
 -----------
 Symbolic Z-matrix:
 Charge =  0 Multiplicity = 1

                         Standard orientation:
 ---------------------------------------------------------------------
 Center     Atomic      Atomic             Coordinates (Angstroms)
 Number     Number       Type             X           Y           Z
 ---------------------------------------------------------------------
      1          8           0        0.056848   -1.029147    0.000000
      2          1           0       -0.745296   -1.596660    0.000000
      3          1           0        0.853830   -1.603887    0.000000
      4          8           0        0.056848    1.127951    0.000000
      5          1           0       -0.401108    1.997309    0.000000
      6          1           0       -0.617002    0.412806    0.000000
 ---------------------------------------------------------------------

 SCF Done:  E(RHF) =  -33.6221143678     A.U. after   11 cycles
 E2 =    -0.2313327587D+00 EUMP2 =    -0.33853447126500D+02
 CCSD(T)
 CCSD(T)= -0.33869974795D+02

 The electronic state is 1-A'.
 Alpha  occ. eigenvalues --   -1.37734  -1.30106  -0.73644  -0.69622  -0.52766
 Alpha  occ. eigenvalues --   -0.52094  -0.50117  -0.44560
 Alpha virt. eigenvalues --    0.18916   0.28074   0.29100   0.36902   0.77094
 Alpha virt. eigenvalues --    0.84621   0.89847   0.93669   0.98670   1.13982
 Alpha virt. eigenvalues --    1.18807   1.20806   1.27882   1.31415   2.77896

 Mulliken charges:
               1
     1  O   -0.790502
     2  H    0.367609
     3  H    0.423450
     4  O   -0.699984
     5  H    0.317296
     6  H    0.382132
 Sum of Mulliken charges =  -0.00000

 Dipole moment (field-independent basis, Debye):
    X=             -2.3003    Y=             -2.6848    Z=              0.0000  Tot=              3.5355
 Quadrupole moment (field-independent basis, Debye-Ang):
   XX=            -10.0843   YY=             -5.2993   ZZ=            -14.9985
   XY=             -2.9116   XZ=              0.0000   YZ=              0.0000

 4DQ=-33.8638062\MP4SDQ=-33.8661021\CCSD=-33.8669864\CCSD(T)=-33.869974
 Normal termination of Gaussian 16 at Sun Dec 10 06:34:58 2023.
