 Gaussian 16, Revision A.03,
 Gaussian 16:  ES64L-G16RevA.03 25-Dec-2016

 ------------------
 #p CCSD(T)/CEP-31G
 ------------------

 ------------
 H2O_H2O_3054
 ------------
 Symbolic Z-matrix:
 Charge =  0 Multiplicity = 1

                         Standard orientation:
 ---------------------------------------------------------------------
 Center     Atomic      Atomic             Coordinates (Angstroms)
 Number     Number       Type             X           Y           Z
 ---------------------------------------------------------------------
      1          8           0        0.014783   -2.423594    0.000000
      2          1           0       -0.785088   -2.994307    0.000000
      3          1           0        0.814054   -2.995146    0.000000
      4          8           0        0.014783    2.427471    0.000000
      5          1           0        0.639688    3.185758    0.000000
      6          1           0       -0.905183    2.772681    0.000000
 ---------------------------------------------------------------------

 SCF Done:  E(RHF) =  -33.6492546465     A.U. after   11 cycles
 E2 =    -0.2285274041D+00 EUMP2 =    -0.33877782050630D+02
 CCSD(T)
 CCSD(T)= -0.33894855537D+02

 The electronic state is 1-A'.
 Alpha  occ. eigenvalues --   -1.34623  -1.34573  -0.70247  -0.70195  -0.54229
 Alpha  occ. eigenvalues --   -0.54144  -0.49157  -0.49107
 Alpha virt. eigenvalues --    0.20965   0.21106   0.31236   0.31288   0.81363
 Alpha virt. eigenvalues --    0.81476   0.83754   0.85639   0.87611   0.87844
 Alpha virt. eigenvalues --    1.18173   1.18222   1.22650   1.22706   2.58252

 Mulliken charges:
               1
     1  O   -0.732266
     2  H    0.365331
     3  H    0.366936
     4  O   -0.732113
     5  H    0.365013
     6  H    0.367099
 Sum of Mulliken charges =  -0.00000

 Dipole moment (field-independent basis, Debye):
    X=             -0.6795    Y=             -0.0918    Z=              0.0000  Tot=              0.6857
 Quadrupole moment (field-independent basis, Debye-Ang):
   XX=             -8.2007   YY=             13.3240   ZZ=            -14.9855
   XY=             -1.2254   XZ=              0.0000   YZ=              0.0000

 P4DQ=-33.8891908\MP4SDQ=-33.8912257\CCSD=-33.892285\CCSD(T)=-33.894855
 Normal termination of Gaussian 16 at Sun Dec 10 06:34:54 2023.
