 Gaussian 16, Revision A.03,
 Gaussian 16:  ES64L-G16RevA.03 25-Dec-2016

 ------------------
 #p CCSD(T)/CEP-31G
 ------------------

 ------------
 H2O_H2O_3562
 ------------
 Symbolic Z-matrix:
 Charge =  0 Multiplicity = 1

                         Standard orientation:
 ---------------------------------------------------------------------
 Center     Atomic      Atomic             Coordinates (Angstroms)
 Number     Number       Type             X           Y           Z
 ---------------------------------------------------------------------
      1          8           0        0.040407   -2.673504    0.000000
      2          1           0       -0.759902   -3.243603    0.000000
      3          1           0        0.839239   -3.245669    0.000000
      4          8           0        0.040407    2.706856    0.000000
      5          1           0        0.203190    3.675881    0.000000
      6          1           0       -0.929035    2.546578    0.000000
 ---------------------------------------------------------------------

 SCF Done:  E(RHF) =  -33.6505894968     A.U. after   11 cycles
 E2 =    -0.2284595474D+00 EUMP2 =    -0.33879049044281D+02
 CCSD(T)
 CCSD(T)= -0.33896084001D+02

 The electronic state is 1-A'.
 Alpha  occ. eigenvalues --   -1.35079  -1.34729  -0.70707  -0.70346  -0.54746
 Alpha  occ. eigenvalues --   -0.54395  -0.49632  -0.49284
 Alpha virt. eigenvalues --    0.20624   0.20984   0.30860   0.31201   0.80921
 Alpha virt. eigenvalues --    0.81264   0.83986   0.84474   0.87125   0.87558
 Alpha virt. eigenvalues --    1.17772   1.18118   1.22240   1.22588   2.57817

 Mulliken charges:
               1
     1  O   -0.736921
     2  H    0.366828
     3  H    0.370093
     4  O   -0.736326
     5  H    0.365617
     6  H    0.370709
 Sum of Mulliken charges =  -0.00000

 Dipole moment (field-independent basis, Debye):
    X=             -1.8610    Y=             -0.7848    Z=              0.0000  Tot=              2.0197
 Quadrupole moment (field-independent basis, Debye-Ang):
   XX=             -9.1005   YY=             13.2437   ZZ=            -14.9871
   XY=             -4.2102   XZ=              0.0000   YZ=              0.0000

 MP4DQ=-33.8904303\MP4SDQ=-33.8924614\CCSD=-33.8935184\CCSD(T)=-33.8960
 Normal termination of Gaussian 16 at Sun Dec 10 06:44:01 2023.
