 Gaussian 16, Revision A.03,
 Gaussian 16:  ES64L-G16RevA.03 25-Dec-2016

 ------------------
 #p CCSD(T)/CEP-31G
 ------------------

 ------------
 H2O_H2O_3401
 ------------
 Symbolic Z-matrix:
 Charge =  0 Multiplicity = 1

                         Standard orientation:
 ---------------------------------------------------------------------
 Center     Atomic      Atomic             Coordinates (Angstroms)
 Number     Number       Type             X           Y           Z
 ---------------------------------------------------------------------
      1          8           0        0.003735   -2.611710    0.000000
      2          1           0       -0.795906   -3.182744    0.000000
      3          1           0        0.803236   -3.182941    0.000000
      4          8           0        0.003735    2.611954    0.000000
      5          1           0        0.764318    3.234064    0.000000
      6          1           0       -0.831414    3.129672    0.000000
 ---------------------------------------------------------------------

 SCF Done:  E(RHF) =  -33.6496662172     A.U. after   10 cycles
 E2 =    -0.2284971237D+00 EUMP2 =    -0.33878163340892D+02
 CCSD(T)
 CCSD(T)= -0.33895224773D+02

 The electronic state is 1-A'.
 Alpha  occ. eigenvalues --   -1.34715  -1.34712  -0.70340  -0.70337  -0.54341
 Alpha  occ. eigenvalues --   -0.54314  -0.49255  -0.49252
 Alpha virt. eigenvalues --    0.20917   0.20967   0.31165   0.31174   0.81284
 Alpha virt. eigenvalues --    0.81315   0.84189   0.84900   0.87520   0.87591
 Alpha virt. eigenvalues --    1.18097   1.18100   1.22569   1.22580   2.58157

 Mulliken charges:
               1
     1  O   -0.733658
     2  H    0.366663
     3  H    0.366995
     4  O   -0.733651
     5  H    0.366608
     6  H    0.367043
 Sum of Mulliken charges =   0.00000

 Dipole moment (field-independent basis, Debye):
    X=             -0.1720    Y=             -0.0057    Z=              0.0000  Tot=              0.1721
 Quadrupole moment (field-independent basis, Debye-Ang):
   XX=             -8.0621   YY=             15.6237   ZZ=            -14.9858
   XY=             -0.3365   XZ=              0.0000   YZ=              0.0000

 \MP4DQ=-33.8895638\MP4SDQ=-33.8915973\CCSD=-33.8926562\CCSD(T)=-33.895
 Normal termination of Gaussian 16 at Sun Dec 10 06:41:05 2023.
