 Gaussian 16, Revision A.03,
 Gaussian 16:  ES64L-G16RevA.03 25-Dec-2016

 ------------------
 #p CCSD(T)/CEP-31G
 ------------------

 ------------
 H2O_H2O_4648
 ------------
 Symbolic Z-matrix:
 Charge =  0 Multiplicity = 1

                         Standard orientation:
 ---------------------------------------------------------------------
 Center     Atomic      Atomic             Coordinates (Angstroms)
 Number     Number       Type             X           Y           Z
 ---------------------------------------------------------------------
      1          8           0        0.057071   -3.205459    0.000000
      2          1           0       -0.743359   -3.775386    0.000000
      3          1           0        0.855782   -3.777794    0.000000
      4          8           0        0.057071    3.312043    0.000000
      5          1           0       -0.459286    4.148034    0.000000
      6          1           0       -0.566277    2.552474    0.000000
 ---------------------------------------------------------------------

 SCF Done:  E(RHF) =  -33.6520175864     A.U. after   11 cycles
 E2 =    -0.2283709454D+00 EUMP2 =    -0.33880388531804D+02
 CCSD(T)
 CCSD(T)= -0.33897381983D+02

 The electronic state is 1-A'.
 Alpha  occ. eigenvalues --   -1.35699  -1.34963  -0.71332  -0.70585  -0.55446
 Alpha  occ. eigenvalues --   -0.54700  -0.50274  -0.49537
 Alpha virt. eigenvalues --    0.20086   0.20842   0.30327   0.31080   0.80278
 Alpha virt. eigenvalues --    0.81003   0.83280   0.84029   0.86400   0.87183
 Alpha virt. eigenvalues --    1.17213   1.17946   1.21669   1.22417   2.57224

 Mulliken charges:
               1
     1  O   -0.741949
     2  H    0.369738
     3  H    0.372212
     4  O   -0.741822
     5  H    0.367896
     6  H    0.373926
 Sum of Mulliken charges =   0.00000

 Dipole moment (field-independent basis, Debye):
    X=             -2.6341    Y=             -2.4912    Z=              0.0000  Tot=              3.6255
 Quadrupole moment (field-independent basis, Debye-Ang):
   XX=            -10.1566   YY=              8.1164   ZZ=            -14.9891
   XY=             -8.7789   XZ=              0.0000   YZ=              0.0000

 1\MP4DQ=-33.8917397\MP4SDQ=-33.8937667\CCSD=-33.8948215\CCSD(T)=-33.89
 Normal termination of Gaussian 16 at Sun Dec 10 07:05:19 2023.
