 Gaussian 16, Revision A.03,
 Gaussian 16:  ES64L-G16RevA.03 25-Dec-2016

 ------------------
 #p CCSD(T)/CEP-31G
 ------------------

 ------------
 H2O_H2O_3500
 ------------
 Symbolic Z-matrix:
 Charge =  0 Multiplicity = 1

                         Standard orientation:
 ---------------------------------------------------------------------
 Center     Atomic      Atomic             Coordinates (Angstroms)
 Number     Number       Type             X           Y           Z
 ---------------------------------------------------------------------
      1          8           0        0.000000   -0.000000    2.665027
      2          1           0        0.000000    0.799571    3.236159
      3          1           0       -0.000000   -0.799571    3.236159
      4          8           0        0.000000   -0.000000   -2.665027
      5          1           0       -0.000000   -0.799571   -3.236159
      6          1           0        0.000000    0.799571   -3.236159
 ---------------------------------------------------------------------

 SCF Done:  E(RHF) =  -33.6497852624     A.U. after   10 cycles
 E2 =    -0.2284895819D+00 EUMP2 =    -0.33878274844311D+02
 CCSD(T)
 CCSD(T)= -0.33895332821D+02

 The electronic state is 1-AG.
 Alpha  occ. eigenvalues --   -1.34747  -1.34747  -0.70372  -0.70371  -0.54377
 Alpha  occ. eigenvalues --   -0.54357  -0.49289  -0.49287
 Alpha virt. eigenvalues --    0.20896   0.20934   0.31140   0.31147   0.81254
 Alpha virt. eigenvalues --    0.81276   0.84236   0.84756   0.87490   0.87540
 Alpha virt. eigenvalues --    1.18070   1.18071   1.22542   1.22550   2.58127

 Mulliken charges:
               1
     1  O   -0.734065
     2  H    0.367033
     3  H    0.367033
     4  O   -0.734065
     5  H    0.367033
     6  H    0.367033
 Sum of Mulliken charges =  -0.00000

 Dipole moment (field-independent basis, Debye):
    X=             -0.0000    Y=              0.0000    Z=             -0.0000  Tot=              0.0000
 Quadrupole moment (field-independent basis, Debye-Ang):
   XX=            -14.9859   YY=             -8.0512   ZZ=             16.2177
   XY=              0.0000   XZ=              0.0000   YZ=             -0.0000

 3.8896728\MP4SDQ=-33.891706\CCSD=-33.8927648\CCSD(T)=-33.8953328\RMSD=
 Normal termination of Gaussian 16 at Sun Dec 10 06:42:53 2023.
