 Gaussian 16, Revision A.03,
 Gaussian 16:  ES64L-G16RevA.03 25-Dec-2016

 ------------------
 #p CCSD(T)/CEP-31G
 ------------------

 -----------
 H2O_H2O_353
 -----------
 Symbolic Z-matrix:
 Charge =  0 Multiplicity = 1

                         Standard orientation:
 ---------------------------------------------------------------------
 Center     Atomic      Atomic             Coordinates (Angstroms)
 Number     Number       Type             X           Y           Z
 ---------------------------------------------------------------------
      1          8           0        0.011143   -0.988561    0.000000
      2          1           0       -0.788981   -1.558918    0.000000
      3          1           0        0.810160   -1.560467    0.000000
      4          8           0        0.011143    0.990734    0.000000
      5          1           0        0.684622    1.706229    0.000000
      6          1           0       -0.884095    1.395772    0.000000
 ---------------------------------------------------------------------

 SCF Done:  E(RHF) =  -33.5869165780     A.U. after   11 cycles
 E2 =    -0.2327382034D+00 EUMP2 =    -0.33819654781447D+02
 CCSD(T)
 CCSD(T)= -0.33836758442D+02

 The electronic state is 1-A'.
 Alpha  occ. eigenvalues --   -1.33381  -1.30273  -0.68424  -0.66292  -0.59324
 Alpha  occ. eigenvalues --   -0.48342  -0.43869  -0.40473
 Alpha virt. eigenvalues --    0.21496   0.26278   0.32735   0.33474   0.78718
 Alpha virt. eigenvalues --    0.81007   0.90226   0.94342   1.04696   1.20188
 Alpha virt. eigenvalues --    1.21537   1.22811   1.26313   1.27774   2.48384

 Mulliken charges:
               1
     1  O   -0.701318
     2  H    0.343327
     3  H    0.356397
     4  O   -0.695255
     5  H    0.351003
     6  H    0.345846
 Sum of Mulliken charges =  -0.00000

 Dipole moment (field-independent basis, Debye):
    X=             -0.4290    Y=             -0.0518    Z=              0.0000  Tot=              0.4321
 Quadrupole moment (field-independent basis, Debye-Ang):
   XX=             -8.4227   YY=             -4.0731   ZZ=            -15.0278
   XY=             -0.2438   XZ=              0.0000   YZ=              0.0000

 P4DQ=-33.8304974\MP4SDQ=-33.8327934\CCSD=-33.833761\CCSD(T)=-33.836758
 Normal termination of Gaussian 16 at Sun Dec 10 06:31:22 2023.
