 Gaussian 16, Revision A.03,
 Gaussian 16:  ES64L-G16RevA.03 25-Dec-2016

 ------------------
 #p CCSD(T)/CEP-31G
 ------------------

 ------------
 H2O_H2O_4915
 ------------
 Symbolic Z-matrix:
 Charge =  0 Multiplicity = 1

                         Standard orientation:
 ---------------------------------------------------------------------
 Center     Atomic      Atomic             Coordinates (Angstroms)
 Number     Number       Type             X           Y           Z
 ---------------------------------------------------------------------
      1          8           0        0.047518   -3.382089    0.000000
      2          1           0       -0.752737   -3.952261    0.000000
      3          1           0        0.846404   -3.954180    0.000000
      4          8           0        0.047518    3.432740    0.000000
      5          1           0        0.018036    4.414899    0.000000
      6          1           0       -0.871995    3.086328    0.000000
 ---------------------------------------------------------------------

 SCF Done:  E(RHF) =  -33.6513980569     A.U. after   11 cycles
 E2 =    -0.2284025337D+00 EUMP2 =    -0.33879800590648D+02
 CCSD(T)
 CCSD(T)= -0.33896812166D+02

 The electronic state is 1-A'.
 Alpha  occ. eigenvalues --   -1.35376  -1.35052  -0.71007  -0.70676  -0.55089
 Alpha  occ. eigenvalues --   -0.54763  -0.49942  -0.49618
 Alpha virt. eigenvalues --    0.20374   0.20705   0.30611   0.30934   0.80611
 Alpha virt. eigenvalues --    0.80931   0.83673   0.83996   0.86771   0.87130
 Alpha virt. eigenvalues --    1.17509   1.17831   1.21970   1.22296   2.57535

 Mulliken charges:
               1
     1  O   -0.739731
     2  H    0.368887
     3  H    0.370844
     4  O   -0.739500
     5  H    0.368004
     6  H    0.371496
 Sum of Mulliken charges =  -0.00000

 Dipole moment (field-independent basis, Debye):
    X=             -2.1947    Y=             -1.1824    Z=              0.0000  Tot=              2.4929
 Quadrupole moment (field-independent basis, Debye-Ang):
   XX=             -9.5038   YY=             17.4046   ZZ=            -14.9880
   XY=             -6.7715   XZ=              0.0000   YZ=              0.0000

 3\MP4DQ=-33.891165\MP4SDQ=-33.8931937\CCSD=-33.8942499\CCSD(T)=-33.896
 Normal termination of Gaussian 16 at Sun Dec 10 07:10:16 2023.
