 Gaussian 16, Revision A.03,
 Gaussian 16:  ES64L-G16RevA.03 25-Dec-2016

 ------------------
 #p CCSD(T)/CEP-31G
 ------------------

 ------------
 H2O_H2O_4948
 ------------
 Symbolic Z-matrix:
 Charge =  0 Multiplicity = 1

                         Standard orientation:
 ---------------------------------------------------------------------
 Center     Atomic      Atomic             Coordinates (Angstroms)
 Number     Number       Type             X           Y           Z
 ---------------------------------------------------------------------
      1          8           0        0.057068   -3.365006    0.000000
      2          1           0       -0.743322   -3.934989    0.000000
      3          1           0        0.855818   -3.937284    0.000000
      4          8           0        0.057068    3.471598    0.000000
      5          1           0       -0.459348    4.307553    0.000000
      6          1           0       -0.566227    2.711985    0.000000
 ---------------------------------------------------------------------

 SCF Done:  E(RHF) =  -33.6519855752     A.U. after   11 cycles
 E2 =    -0.2283703815D+00 EUMP2 =    -0.33880355956771D+02
 CCSD(T)
 CCSD(T)= -0.33897350420D+02

 The electronic state is 1-A'.
 Alpha  occ. eigenvalues --   -1.35690  -1.35025  -0.71324  -0.70649  -0.55435
 Alpha  occ. eigenvalues --   -0.54762  -0.50265  -0.49599
 Alpha virt. eigenvalues --    0.20093   0.20775   0.30334   0.31013   0.80286
 Alpha virt. eigenvalues --    0.80943   0.83293   0.83969   0.86411   0.87115
 Alpha virt. eigenvalues --    1.17221   1.17883   1.21677   1.22352   2.57232

 Mulliken charges:
               1
     1  O   -0.741834
     2  H    0.369836
     3  H    0.371998
     4  O   -0.741733
     5  H    0.368248
     6  H    0.373485
 Sum of Mulliken charges =   0.00000

 Dipole moment (field-independent basis, Debye):
    X=             -2.6349    Y=             -2.4881    Z=              0.0000  Tot=              3.6240
 Quadrupole moment (field-independent basis, Debye-Ang):
   XX=            -10.1571   YY=              9.0263   ZZ=            -14.9890
   XY=             -9.1970   XZ=              0.0000   YZ=              0.0000

 \MP4DQ=-33.8917079\MP4SDQ=-33.8937349\CCSD=-33.89479\CCSD(T)=-33.89735
 Normal termination of Gaussian 16 at Sun Dec 10 07:10:53 2023.
