 Gaussian 16, Revision A.03,
 Gaussian 16:  ES64L-G16RevA.03 25-Dec-2016

 ------------------
 #p CCSD(T)/CEP-31G
 ------------------

 -----------
 H2O_H2O_826
 -----------
 Symbolic Z-matrix:
 Charge =  0 Multiplicity = 1

                         Standard orientation:
 ---------------------------------------------------------------------
 Center     Atomic      Atomic             Coordinates (Angstroms)
 Number     Number       Type             X           Y           Z
 ---------------------------------------------------------------------
      1          8           0        0.003735   -1.242232    0.000000
      2          1           0       -0.795983   -1.813157    0.000000
      3          1           0        0.803159   -1.813571    0.000000
      4          8           0        0.003735    1.242475    0.000000
      5          1           0        0.764402    1.864481    0.000000
      6          1           0       -0.831344    1.760305    0.000000
 ---------------------------------------------------------------------

 SCF Done:  E(RHF) =  -33.6295562061     A.U. after   11 cycles
 E2 =    -0.2300678913D+00 EUMP2 =    -0.33859624097377D+02
 CCSD(T)
 CCSD(T)= -0.33877048586D+02

 The electronic state is 1-A'.
 Alpha  occ. eigenvalues --   -1.32739  -1.31990  -0.68248  -0.67682  -0.54867
 Alpha  occ. eigenvalues --   -0.47482  -0.47462  -0.45967
 Alpha virt. eigenvalues --    0.21533   0.24203   0.32689   0.32973   0.79028
 Alpha virt. eigenvalues --    0.79528   0.88929   0.89770   1.05583   1.08719
 Alpha virt. eigenvalues --    1.19719   1.21429   1.24245   1.25419   2.55282

 Mulliken charges:
               1
     1  O   -0.699301
     2  H    0.348378
     3  H    0.350855
     4  O   -0.699002
     5  H    0.349442
     6  H    0.349628
 Sum of Mulliken charges =   0.00000

 Dipole moment (field-independent basis, Debye):
    X=             -0.1588    Y=             -0.0058    Z=              0.0000  Tot=              0.1589
 Quadrupole moment (field-independent basis, Debye-Ang):
   XX=             -8.2583   YY=             -0.0246   ZZ=            -14.9968
   XY=             -0.1155   XZ=              0.0000   YZ=              0.0000

 MP4DQ=-33.8711197\MP4SDQ=-33.8732282\CCSD=-33.8743214\CCSD(T)=-33.8770
 Normal termination of Gaussian 16 at Sun Dec 10 06:40:12 2023.
