 Gaussian 16, Revision A.03,
 Gaussian 16:  ES64L-G16RevA.03 25-Dec-2016

 ------------------
 #p CCSD(T)/CEP-31G
 ------------------

 ------------
 H2O_H2O_1044
 ------------
 Symbolic Z-matrix:
 Charge =  0 Multiplicity = 1

                         Standard orientation:
 ---------------------------------------------------------------------
 Center     Atomic      Atomic             Coordinates (Angstroms)
 Number     Number       Type             X           Y           Z
 ---------------------------------------------------------------------
      1          8           0        0.054216   -1.306836    0.000000
      2          1           0       -0.747326   -1.875197    0.000000
      3          1           0        0.851806   -1.880731    0.000000
      4          8           0        0.054216    1.383970    0.000000
      5          1           0       -0.226336    2.325669    0.000000
      6          1           0       -0.745600    0.813181    0.000000
 ---------------------------------------------------------------------

 SCF Done:  E(RHF) =  -33.6476170227     A.U. after   11 cycles
 E2 =    -0.2297762902D+00 EUMP2 =    -0.33877393312870D+02
 CCSD(T)
 CCSD(T)= -0.33894553449D+02

 The electronic state is 1-A'.
 Alpha  occ. eigenvalues --   -1.35490  -1.32118  -0.71150  -0.67980  -0.55014
 Alpha  occ. eigenvalues --   -0.51594  -0.50069  -0.46648
 Alpha virt. eigenvalues --    0.19506   0.25369   0.30482   0.33971   0.77806
 Alpha virt. eigenvalues --    0.80533   0.87206   0.87697   0.92436   1.15512
 Alpha virt. eigenvalues --    1.18882   1.20628   1.22519   1.29310   2.62950

 Mulliken charges:
               1
     1  O   -0.747935
     2  H    0.358760
     3  H    0.387560
     4  O   -0.718710
     5  H    0.339709
     6  H    0.380616
 Sum of Mulliken charges =  -0.00000

 Dipole moment (field-independent basis, Debye):
    X=             -2.3624    Y=             -1.9645    Z=              0.0000  Tot=              3.0725
 Quadrupole moment (field-independent basis, Debye-Ang):
   XX=             -9.9294   YY=             -1.6358   ZZ=            -14.9961
   XY=             -3.1346   XZ=              0.0000   YZ=              0.0000

 MP4DQ=-33.8886771\MP4SDQ=-33.890822\CCSD=-33.8918554\CCSD(T)=-33.89455
 Normal termination of Gaussian 16 at Sun Dec 10 06:44:16 2023.
