 Gaussian 16, Revision A.03,
 Gaussian 16:  ES64L-G16RevA.03 25-Dec-2016

 ------------------
 #p CCSD(T)/CEP-31G
 ------------------

 -----------
 H2O_H2O_772
 -----------
 Symbolic Z-matrix:
 Charge =  0 Multiplicity = 1

                         Standard orientation:
 ---------------------------------------------------------------------
 Center     Atomic      Atomic             Coordinates (Angstroms)
 Number     Number       Type             X           Y           Z
 ---------------------------------------------------------------------
      1          8           0        0.056826   -1.148784    0.000000
      2          1           0       -0.745062   -1.716658    0.000000
      3          1           0        0.854067   -1.723164    0.000000
      4          8           0        0.056826    1.247639    0.000000
      5          1           0       -0.401523    2.116790    0.000000
      6          1           0       -0.616701    0.532190    0.000000
 ---------------------------------------------------------------------

 SCF Done:  E(RHF) =  -33.6424838562     A.U. after   11 cycles
 E2 =    -0.2304198999D+00 EUMP2 =    -0.33872903756048D+02
 CCSD(T)
 CCSD(T)= -0.33889718275D+02

 The electronic state is 1-A'.
 Alpha  occ. eigenvalues --   -1.36846  -1.30974  -0.72552  -0.68456  -0.54755
 Alpha  occ. eigenvalues --   -0.51406  -0.50875  -0.45499
 Alpha virt. eigenvalues --    0.18989   0.27033   0.29515   0.36328   0.76827
 Alpha virt. eigenvalues --    0.83219   0.88835   0.90111   0.97782   1.12843
 Alpha virt. eigenvalues --    1.19364   1.19526   1.25337   1.31068   2.70881

 Mulliken charges:
               1
     1  O   -0.776177
     2  H    0.366099
     3  H    0.410276
     4  O   -0.717265
     5  H    0.328659
     6  H    0.388408
 Sum of Mulliken charges =  -0.00000

 Dipole moment (field-independent basis, Debye):
    X=             -2.3945    Y=             -2.6197    Z=              0.0000  Tot=              3.5492
 Quadrupole moment (field-independent basis, Debye-Ang):
   XX=            -10.0883   YY=             -4.1023   ZZ=            -15.0051
   XY=             -3.2571   XZ=              0.0000   YZ=              0.0000

 DQ=-33.883709\MP4SDQ=-33.8859198\CCSD=-33.8868802\CCSD(T)=-33.8897183\
 Normal termination of Gaussian 16 at Sun Dec 10 06:39:10 2023.
