 Gaussian 16, Revision A.03,
 Gaussian 16:  ES64L-G16RevA.03 25-Dec-2016

 ------------------
 #p CCSD(T)/CEP-31G
 ------------------

 ------------
 H2O_H2O_3994
 ------------
 Symbolic Z-matrix:
 Charge =  0 Multiplicity = 1

                         Standard orientation:
 ---------------------------------------------------------------------
 Center     Atomic      Atomic             Coordinates (Angstroms)
 Number     Number       Type             X           Y           Z
 ---------------------------------------------------------------------
      1          8           0        0.054144   -2.875648    0.000000
      2          1           0       -0.746338   -3.445502    0.000000
      3          1           0        0.852802   -3.448056    0.000000
      4          8           0        0.054144    2.952985    0.000000
      5          1           0       -0.228162    3.894159    0.000000
      6          1           0       -0.744607    2.380706    0.000000
 ---------------------------------------------------------------------

 SCF Done:  E(RHF) =  -33.6516216971     A.U. after   11 cycles
 E2 =    -0.2284015824D+00 EUMP2 =    -0.33880023279492D+02
 CCSD(T)
 CCSD(T)= -0.33897028176D+02

 The electronic state is 1-A'.
 Alpha  occ. eigenvalues --   -1.35503  -1.34819  -0.71135  -0.70436  -0.55229
 Alpha  occ. eigenvalues --   -0.54537  -0.50072  -0.49388
 Alpha virt. eigenvalues --    0.20258   0.20963   0.30498   0.31188   0.80481
 Alpha virt. eigenvalues --    0.81153   0.83515   0.84210   0.86626   0.87386
 Alpha virt. eigenvalues --    1.17392   1.18071   1.21851   1.22542   2.57412

 Mulliken charges:
               1
     1  O   -0.740554
     2  H    0.368593
     3  H    0.371962
     4  O   -0.740112
     5  H    0.366620
     6  H    0.373492
 Sum of Mulliken charges =  -0.00000

 Dipole moment (field-independent basis, Debye):
    X=             -2.4966    Y=             -1.8143    Z=              0.0000  Tot=              3.0863
 Quadrupole moment (field-independent basis, Debye-Ang):
   XX=             -9.9414   YY=             10.0117   ZZ=            -14.9886
   XY=             -6.9615   XZ=              0.0000   YZ=              0.0000

 \MP4DQ=-33.8913827\MP4SDQ=-33.8934109\CCSD=-33.8944661\CCSD(T)=-33.897
 Normal termination of Gaussian 16 at Sun Dec 10 06:51:59 2023.
