 Gaussian 16, Revision A.03,
 Gaussian 16:  ES64L-G16RevA.03 25-Dec-2016

 ------------------
 #p CCSD(T)/CEP-31G
 ------------------

 ------------
 H2O_H2O_3309
 ------------
 Symbolic Z-matrix:
 Charge =  0 Multiplicity = 1

                         Standard orientation:
 ---------------------------------------------------------------------
 Center     Atomic      Atomic             Coordinates (Angstroms)
 Number     Number       Type             X           Y           Z
 ---------------------------------------------------------------------
      1          8           0        0.031741   -2.548240    0.000000
      2          1           0       -0.768440   -3.118518    0.000000
      3          1           0        0.830701   -3.120226    0.000000
      4          8           0        0.031741    2.567423    0.000000
      5          1           0        0.380237    3.486149    0.000000
      6          1           0       -0.950349    2.599132    0.000000
 ---------------------------------------------------------------------

 SCF Done:  E(RHF) =  -33.6500233194     A.U. after   11 cycles
 E2 =    -0.2284898475D+00 EUMP2 =    -0.33878513166913D+02
 CCSD(T)
 CCSD(T)= -0.33895564527D+02

 The electronic state is 1-A'.
 Alpha  occ. eigenvalues --   -1.34878  -1.34655  -0.70504  -0.70273  -0.54513
 Alpha  occ. eigenvalues --   -0.54288  -0.49423  -0.49201
 Alpha virt. eigenvalues --    0.20788   0.21030   0.31028   0.31242   0.81128
 Alpha virt. eigenvalues --    0.81350   0.84001   0.84849   0.87363   0.87686
 Alpha virt. eigenvalues --    1.17950   1.18169   1.22423   1.22643   2.58008

 Mulliken charges:
               1
     1  O   -0.734945
     2  H    0.365990
     3  H    0.368956
     4  O   -0.734434
     5  H    0.365101
     6  H    0.369332
 Sum of Mulliken charges =   0.00000

 Dipole moment (field-independent basis, Debye):
    X=             -1.4605    Y=             -0.4526    Z=              0.0000  Tot=              1.5290
 Quadrupole moment (field-independent basis, Debye-Ang):
   XX=             -8.7007   YY=             13.3587   ZZ=            -14.9864
   XY=             -2.9735   XZ=              0.0000   YZ=              0.0000

 \MP4DQ=-33.8899062\MP4SDQ=-33.8919389\CCSD=-33.8929968\CCSD(T)=-33.895
 Normal termination of Gaussian 16 at Sun Dec 10 06:39:25 2023.
