 Gaussian 16, Revision A.03,
 Gaussian 16:  ES64L-G16RevA.03 25-Dec-2016

 ------------------
 #p CCSD(T)/CEP-31G
 ------------------

 ------------
 H2O_H2O_1878
 ------------
 Symbolic Z-matrix:
 Charge =  0 Multiplicity = 1

                         Standard orientation:
 ---------------------------------------------------------------------
 Center     Atomic      Atomic             Coordinates (Angstroms)
 Number     Number       Type             X           Y           Z
 ---------------------------------------------------------------------
      1          8           0        0.011143   -1.799606    0.000000
      2          1           0       -0.788732   -2.370312    0.000000
      3          1           0        0.810410   -2.371164    0.000000
      4          8           0        0.011143    1.801789    0.000000
      5          1           0        0.684309    2.517578    0.000000
      6          1           0       -0.884272    2.206436    0.000000
 ---------------------------------------------------------------------

 SCF Done:  E(RHF) =  -33.6455441316     A.U. after   11 cycles
 E2 =    -0.2288385969D+00 EUMP2 =    -0.33874382728472D+02
 CCSD(T)
 CCSD(T)= -0.33891578095D+02

 The electronic state is 1-A'.
 Alpha  occ. eigenvalues --   -1.33885  -1.33822  -0.69505  -0.69437  -0.53685
 Alpha  occ. eigenvalues --   -0.52732  -0.48415  -0.48258
 Alpha virt. eigenvalues --    0.21079   0.22101   0.31686   0.31954   0.77302
 Alpha virt. eigenvalues --    0.81032   0.83383   0.85862   0.91248   0.98067
 Alpha virt. eigenvalues --    1.18768   1.18845   1.23146   1.23560   2.58242

 Mulliken charges:
               1
     1  O   -0.720158
     2  H    0.358740
     3  H    0.361437
     4  O   -0.719835
     5  H    0.358345
     6  H    0.361472
 Sum of Mulliken charges =  -0.00000

 Dipole moment (field-independent basis, Debye):
    X=             -0.5066    Y=             -0.0537    Z=              0.0000  Tot=              0.5095
 Quadrupole moment (field-independent basis, Debye-Ang):
   XX=             -8.1964   YY=              6.6919   ZZ=            -14.9835
   XY=             -0.6151   XZ=              0.0000   YZ=              0.0000

 \MP4DQ=-33.8858573\MP4SDQ=-33.8879191\CCSD=-33.8889794\CCSD(T)=-33.891
 Normal termination of Gaussian 16 at Sun Dec 10 06:59:46 2023.
