 Gaussian 16, Revision A.03,
 Gaussian 16:  ES64L-G16RevA.03 25-Dec-2016

 ------------------
 #p CCSD(T)/CEP-31G
 ------------------

 ------------
 H2O_H2O_1681
 ------------
 Symbolic Z-matrix:
 Charge =  0 Multiplicity = 1

                         Standard orientation:
 ---------------------------------------------------------------------
 Center     Atomic      Atomic             Coordinates (Angstroms)
 Number     Number       Type             X           Y           Z
 ---------------------------------------------------------------------
      1          8           0        0.021861   -1.689728    0.000000
      2          1           0       -0.778344   -2.259972    0.000000
      3          1           0        0.820797   -2.261748    0.000000
      4          8           0        0.021861    1.698375    0.000000
      5          1           0        0.542932    2.531437    0.000000
      6          1           0       -0.935162    1.921113    0.000000
 ---------------------------------------------------------------------

 SCF Done:  E(RHF) =  -33.6448106356     A.U. after   11 cycles
 E2 =    -0.2289525543D+00 EUMP2 =    -0.33873763189934D+02
 CCSD(T)
 CCSD(T)= -0.33890995425D+02

 The electronic state is 1-A'.
 Alpha  occ. eigenvalues --   -1.33839  -1.33597  -0.69459  -0.69202  -0.53715
 Alpha  occ. eigenvalues --   -0.52361  -0.48358  -0.48031
 Alpha virt. eigenvalues --    0.20988   0.22422   0.31785   0.32061   0.76282
 Alpha virt. eigenvalues --    0.80624   0.84095   0.84857   0.92085   1.03126
 Alpha virt. eigenvalues --    1.18787   1.19152   1.23323   1.23674   2.58567

 Mulliken charges:
               1
     1  O   -0.718457
     2  H    0.356154
     3  H    0.362358
     4  O   -0.716808
     5  H    0.354863
     6  H    0.361891
 Sum of Mulliken charges =   0.00000

 Dipole moment (field-independent basis, Debye):
    X=             -0.9888    Y=             -0.2144    Z=              0.0000  Tot=              1.0118
 Quadrupole moment (field-independent basis, Debye-Ang):
   XX=             -8.4295   YY=              5.1918   ZZ=            -14.9838
   XY=             -1.1504   XZ=              0.0000   YZ=              0.0000

 MP4DQ=-33.8852517\MP4SDQ=-33.8873248\CCSD=-33.8883861\CCSD(T)=-33.8909
 Normal termination of Gaussian 16 at Sun Dec 10 06:56:08 2023.
