 Gaussian 16, Revision A.03,
 Gaussian 16:  ES64L-G16RevA.03 25-Dec-2016

 ------------------
 #p CCSD(T)/CEP-31G
 ------------------

 ------------
 H2O_H2O_2827
 ------------
 Symbolic Z-matrix:
 Charge =  0 Multiplicity = 1

                         Standard orientation:
 ---------------------------------------------------------------------
 Center     Atomic      Atomic             Coordinates (Angstroms)
 Number     Number       Type             X           Y           Z
 ---------------------------------------------------------------------
      1          8           0        0.007455   -2.305508    0.000000
      2          1           0       -0.792275   -2.876418    0.000000
      3          1           0        0.806867   -2.876863    0.000000
      4          8           0        0.007455    2.306482    0.000000
      5          1           0        0.725824    2.976892    0.000000
      6          1           0       -0.859696    2.768603    0.000000
 ---------------------------------------------------------------------

 SCF Done:  E(RHF) =  -33.6487466954     A.U. after   11 cycles
 E2 =    -0.2285588258D+00 EUMP2 =    -0.33877305521175D+02
 CCSD(T)
 CCSD(T)= -0.33894393741D+02

 The electronic state is 1-A'.
 Alpha  occ. eigenvalues --   -1.34488  -1.34474  -0.70111  -0.70096  -0.54101
 Alpha  occ. eigenvalues --   -0.53974  -0.49017  -0.48998
 Alpha virt. eigenvalues --    0.21019   0.21231   0.31327   0.31377   0.81439
 Alpha virt. eigenvalues --    0.81646   0.83168   0.86623   0.87650   0.88103
 Alpha virt. eigenvalues --    1.18287   1.18301   1.22747   1.22812   2.58345

 Mulliken charges:
               1
     1  O   -0.730524
     2  H    0.364798
     3  H    0.365727
     4  O   -0.730475
     5  H    0.364652
     6  H    0.365823
 Sum of Mulliken charges =   0.00000

 Dipole moment (field-independent basis, Debye):
    X=             -0.3423    Y=             -0.0231    Z=              0.0000  Tot=              0.3431
 Quadrupole moment (field-independent basis, Debye-Ang):
   XX=             -8.1034   YY=             12.2692   ZZ=            -14.9850
   XY=             -0.5716   XZ=              0.0000   YZ=              0.0000

 P4DQ=-33.8887243\MP4SDQ=-33.890761\CCSD=-33.8918209\CCSD(T)=-33.894393
 Normal termination of Gaussian 16 at Sun Dec 10 06:30:49 2023.
