 Gaussian 16, Revision A.03,
 Gaussian 16:  ES64L-G16RevA.03 25-Dec-2016

 ------------------
 #p CCSD(T)/CEP-31G
 ------------------

 ------------
 H2O_H2O_1223
 ------------
 Symbolic Z-matrix:
 Charge =  0 Multiplicity = 1

                         Standard orientation:
 ---------------------------------------------------------------------
 Center     Atomic      Atomic             Coordinates (Angstroms)
 Number     Number       Type             X           Y           Z
 ---------------------------------------------------------------------
      1          8           0        0.057173   -1.384033    0.000000
      2          1           0       -0.744343   -1.952432    0.000000
      3          1           0        0.854790   -1.957891    0.000000
      4          8           0        0.057173    1.490399    0.000000
      5          1           0       -0.457588    2.327374    0.000000
      6          1           0       -0.567624    0.732021    0.000000
 ---------------------------------------------------------------------

 SCF Done:  E(RHF) =  -33.6538134131     A.U. after   11 cycles
 E2 =    -0.2293644313D+00 EUMP2 =    -0.33883177844452D+02
 CCSD(T)
 CCSD(T)= -0.33900146305D+02

 The electronic state is 1-A'.
 Alpha  occ. eigenvalues --   -1.36502  -1.32142  -0.72155  -0.68044  -0.56196
 Alpha  occ. eigenvalues --   -0.51960  -0.51116  -0.46744
 Alpha virt. eigenvalues --    0.18938   0.25501   0.29676   0.35534   0.77441
 Alpha virt. eigenvalues --    0.77482   0.86107   0.86995   0.92770   1.11151
 Alpha virt. eigenvalues --    1.16889   1.19992   1.22159   1.30235   2.55304

 Mulliken charges:
               1
     1  O   -0.760476
     2  H    0.367137
     3  H    0.395133
     4  O   -0.742501
     5  H    0.343279
     6  H    0.397427
 Sum of Mulliken charges =  -0.00000

 Dipole moment (field-independent basis, Debye):
    X=             -2.5280    Y=             -2.7342    Z=              0.0000  Tot=              3.7238
 Quadrupole moment (field-independent basis, Debye-Ang):
   XX=            -10.1197   YY=             -2.6548   ZZ=            -15.0015
   XY=             -4.0553   XZ=              0.0000   YZ=              0.0000

 \MP4DQ=-33.8943229\MP4SDQ=-33.8964446\CCSD=-33.8974585\CCSD(T)=-33.900
 Normal termination of Gaussian 16 at Sun Dec 10 06:47:37 2023.
