 Gaussian 16, Revision A.03,
 Gaussian 16:  ES64L-G16RevA.03 25-Dec-2016

 ------------------
 #p CCSD(T)/CEP-31G
 ------------------

 ------------
 H2O_H2O_1230
 ------------
 Symbolic Z-matrix:
 Charge =  0 Multiplicity = 1

                         Standard orientation:
 ---------------------------------------------------------------------
 Center     Atomic      Atomic             Coordinates (Angstroms)
 Number     Number       Type             X           Y           Z
 ---------------------------------------------------------------------
      1          8           0        0.018362   -1.451827    0.000000
      2          1           0       -0.781829   -2.022090    0.000000
      3          1           0        0.817312   -2.023828    0.000000
      4          8           0        0.018362    1.457849    0.000000
      5          1           0        0.592782    2.255062    0.000000
      6          1           0       -0.922051    1.742680    0.000000
 ---------------------------------------------------------------------

 SCF Done:  E(RHF) =  -33.6399882942     A.U. after   11 cycles
 E2 =    -0.2293400410D+00 EUMP2 =    -0.33869328335201D+02
 CCSD(T)
 CCSD(T)= -0.33886706599D+02

 The electronic state is 1-A'.
 Alpha  occ. eigenvalues --   -1.33278  -1.32960  -0.68878  -0.68578  -0.53852
 Alpha  occ. eigenvalues --   -0.50604  -0.47870  -0.47213
 Alpha virt. eigenvalues --    0.21192   0.23225   0.32176   0.32495   0.79311
 Alpha virt. eigenvalues --    0.79725   0.82058   0.86494   0.97636   1.10486
 Alpha virt. eigenvalues --    1.19212   1.20284   1.23997   1.24148   2.59166

 Mulliken charges:
               1
     1  O   -0.709122
     2  H    0.350489
     3  H    0.358311
     4  O   -0.706212
     5  H    0.350350
     6  H    0.356183
 Sum of Mulliken charges =  -0.00000

 Dipole moment (field-independent basis, Debye):
    X=             -0.8147    Y=             -0.1498    Z=              0.0000  Tot=              0.8284
 Quadrupole moment (field-independent basis, Debye-Ang):
   XX=             -8.3929   YY=              2.5622   ZZ=            -14.9857
   XY=             -0.7679   XZ=              0.0000   YZ=              0.0000

 MP4DQ=-33.8808825\MP4SDQ=-33.8829771\CCSD=-33.8840585\CCSD(T)=-33.8867
 Normal termination of Gaussian 16 at Sun Dec 10 06:47:45 2023.
