 Gaussian 16, Revision A.03,
 Gaussian 16:  ES64L-G16RevA.03 25-Dec-2016

 ------------------
 #p CCSD(T)/CEP-31G
 ------------------

 ------------
 H2O_H2O_1373
 ------------
 Symbolic Z-matrix:
 Charge =  0 Multiplicity = 1

                         Standard orientation:
 ---------------------------------------------------------------------
 Center     Atomic      Atomic             Coordinates (Angstroms)
 Number     Number       Type             X           Y           Z
 ---------------------------------------------------------------------
      1          8           0        0.057163   -1.463798    0.000000
      2          1           0       -0.744251   -2.032341    0.000000
      3          1           0        0.854883   -2.037513    0.000000
      4          8           0        0.057163    1.570184    0.000000
      5          1           0       -0.457748    2.407067    0.000000
      6          1           0       -0.567497    0.811694    0.000000
 ---------------------------------------------------------------------

 SCF Done:  E(RHF) =  -33.6542542644     A.U. after   11 cycles
 E2 =    -0.2291563633D+00 EUMP2 =    -0.33883410627708D+02
 CCSD(T)
 CCSD(T)= -0.33900398975D+02

 The electronic state is 1-A'.
 Alpha  occ. eigenvalues --   -1.36375  -1.32483  -0.72026  -0.68198  -0.56198
 Alpha  occ. eigenvalues --   -0.52281  -0.50986  -0.47089
 Alpha virt. eigenvalues --    0.18963   0.24980   0.29754   0.34965   0.76782
 Alpha virt. eigenvalues --    0.77976   0.85229   0.86668   0.90731   1.08830
 Alpha virt. eigenvalues --    1.16561   1.20178   1.21841   1.29732   2.53802

 Mulliken charges:
               1
     1  O   -0.755946
     2  H    0.367114
     3  H    0.390570
     4  O   -0.744945
     5  H    0.346873
     6  H    0.396335
 Sum of Mulliken charges =  -0.00000

 Dipole moment (field-independent basis, Debye):
    X=             -2.5511    Y=             -2.7055    Z=              0.0000  Tot=              3.7186
 Quadrupole moment (field-independent basis, Debye-Ang):
   XX=            -10.1238   YY=             -2.1119   ZZ=            -14.9992
   XY=             -4.2638   XZ=              0.0000   YZ=              0.0000

 1\MP4DQ=-33.8946162\MP4SDQ=-33.8967197\CCSD=-33.8977424\CCSD(T)=-33.90
 Normal termination of Gaussian 16 at Sun Dec 10 06:50:25 2023.
