 Gaussian 16, Revision A.03,
 Gaussian 16:  ES64L-G16RevA.03 25-Dec-2016

 ------------------
 #p CCSD(T)/CEP-31G
 ------------------

 ------------
 H2O_H2O_1425
 ------------
 Symbolic Z-matrix:
 Charge =  0 Multiplicity = 1

                         Standard orientation:
 ---------------------------------------------------------------------
 Center     Atomic      Atomic             Coordinates (Angstroms)
 Number     Number       Type             X           Y           Z
 ---------------------------------------------------------------------
      1          8           0        0.000000   -0.000000    1.561466
      2          1           0        0.000000    0.799571    2.132598
      3          1           0       -0.000000   -0.799571    2.132598
      4          8           0        0.000000   -0.000000   -1.561466
      5          1           0       -0.000000   -0.799571   -2.132598
      6          1           0        0.000000    0.799571   -2.132598
 ---------------------------------------------------------------------

 SCF Done:  E(RHF) =  -33.6417177403     A.U. after   10 cycles
 E2 =    -0.2291221600D+00 EUMP2 =    -0.33870839900338D+02
 CCSD(T)
 CCSD(T)= -0.33888168110D+02

 The electronic state is 1-AG.
 Alpha  occ. eigenvalues --   -1.33392  -1.33260  -0.68999  -0.68882  -0.53637
 Alpha  occ. eigenvalues --   -0.51337  -0.47962  -0.47561
 Alpha virt. eigenvalues --    0.21250   0.22767   0.31987   0.32391   0.77468
 Alpha virt. eigenvalues --    0.80231   0.83192   0.85408   0.96251   1.05777
 Alpha virt. eigenvalues --    1.19141   1.19418   1.23612   1.24154   2.59982

 Mulliken charges:
               1
     1  O   -0.710405
     2  H    0.355202
     3  H    0.355202
     4  O   -0.710405
     5  H    0.355202
     6  H    0.355202
 Sum of Mulliken charges =  -0.00000

 Dipole moment (field-independent basis, Debye):
    X=             -0.0000    Y=              0.0000    Z=             -0.0000  Tot=              0.0000
 Quadrupole moment (field-independent basis, Debye-Ang):
   XX=            -14.9838   YY=             -8.1676   ZZ=              4.0568
   XY=              0.0000   XZ=             -0.0000   YZ=             -0.0000

 33.8823815\MP4SDQ=-33.8844647\CCSD=-33.8855388\CCSD(T)=-33.8881681\RMS
 Normal termination of Gaussian 16 at Sun Dec 10 06:51:23 2023.
