 Gaussian 16, Revision A.03,
 Gaussian 16:  ES64L-G16RevA.03 25-Dec-2016

 ------------------
 #p CCSD(T)/CEP-31G
 ------------------

 -----------
 H2O_H2O_595
 -----------
 Symbolic Z-matrix:
 Charge =  0 Multiplicity = 1

                         Standard orientation:
 ---------------------------------------------------------------------
 Center     Atomic      Atomic             Coordinates (Angstroms)
 Number     Number       Type             X           Y           Z
 ---------------------------------------------------------------------
      1          8           0        0.055348   -1.063677    0.000000
      2          1           0       -0.746668   -1.631370    0.000000
      3          1           0        0.852459   -1.638238    0.000000
      4          8           0        0.055348    1.147865    0.000000
      5          1           0       -0.285424    2.069484    0.000000
      6          1           0       -0.705942    0.526622    0.000000
 ---------------------------------------------------------------------

 SCF Done:  E(RHF) =  -33.6281771837     A.U. after   11 cycles
 E2 =    -0.2312196123D+00 EUMP2 =    -0.33859396796014D+02
 CCSD(T)
 CCSD(T)= -0.33876316097D+02

 The electronic state is 1-A'.
 Alpha  occ. eigenvalues --   -1.36442  -1.30726  -0.72246  -0.68669  -0.53739
 Alpha  occ. eigenvalues --   -0.50957  -0.49953  -0.45151
 Alpha virt. eigenvalues --    0.19307   0.27349   0.29941   0.35314   0.77564
 Alpha virt. eigenvalues --    0.84495   0.89559   0.94262   0.98155   1.13931
 Alpha virt. eigenvalues --    1.18937   1.21265   1.26260   1.31397   2.69729

 Mulliken charges:
               1
     1  O   -0.777085
     2  H    0.361012
     3  H    0.408019
     4  O   -0.693028
     5  H    0.324006
     6  H    0.377076
 Sum of Mulliken charges =  -0.00000

 Dipole moment (field-independent basis, Debye):
    X=             -2.2676    Y=             -2.2024    Z=              0.0000  Tot=              3.1611
 Quadrupole moment (field-independent basis, Debye-Ang):
   XX=            -10.0004   YY=             -4.3365   ZZ=            -14.9996
   XY=             -2.6845   XZ=              0.0000   YZ=              0.0000

 \MP4DQ=-33.8702017\MP4SDQ=-33.8724623\CCSD=-33.8734122\CCSD(T)=-33.876
 Normal termination of Gaussian 16 at Sun Dec 10 06:35:52 2023.
