 Gaussian 16, Revision A.03,
 Gaussian 16:  ES64L-G16RevA.03 25-Dec-2016

 ------------------
 #p CCSD(T)/CEP-31G
 ------------------

 ------------
 H2O_H2O_2578
 ------------
 Symbolic Z-matrix:
 Charge =  0 Multiplicity = 1

                         Standard orientation:
 ---------------------------------------------------------------------
 Center     Atomic      Atomic             Coordinates (Angstroms)
 Number     Number       Type             X           Y           Z
 ---------------------------------------------------------------------
      1          8           0        0.011143   -2.171891    0.000000
      2          1           0       -0.788680   -2.742670    0.000000
      3          1           0        0.810462   -2.743376    0.000000
      4          8           0        0.011143    2.174076    0.000000
      5          1           0        0.684244    2.889926    0.000000
      6          1           0       -0.884309    2.578641    0.000000
 ---------------------------------------------------------------------

 SCF Done:  E(RHF) =  -33.6482240400     A.U. after   11 cycles
 E2 =    -0.2286016893D+00 EUMP2 =    -0.33876825729256D+02
 CCSD(T)
 CCSD(T)= -0.33893929454D+02

 The electronic state is 1-A'.
 Alpha  occ. eigenvalues --   -1.34376  -1.34340  -0.69998  -0.69960  -0.53994
 Alpha  occ. eigenvalues --   -0.53768  -0.48899  -0.48855
 Alpha virt. eigenvalues --    0.21039   0.21398   0.31403   0.31490   0.81456
 Alpha virt. eigenvalues --    0.81886   0.82058   0.87274   0.88158   0.88902
 Alpha virt. eigenvalues --    1.18378   1.18413   1.22830   1.22947   2.58362

 Mulliken charges:
               1
     1  O   -0.728760
     2  H    0.363566
     3  H    0.365197
     4  O   -0.728617
     5  H    0.363294
     6  H    0.365319
 Sum of Mulliken charges =   0.00000

 Dipole moment (field-independent basis, Debye):
    X=             -0.5107    Y=             -0.0522    Z=              0.0000  Tot=              0.5134
 Quadrupole moment (field-independent basis, Debye-Ang):
   XX=             -8.1557   YY=             10.7478   ZZ=            -14.9847
   XY=             -0.7932   XZ=              0.0000   YZ=              0.0000

 P4DQ=-33.888254\MP4SDQ=-33.8902935\CCSD=-33.8913533\CCSD(T)=-33.893929
 Normal termination of Gaussian 16 at Sun Dec 10 06:26:11 2023.
