 Gaussian 16, Revision A.03,
 Gaussian 16:  ES64L-G16RevA.03 25-Dec-2016

 ------------------
 #p CCSD(T)/CEP-31G
 ------------------

 -----------
 H2O_H2O_258
 -----------
 Symbolic Z-matrix:
 Charge =  0 Multiplicity = 1

                         Standard orientation:
 ---------------------------------------------------------------------
 Center     Atomic      Atomic             Coordinates (Angstroms)
 Number     Number       Type             X           Y           Z
 ---------------------------------------------------------------------
      1          8           0        0.028577   -0.928326    0.000000
      2          1           0       -0.772492   -1.497356    0.000000
      3          1           0        0.826645   -1.501556    0.000000
      4          8           0        0.028577    0.943479    0.000000
      5          1           0        0.437809    1.836808    0.000000
      6          1           0       -0.949186    1.040877    0.000000
 ---------------------------------------------------------------------

 SCF Done:  E(RHF) =  -33.5696665270     A.U. after   11 cycles
 E2 =    -0.2337793699D+00 EUMP2 =    -0.33803445896912D+02
 CCSD(T)
 CCSD(T)= -0.33820480203D+02

 The electronic state is 1-A'.
 Alpha  occ. eigenvalues --   -1.34542  -1.29926  -0.69624  -0.66796  -0.59775
 Alpha  occ. eigenvalues --   -0.49425  -0.43591  -0.39372
 Alpha virt. eigenvalues --    0.21004   0.27117   0.32121   0.33468   0.81174
 Alpha virt. eigenvalues --    0.81936   0.89953   0.94256   1.01619   1.19721
 Alpha virt. eigenvalues --    1.20801   1.24110   1.27071   1.31738   2.49875

 Mulliken charges:
               1
     1  O   -0.723740
     2  H    0.339163
     3  H    0.373488
     4  O   -0.679442
     5  H    0.348367
     6  H    0.342164
 Sum of Mulliken charges =  -0.00000

 Dipole moment (field-independent basis, Debye):
    X=             -1.0803    Y=             -0.3720    Z=              0.0000  Tot=              1.1425
 Quadrupole moment (field-independent basis, Debye-Ang):
   XX=             -8.8389   YY=             -5.1493   ZZ=            -15.0138
   XY=             -0.6896   XZ=              0.0000   YZ=              0.0000

 MP4DQ=-33.8140817\MP4SDQ=-33.8164942\CCSD=-33.8173855\CCSD(T)=-33.8204
 Normal termination of Gaussian 16 at Sun Dec 10 06:29:35 2023.
