 Gaussian 16, Revision A.03,
 Gaussian 16:  ES64L-G16RevA.03 25-Dec-2016

 ------------------
 #p CCSD(T)/CEP-31G
 ------------------

 ------------
 H2O_H2O_2742
 ------------
 Symbolic Z-matrix:
 Charge =  0 Multiplicity = 1

                         Standard orientation:
 ---------------------------------------------------------------------
 Center     Atomic      Atomic             Coordinates (Angstroms)
 Number     Number       Type             X           Y           Z
 ---------------------------------------------------------------------
      1          8           0        0.051286   -2.218363    0.000000
      2          1           0       -0.749403   -2.787927    0.000000
      3          1           0        0.849736   -2.791061    0.000000
      4          8           0        0.051286    2.281868    0.000000
      5          1           0       -0.105405    3.251896    0.000000
      6          1           0       -0.815497    1.819056    0.000000
 ---------------------------------------------------------------------

 SCF Done:  E(RHF) =  -33.6509574985     A.U. after   11 cycles
 E2 =    -0.2284930768D+00 EUMP2 =    -0.33879450575332D+02
 CCSD(T)
 CCSD(T)= -0.33896475793D+02

 The electronic state is 1-A'.
 Alpha  occ. eigenvalues --   -1.35280  -1.34308  -0.70911  -0.69903  -0.54969
 Alpha  occ. eigenvalues --   -0.53983  -0.49838  -0.48870
 Alpha virt. eigenvalues --    0.20313   0.21552   0.30664   0.31656   0.80697
 Alpha virt. eigenvalues --    0.81681   0.82421   0.85349   0.86878   0.89053
 Alpha virt. eigenvalues --    1.17586   1.18588   1.22022   1.23104   2.57628

 Mulliken charges:
               1
     1  O   -0.738294
     2  H    0.365850
     3  H    0.372502
     4  O   -0.736637
     5  H    0.362286
     6  H    0.374291
 Sum of Mulliken charges =  -0.00000

 Dipole moment (field-independent basis, Debye):
    X=             -2.3523    Y=             -1.5128    Z=              0.0000  Tot=              2.7967
 Quadrupole moment (field-independent basis, Debye-Ang):
   XX=             -9.7425   YY=              6.5618   ZZ=            -14.9883
   XY=             -4.8190   XZ=              0.0000   YZ=              0.0000

 P4DQ=-33.8908221\MP4SDQ=-33.8928546\CCSD=-33.8939081\CCSD(T)=-33.89647
 Normal termination of Gaussian 16 at Sun Dec 10 06:29:15 2023.
