 Gaussian 16, Revision A.03,
 Gaussian 16:  ES64L-G16RevA.03 25-Dec-2016

 ------------------
 #p CCSD(T)/CEP-31G
 ------------------

 -----------
 H2O_H2O_890
 -----------
 Symbolic Z-matrix:
 Charge =  0 Multiplicity = 1

                         Standard orientation:
 ---------------------------------------------------------------------
 Center     Atomic      Atomic             Coordinates (Angstroms)
 Number     Number       Type             X           Y           Z
 ---------------------------------------------------------------------
      1          8           0        0.047570   -1.241548    0.000000
      2          1           0       -0.753840   -1.810096    0.000000
      3          1           0        0.845293   -1.815257    0.000000
      4          8           0        0.047570    1.292006    0.000000
      5          1           0        0.020078    2.274224    0.000000
      6          1           0       -0.872644    0.947459    0.000000
 ---------------------------------------------------------------------

 SCF Done:  E(RHF) =  -33.6404160871     A.U. after   11 cycles
 E2 =    -0.2301022546D+00 EUMP2 =    -0.33870518341744D+02
 CCSD(T)
 CCSD(T)= -0.33887844107D+02

 The electronic state is 1-A'.
 Alpha  occ. eigenvalues --   -1.34433  -1.32076  -0.70074  -0.67885  -0.54700
 Alpha  occ. eigenvalues --   -0.50269  -0.49035  -0.46452
 Alpha virt. eigenvalues --    0.20112   0.25141   0.31333   0.33205   0.78325
 Alpha virt. eigenvalues --    0.83299   0.87887   0.88202   0.94392   1.16267
 Alpha virt. eigenvalues --    1.18861   1.22131   1.23053   1.29790   2.60142

 Mulliken charges:
               1
     1  O   -0.736732
     2  H    0.351826
     3  H    0.379012
     4  O   -0.699824
     5  H    0.340260
     6  H    0.365459
 Sum of Mulliken charges =   0.00000

 Dipole moment (field-independent basis, Debye):
    X=             -2.0429    Y=             -1.2617    Z=              0.0000  Tot=              2.4011
 Quadrupole moment (field-independent basis, Debye-Ang):
   XX=             -9.5468   YY=             -1.1966   ZZ=            -14.9929
   XY=             -2.2144   XZ=              0.0000   YZ=              0.0000

 \MP4DQ=-33.8819187\MP4SDQ=-33.8840744\CCSD=-33.8851311\CCSD(T)=-33.887
 Normal termination of Gaussian 16 at Sun Dec 10 06:41:24 2023.
