 Gaussian 16, Revision A.03,
 Gaussian 16:  ES64L-G16RevA.03 25-Dec-2016

 ------------------
 #p CCSD(T)/CEP-31G
 ------------------

 ------------
 H2O_H2O_4642
 ------------
 Symbolic Z-matrix:
 Charge =  0 Multiplicity = 1

                         Standard orientation:
 ---------------------------------------------------------------------
 Center     Atomic      Atomic             Coordinates (Angstroms)
 Number     Number       Type             X           Y           Z
 ---------------------------------------------------------------------
      1          8           0        0.051266   -3.228820    0.000000
      2          1           0       -0.749076   -3.798870    0.000000
      3          1           0        0.850064   -3.801032    0.000000
      4          8           0        0.051266    3.292386    0.000000
      5          1           0       -0.106013    4.262319    0.000000
      6          1           0       -0.815235    2.829050    0.000000
 ---------------------------------------------------------------------

 SCF Done:  E(RHF) =  -33.6514991528     A.U. after   11 cycles
 E2 =    -0.2283997230D+00 EUMP2 =    -0.33879898875815D+02
 CCSD(T)
 CCSD(T)= -0.33896907442D+02

 The electronic state is 1-A'.
 Alpha  occ. eigenvalues --   -1.35436  -1.34991  -0.71067  -0.70613  -0.55155
 Alpha  occ. eigenvalues --   -0.54706  -0.50003  -0.49558
 Alpha virt. eigenvalues --    0.20319   0.20775   0.30557   0.31004   0.80549
 Alpha virt. eigenvalues --    0.80988   0.83601   0.84046   0.86703   0.87194
 Alpha virt. eigenvalues --    1.17454   1.17896   1.21914   1.22362   2.57477

 Mulliken charges:
               1
     1  O   -0.740099
     2  H    0.368868
     3  H    0.371231
     4  O   -0.739814
     5  H    0.367665
     6  H    0.372149
 Sum of Mulliken charges =  -0.00000

 Dipole moment (field-independent basis, Debye):
    X=             -2.3668    Y=             -1.4856    Z=              0.0000  Tot=              2.7945
 Quadrupole moment (field-independent basis, Debye-Ang):
   XX=             -9.7450   YY=             14.4142   ZZ=            -14.9882
   XY=             -7.1755   XZ=              0.0000   YZ=              0.0000

 MP4DQ=-33.8912611\MP4SDQ=-33.8932895\CCSD=-33.8943454\CCSD(T)=-33.8969
 Normal termination of Gaussian 16 at Sun Dec 10 07:05:13 2023.
