 Gaussian 16, Revision A.03,
 Gaussian 16:  ES64L-G16RevA.03 25-Dec-2016

 ------------------
 #p CCSD(T)/CEP-31G
 ------------------

 ----------
 H2O_H2O_38
 ----------
 Symbolic Z-matrix:
 Charge =  0 Multiplicity = 1

                         Standard orientation:
 ---------------------------------------------------------------------
 Center     Atomic      Atomic             Coordinates (Angstroms)
 Number     Number       Type             X           Y           Z
 ---------------------------------------------------------------------
      1          8           0        0.043028   -0.795967    0.000000
      2          1           0       -0.759125   -1.363468    0.000000
      3          1           0        0.840001   -1.370719    0.000000
      4          8           0        0.043028    0.834489    0.000000
      5          1           0        0.145254    1.811759    0.000000
      6          1           0       -0.914575    0.614253    0.000000
 ---------------------------------------------------------------------

 SCF Done:  E(RHF) =  -33.4790598111     A.U. after   12 cycles
 E2 =    -0.2380421751D+00 EUMP2 =    -0.33717101986189D+02
 CCSD(T)
 CCSD(T)= -0.33733788485D+02

 The electronic state is 1-A'.
 Alpha  occ. eigenvalues --   -1.39596  -1.28715  -0.74597  -0.70111  -0.58698
 Alpha  occ. eigenvalues --   -0.53359  -0.42800  -0.34985
 Alpha virt. eigenvalues --    0.20003   0.28990   0.30991   0.33472   0.81244
 Alpha virt. eigenvalues --    0.84245   0.88801   0.93487   0.97293   1.20189
 Alpha virt. eigenvalues --    1.21430   1.25765   1.25994   1.40230   2.59697

 Mulliken charges:
               1
     1  O   -0.744126
     2  H    0.332779
     3  H    0.394276
     4  O   -0.639363
     5  H    0.308594
     6  H    0.347840
 Sum of Mulliken charges =  -0.00000

 Dipole moment (field-independent basis, Debye):
    X=             -1.5218    Y=             -1.0433    Z=              0.0000  Tot=              1.8451
 Quadrupole moment (field-independent basis, Debye-Ang):
   XX=             -9.4318   YY=             -8.1328   ZZ=            -14.9339
   XY=             -1.1137   XZ=              0.0000   YZ=              0.0000

 DQ=-33.7268523\MP4SDQ=-33.7296786\CCSD=-33.7302039\CCSD(T)=-33.7337885
 Normal termination of Gaussian 16 at Sun Dec 10 06:25:26 2023.
