 Gaussian 16, Revision A.03,
 Gaussian 16:  ES64L-G16RevA.03 25-Dec-2016

 ------------------
 #p CCSD(T)/CEP-31G
 ------------------

 -----------
 H2O_H2O_627
 -----------
 Symbolic Z-matrix:
 Charge =  0 Multiplicity = 1

                         Standard orientation:
 ---------------------------------------------------------------------
 Center     Atomic      Atomic             Coordinates (Angstroms)
 Number     Number       Type             X           Y           Z
 ---------------------------------------------------------------------
      1          8           0        0.007455   -1.135470    0.000000
      2          1           0       -0.792438   -1.706151    0.000000
      3          1           0        0.806703   -1.707054    0.000000
      4          8           0        0.007455    1.136439    0.000000
      5          1           0        0.726017    1.806644    0.000000
      6          1           0       -0.859563    1.598810    0.000000
 ---------------------------------------------------------------------

 SCF Done:  E(RHF) =  -33.6191895087     A.U. after   11 cycles
 E2 =    -0.2307864207D+00 EUMP2 =    -0.33849975929348D+02
 CCSD(T)
 CCSD(T)= -0.33867333144D+02

 The electronic state is 1-A'.
 Alpha  occ. eigenvalues --   -1.32716  -1.31366  -0.68117  -0.67131  -0.56140
 Alpha  occ. eigenvalues --   -0.47540  -0.45193  -0.45186
 Alpha virt. eigenvalues --    0.21563   0.24931   0.32859   0.33175   0.78410
 Alpha virt. eigenvalues --    0.79879   0.89812   0.96667   1.01398   1.14297
 Alpha virt. eigenvalues --    1.19959   1.22416   1.23821   1.26395   2.52003

 Mulliken charges:
               1
     1  O   -0.698854
     2  H    0.346077
     3  H    0.352316
     4  O   -0.697075
     5  H    0.349413
     6  H    0.348124
 Sum of Mulliken charges =   0.00000

 Dipole moment (field-independent basis, Debye):
    X=             -0.3058    Y=             -0.0227    Z=              0.0000  Tot=              0.3067
 Quadrupole moment (field-independent basis, Debye-Ang):
   XX=             -8.3164   YY=             -1.5967   ZZ=            -15.0082
   XY=             -0.1981   XZ=              0.0000   YZ=              0.0000

 4DQ=-33.8613132\MP4SDQ=-33.8634582\CCSD=-33.86453\CCSD(T)=-33.8673331\
 Normal termination of Gaussian 16 at Sun Dec 10 06:36:28 2023.
