 Gaussian 16, Revision A.03,
 Gaussian 16:  ES64L-G16RevA.03 25-Dec-2016

 ------------------
 #p CCSD(T)/CEP-31G
 ------------------

 ------------
 H2O_H2O_2053
 ------------
 Symbolic Z-matrix:
 Charge =  0 Multiplicity = 1

                         Standard orientation:
 ---------------------------------------------------------------------
 Center     Atomic      Atomic             Coordinates (Angstroms)
 Number     Number       Type             X           Y           Z
 ---------------------------------------------------------------------
      1          8           0        0.011143   -1.892677    0.000000
      2          1           0       -0.788717   -2.463405    0.000000
      3          1           0        0.810424   -2.464214    0.000000
      4          8           0        0.011143    1.894861    0.000000
      5          1           0        0.684290    2.610667    0.000000
      6          1           0       -0.884282    2.299483    0.000000
 ---------------------------------------------------------------------

 SCF Done:  E(RHF) =  -33.6464409643     A.U. after   11 cycles
 E2 =    -0.2287597113D+00 EUMP2 =    -0.33875200675611D+02
 CCSD(T)
 CCSD(T)= -0.33892362741D+02

 The electronic state is 1-A'.
 Alpha  occ. eigenvalues --   -1.34030  -1.33979  -0.69651  -0.69595  -0.53751
 Alpha  occ. eigenvalues --   -0.53076  -0.48554  -0.48445
 Alpha virt. eigenvalues --    0.21064   0.21891   0.31602   0.31818   0.78433
 Alpha virt. eigenvalues --    0.81236   0.82852   0.86505   0.90163   0.95001
 Alpha virt. eigenvalues --    1.18655   1.18709   1.23046   1.23373   2.58224

 Mulliken charges:
               1
     1  O   -0.722897
     2  H    0.360277
     3  H    0.362635
     4  O   -0.722640
     5  H    0.359911
     6  H    0.362714
 Sum of Mulliken charges =   0.00000

 Dipole moment (field-independent basis, Debye):
    X=             -0.5080    Y=             -0.0533    Z=              0.0000  Tot=              0.5108
 Quadrupole moment (field-independent basis, Debye-Ang):
   XX=             -8.1833   YY=              7.7177   ZZ=            -14.9838
   XY=             -0.6589   XZ=              0.0000   YZ=              0.0000

 MP4DQ=-33.886659\MP4SDQ=-33.8887127\CCSD=-33.8897722\CCSD(T)=-33.89236
 Normal termination of Gaussian 16 at Sun Dec 10 07:04:21 2023.
