 Gaussian 16, Revision A.03,
 Gaussian 16:  ES64L-G16RevA.03 25-Dec-2016

 ------------------
 #p CCSD(T)/CEP-31G
 ------------------

 -----------
 H2O_H2O_328
 -----------
 Symbolic Z-matrix:
 Charge =  0 Multiplicity = 1

                         Standard orientation:
 ---------------------------------------------------------------------
 Center     Atomic      Atomic             Coordinates (Angstroms)
 Number     Number       Type             X           Y           Z
 ---------------------------------------------------------------------
      1          8           0        0.011143   -0.975265    0.000000
      2          1           0       -0.788988   -1.545612    0.000000
      3          1           0        0.810153   -1.547183    0.000000
      4          8           0        0.011143    0.977438    0.000000
      5          1           0        0.684631    1.692923    0.000000
      6          1           0       -0.884089    1.382487    0.000000
 ---------------------------------------------------------------------

 SCF Done:  E(RHF) =  -33.5820494353     A.U. after   11 cycles
 E2 =    -0.2330189513D+00 EUMP2 =    -0.33815068386525D+02
 CCSD(T)
 CCSD(T)= -0.33832134606D+02

 The electronic state is 1-A'.
 Alpha  occ. eigenvalues --   -1.33514  -1.30159  -0.68500  -0.66216  -0.59728
 Alpha  occ. eigenvalues --   -0.48482  -0.43736  -0.39906
 Alpha virt. eigenvalues --    0.21484   0.26427   0.32694   0.33503   0.78793
 Alpha virt. eigenvalues --    0.81137   0.90203   0.93710   1.05146   1.20228
 Alpha virt. eigenvalues --    1.21805   1.22844   1.26984   1.27916   2.48273

 Mulliken charges:
               1
     1  O   -0.701349
     2  H    0.343108
     3  H    0.356621
     4  O   -0.695122
     5  H    0.351030
     6  H    0.345713
 Sum of Mulliken charges =  -0.00000

 Dipole moment (field-independent basis, Debye):
    X=             -0.4263    Y=             -0.0521    Z=              0.0000  Tot=              0.4295
 Quadrupole moment (field-independent basis, Debye-Ang):
   XX=             -8.4312   YY=             -4.3254   ZZ=            -15.0295
   XY=             -0.2406   XZ=              0.0000   YZ=              0.0000

 P4DQ=-33.8258395\MP4SDQ=-33.82816\CCSD=-33.8291101\CCSD(T)=-33.8321346
 Normal termination of Gaussian 16 at Sun Dec 10 06:30:54 2023.
