 Gaussian 16, Revision A.03,
 Gaussian 16:  ES64L-G16RevA.03 25-Dec-2016

 ------------------
 #p CCSD(T)/CEP-31G
 ------------------

 ------------
 H2O_H2O_2210
 ------------
 Symbolic Z-matrix:
 Charge =  0 Multiplicity = 1

                         Standard orientation:
 ---------------------------------------------------------------------
 Center     Atomic      Atomic             Coordinates (Angstroms)
 Number     Number       Type             X           Y           Z
 ---------------------------------------------------------------------
      1          8           0        0.034786   -1.960876    0.000000
      2          1           0       -0.765650   -2.530794    0.000000
      3          1           0        0.833490   -2.533220    0.000000
      4          8           0        0.034786    1.984375    0.000000
      5          1           0        0.322872    2.923797    0.000000
      6          1           0       -0.947290    1.952226    0.000000
 ---------------------------------------------------------------------

 SCF Done:  E(RHF) =  -33.6482774187     A.U. after   11 cycles
 E2 =    -0.2286821513D+00 EUMP2 =    -0.33876959570006D+02
 CCSD(T)
 CCSD(T)= -0.33894066425D+02

 The electronic state is 1-A'.
 Alpha  occ. eigenvalues --   -1.34515  -1.34044  -0.70140  -0.69644  -0.54113
 Alpha  occ. eigenvalues --   -0.53493  -0.49038  -0.48567
 Alpha virt. eigenvalues --    0.20759   0.21820   0.31296   0.31741   0.79139
 Alpha virt. eigenvalues --    0.81124   0.82361   0.86224   0.88330   0.94184
 Alpha virt. eigenvalues --    1.18241   1.18748   1.22732   1.23228   2.58109

 Mulliken charges:
               1
     1  O   -0.729085
     2  H    0.361311
     3  H    0.367877
     4  O   -0.727180
     5  H    0.359128
     6  H    0.367950
 Sum of Mulliken charges =  -0.00000

 Dipole moment (field-independent basis, Debye):
    X=             -1.5871    Y=             -0.5682    Z=              0.0000  Tot=              1.6858
 Quadrupole moment (field-independent basis, Debye-Ang):
   XX=             -8.8513   YY=              7.2452   ZZ=            -14.9855
   XY=             -2.4008   XZ=              0.0000   YZ=              0.0000

 MP4DQ=-33.8883825\MP4SDQ=-33.8904287\CCSD=-33.8914842\CCSD(T)=-33.8940
 Normal termination of Gaussian 16 at Sun Dec 10 07:07:11 2023.
