 Gaussian 16, Revision A.03,
 Gaussian 16:  ES64L-G16RevA.03 25-Dec-2016

 ------------------
 #p CCSD(T)/CEP-31G
 ------------------

 ------------
 H2O_H2O_1485
 ------------
 Symbolic Z-matrix:
 Charge =  0 Multiplicity = 1

                         Standard orientation:
 ---------------------------------------------------------------------
 Center     Atomic      Atomic             Coordinates (Angstroms)
 Number     Number       Type             X           Y           Z
 ---------------------------------------------------------------------
      1          8           0        0.034790   -1.575308    0.000000
      2          1           0       -0.765856   -2.144931    0.000000
      3          1           0        0.833283   -2.147947    0.000000
      4          8           0        0.034790    1.598781    0.000000
      5          1           0        0.323222    2.538097    0.000000
      6          1           0       -0.947297    1.566994    0.000000
 ---------------------------------------------------------------------

 SCF Done:  E(RHF) =  -33.6448169430     A.U. after   11 cycles
 E2 =    -0.2291118011D+00 EUMP2 =    -0.33873928744104D+02
 CCSD(T)
 CCSD(T)= -0.33891186570D+02

 The electronic state is 1-A'.
 Alpha  occ. eigenvalues --   -1.34018  -1.33295  -0.69642  -0.68878  -0.53927
 Alpha  occ. eigenvalues --   -0.52067  -0.48534  -0.47745
 Alpha virt. eigenvalues --    0.20680   0.22941   0.31656   0.32290   0.75999
 Alpha virt. eigenvalues --    0.79980   0.84122   0.84913   0.92162   1.09359
 Alpha virt. eigenvalues --    1.18596   1.20220   1.23238   1.23921   2.59395

 Mulliken charges:
               1
     1  O   -0.720237
     2  H    0.354296
     3  H    0.365908
     4  O   -0.714610
     5  H    0.350755
     6  H    0.363888
 Sum of Mulliken charges =   0.00000

 Dipole moment (field-independent basis, Debye):
    X=             -1.5607    Y=             -0.5844    Z=              0.0000  Tot=              1.6665
 Quadrupole moment (field-independent basis, Debye-Ang):
   XX=             -8.8889   YY=              3.3340   ZZ=            -14.9852
   XY=             -1.8243   XZ=              0.0000   YZ=              0.0000

 4DQ=-33.8854165\MP4SDQ=-33.8875044\CCSD=-33.8885654\CCSD(T)=-33.891186
 Normal termination of Gaussian 16 at Sun Dec 10 06:52:30 2023.
