 Gaussian 16, Revision A.03,
 Gaussian 16:  ES64L-G16RevA.03 25-Dec-2016

 ------------------
 #p CCSD(T)/CEP-31G
 ------------------

 -----------
 H2O_H2O_931
 -----------
 Symbolic Z-matrix:
 Charge =  0 Multiplicity = 1

                         Standard orientation:
 ---------------------------------------------------------------------
 Center     Atomic      Atomic             Coordinates (Angstroms)
 Number     Number       Type             X           Y           Z
 ---------------------------------------------------------------------
      1          8           0        0.021863   -1.290859    0.000000
      2          1           0       -0.778537   -1.860829    0.000000
      3          1           0        0.820603   -1.863152    0.000000
      4          8           0        0.021863    1.299491    0.000000
      5          1           0        0.543218    2.132373    0.000000
      6          1           0       -0.935084    1.522555    0.000000
 ---------------------------------------------------------------------

 SCF Done:  E(RHF) =  -33.6344916901     A.U. after   11 cycles
 E2 =    -0.2298360423D+00 EUMP2 =    -0.33864327732470D+02
 CCSD(T)
 CCSD(T)= -0.33881756618D+02

 The electronic state is 1-A'.
 Alpha  occ. eigenvalues --   -1.33017  -1.32340  -0.68579  -0.67996  -0.54497
 Alpha  occ. eigenvalues --   -0.48779  -0.47695  -0.46438
 Alpha virt. eigenvalues --    0.21238   0.24029   0.32443   0.32774   0.79317
 Alpha virt. eigenvalues --    0.80332   0.86037   0.88276   1.01118   1.12327
 Alpha virt. eigenvalues --    1.19461   1.22014   1.24180   1.25205   2.56598

 Mulliken charges:
               1
     1  O   -0.707291
     2  H    0.346546
     3  H    0.359122
     4  O   -0.699171
     5  H    0.348252
     6  H    0.352542
 Sum of Mulliken charges =  -0.00000

 Dipole moment (field-independent basis, Debye):
    X=             -0.9434    Y=             -0.2106    Z=              0.0000  Tot=              0.9666
 Quadrupole moment (field-independent basis, Debye-Ang):
   XX=             -8.5150   YY=              0.5001   ZZ=            -14.9918
   XY=             -0.7814   XZ=              0.0000   YZ=              0.0000

 MP4DQ=-33.8758578\MP4SDQ=-33.8779697\CCSD=-33.8790608\CCSD(T)=-33.8817
 Normal termination of Gaussian 16 at Sun Dec 10 06:42:10 2023.
