 Gaussian 16, Revision A.03,
 Gaussian 16:  ES64L-G16RevA.03 25-Dec-2016

 ------------------
 #p CCSD(T)/CEP-31G
 ------------------

 ------------
 H2O_H2O_2435
 ------------
 Symbolic Z-matrix:
 Charge =  0 Multiplicity = 1

                         Standard orientation:
 ---------------------------------------------------------------------
 Center     Atomic      Atomic             Coordinates (Angstroms)
 Number     Number       Type             X           Y           Z
 ---------------------------------------------------------------------
      1          8           0        0.034785   -2.080536    0.000000
      2          1           0       -0.765602   -2.650523    0.000000
      3          1           0        0.833538   -2.652811    0.000000
      4          8           0        0.034785    2.104041    0.000000
      5          1           0        0.322789    3.043488    0.000000
      6          1           0       -0.947288    2.071807    0.000000
 ---------------------------------------------------------------------

 SCF Done:  E(RHF) =  -33.6488293027     A.U. after   11 cycles
 E2 =    -0.2286130941D+00 EUMP2 =    -0.33877442396857D+02
 CCSD(T)
 CCSD(T)= -0.33894530153D+02

 The electronic state is 1-A'.
 Alpha  occ. eigenvalues --   -1.34621  -1.34206  -0.70246  -0.69811  -0.54215
 Alpha  occ. eigenvalues --   -0.53730  -0.49150  -0.48736
 Alpha virt. eigenvalues --    0.20798   0.21581   0.31219   0.31613   0.80906
 Alpha virt. eigenvalues --    0.81220   0.81985   0.86291   0.87868   0.91269
 Alpha virt. eigenvalues --    1.18158   1.18581   1.22640   1.23068   2.58169

 Mulliken charges:
               1
     1  O   -0.730927
     2  H    0.362687
     3  H    0.368292
     4  O   -0.729449
     5  H    0.360862
     6  H    0.368536
 Sum of Mulliken charges =  -0.00000

 Dipole moment (field-independent basis, Debye):
    X=             -1.5912    Y=             -0.5639    Z=              0.0000  Tot=              1.6882
 Quadrupole moment (field-independent basis, Debye-Ang):
   XX=             -8.8449   YY=              8.4235   ZZ=            -14.9857
   XY=             -2.5835   XZ=              0.0000   YZ=              0.0000

 \MP4DQ=-33.8888568\MP4SDQ=-33.890897\CCSD=-33.8919537\CCSD(T)=-33.8945
 Normal termination of Gaussian 16 at Sun Dec 10 07:11:13 2023.
