 Gaussian 16, Revision A.03,
 Gaussian 16:  ES64L-G16RevA.03 25-Dec-2016

 ------------------
 #p CCSD(T)/CEP-31G
 ------------------

 ------------
 H2O_H2O_1782
 ------------
 Symbolic Z-matrix:
 Charge =  0 Multiplicity = 1

                         Standard orientation:
 ---------------------------------------------------------------------
 Center     Atomic      Atomic             Coordinates (Angstroms)
 Number     Number       Type             X           Y           Z
 ---------------------------------------------------------------------
      1          8           0        0.025268   -1.741244    0.000000
      2          1           0       -0.775013   -2.311381    0.000000
      3          1           0        0.824127   -2.313371    0.000000
      4          8           0        0.025268    1.752961    0.000000
      5          1           0        0.490853    2.618257    0.000000
      6          1           0       -0.944253    1.912759    0.000000
 ---------------------------------------------------------------------

 SCF Done:  E(RHF) =  -33.6457154776     A.U. after   11 cycles
 E2 =    -0.2288921786D+00 EUMP2 =    -0.33874607656211D+02
 CCSD(T)
 CCSD(T)= -0.33891807164D+02

 The electronic state is 1-A'.
 Alpha  occ. eigenvalues --   -1.33999  -1.33697  -0.69620  -0.69299  -0.53774
 Alpha  occ. eigenvalues --   -0.52663  -0.48510  -0.48162
 Alpha virt. eigenvalues --    0.20917   0.22295   0.31687   0.31976   0.76436
 Alpha virt. eigenvalues --    0.80765   0.83661   0.85317   0.91008   1.01402
 Alpha virt. eigenvalues --    1.18658   1.19064   1.23209   1.23548   2.58301

 Mulliken charges:
               1
     1  O   -0.721037
     2  H    0.357264
     3  H    0.363867
     4  O   -0.719184
     5  H    0.355625
     6  H    0.363465
 Sum of Mulliken charges =   0.00000

 Dipole moment (field-independent basis, Debye):
    X=             -1.1453    Y=             -0.2891    Z=              0.0000  Tot=              1.1813
 Quadrupole moment (field-independent basis, Debye-Ang):
   XX=             -8.5194   YY=              5.6153   ZZ=            -14.9841
   XY=             -1.4088   XZ=              0.0000   YZ=              0.0000

 MP4DQ=-33.8860785\MP4SDQ=-33.8881459\CCSD=-33.8892044\CCSD(T)=-33.8918
 Normal termination of Gaussian 16 at Sun Dec 10 06:58:00 2023.
