 Gaussian 16, Revision A.03,
 Gaussian 16:  ES64L-G16RevA.03 25-Dec-2016

 ------------------
 #p CCSD(T)/CEP-31G
 ------------------

 ------------
 H2O_H2O_2716
 ------------
 Symbolic Z-matrix:
 Charge =  0 Multiplicity = 1

                         Standard orientation:
 ---------------------------------------------------------------------
 Center     Atomic      Atomic             Coordinates (Angstroms)
 Number     Number       Type             X           Y           Z
 ---------------------------------------------------------------------
      1          8           0        0.049516   -2.208641    0.000000
      2          1           0       -0.751141   -2.778250    0.000000
      3          1           0        0.847998   -2.781293    0.000000
      4          8           0        0.049516    2.265566    0.000000
      5          1           0       -0.043452    3.243759    0.000000
      6          1           0       -0.845657    1.860385    0.000000
 ---------------------------------------------------------------------

 SCF Done:  E(RHF) =  -33.6506779905     A.U. after   11 cycles
 E2 =    -0.2285073175D+00 EUMP2 =    -0.33879185307999D+02
 CCSD(T)
 CCSD(T)= -0.33896218703D+02

 The electronic state is 1-A'.
 Alpha  occ. eigenvalues --   -1.35188  -1.34307  -0.70818  -0.69903  -0.54860
 Alpha  occ. eigenvalues --   -0.53968  -0.49742  -0.48865
 Alpha virt. eigenvalues --    0.20394   0.21532   0.30742   0.31634   0.80787
 Alpha virt. eigenvalues --    0.81694   0.82339   0.85436   0.86999   0.89228
 Alpha virt. eigenvalues --    1.17667   1.18572   1.22107   1.23073   2.57715

 Mulliken charges:
               1
     1  O   -0.737328
     2  H    0.365412
     3  H    0.371968
     4  O   -0.735618
     5  H    0.362137
     6  H    0.373428
 Sum of Mulliken charges =   0.00000

 Dipole moment (field-independent basis, Debye):
    X=             -2.2706    Y=             -1.3564    Z=              0.0000  Tot=              2.6449
 Quadrupole moment (field-independent basis, Debye-Ang):
   XX=             -9.6286   YY=              7.0509   ZZ=            -14.9879
   XY=             -4.5199   XZ=              0.0000   YZ=              0.0000

 P4DQ=-33.8905629\MP4SDQ=-33.892596\CCSD=-33.8936501\CCSD(T)=-33.896218
 Normal termination of Gaussian 16 at Sun Dec 10 06:28:46 2023.
