 Gaussian 16, Revision A.03,
 Gaussian 16:  ES64L-G16RevA.03 25-Dec-2016

 ------------------
 #p CCSD(T)/CEP-31G
 ------------------

 ------------
 H2O_H2O_4337
 ------------
 Symbolic Z-matrix:
 Charge =  0 Multiplicity = 1

                         Standard orientation:
 ---------------------------------------------------------------------
 Center     Atomic      Atomic             Coordinates (Angstroms)
 Number     Number       Type             X           Y           Z
 ---------------------------------------------------------------------
      1          8           0        0.040404   -3.085670    0.000000
      2          1           0       -0.759807   -3.655906    0.000000
      3          1           0        0.839334   -3.657698    0.000000
      4          8           0        0.040404    3.119036    0.000000
      5          1           0        0.203021    4.088088    0.000000
      6          1           0       -0.929011    2.958591    0.000000
 ---------------------------------------------------------------------

 SCF Done:  E(RHF) =  -33.6510122329     A.U. after   11 cycles
 E2 =    -0.2284261609D+00 EUMP2 =    -0.33879438393887D+02
 CCSD(T)
 CCSD(T)= -0.33896461065D+02

 The electronic state is 1-A'.
 Alpha  occ. eigenvalues --   -1.35206  -1.34946  -0.70836  -0.70569  -0.54898
 Alpha  occ. eigenvalues --   -0.54637  -0.49766  -0.49506
 Alpha virt. eigenvalues --    0.20522   0.20787   0.30757   0.31013   0.80787
 Alpha virt. eigenvalues --    0.81044   0.83886   0.84143   0.86969   0.87269
 Alpha virt. eigenvalues --    1.17662   1.17920   1.22127   1.22386   2.57698

 Mulliken charges:
               1
     1  O   -0.738369
     2  H    0.368087
     3  H    0.370282
     4  O   -0.738064
     5  H    0.367263
     6  H    0.370801
 Sum of Mulliken charges =  -0.00000

 Dipole moment (field-independent basis, Debye):
    X=             -1.8645    Y=             -0.7808    Z=              0.0000  Tot=              2.0214
 Quadrupole moment (field-independent basis, Debye-Ang):
   XX=             -9.0974   YY=             17.0209   ZZ=            -14.9874
   XY=             -4.9676   XZ=              0.0000   YZ=              0.0000

 \MP4DQ=-33.8908109\MP4SDQ=-33.8928407\CCSD=-33.8938974\CCSD(T)=-33.896
 Normal termination of Gaussian 16 at Sun Dec 10 06:58:07 2023.
