 Gaussian 16, Revision A.03,
 Gaussian 16:  ES64L-G16RevA.03 25-Dec-2016

 ------------------
 #p CCSD(T)/CEP-31G
 ------------------

 ------------
 H2O_H2O_1673
 ------------
 Symbolic Z-matrix:
 Charge =  0 Multiplicity = 1

                         Standard orientation:
 ---------------------------------------------------------------------
 Center     Atomic      Atomic             Coordinates (Angstroms)
 Number     Number       Type             X           Y           Z
 ---------------------------------------------------------------------
      1          8           0        0.057147   -1.623330    0.000000
      2          1           0       -0.744092   -2.192120    0.000000
      3          1           0        0.855043   -2.196800    0.000000
      4          8           0        0.057147    1.729752    0.000000
      5          1           0       -0.458022    2.566476    0.000000
      6          1           0       -0.567280    0.971070    0.000000
 ---------------------------------------------------------------------

 SCF Done:  E(RHF) =  -33.6541234878     A.U. after   11 cycles
 E2 =    -0.2288472694D+00 EUMP2 =    -0.33882970757231D+02
 CCSD(T)
 CCSD(T)= -0.33899960039D+02

 The electronic state is 1-A'.
 Alpha  occ. eigenvalues --   -1.36194  -1.33043  -0.71841  -0.68622  -0.56067
 Alpha  occ. eigenvalues --   -0.52817  -0.50797  -0.47646
 Alpha virt. eigenvalues --    0.19020   0.24018   0.29863   0.33914   0.77232
 Alpha virt. eigenvalues --    0.78896   0.83780   0.86170   0.87878   1.02203
 Alpha virt. eigenvalues --    1.16689   1.20318   1.21464   1.28629   2.53566

 Mulliken charges:
               1
     1  O   -0.750018
     2  H    0.367475
     3  H    0.384167
     4  O   -0.746418
     5  H    0.352526
     6  H    0.392269
 Sum of Mulliken charges =   0.00000

 Dipole moment (field-independent basis, Debye):
    X=             -2.5816    Y=             -2.6568    Z=              0.0000  Tot=              3.7045
 Quadrupole moment (field-independent basis, Debye-Ang):
   XX=            -10.1315   YY=             -1.0856   ZZ=            -14.9959
   XY=             -4.6759   XZ=              0.0000   YZ=              0.0000

 MP4DQ=-33.8942373\MP4SDQ=-33.8963141\CCSD=-33.8973456\CCSD(T)=-33.8999
 Normal termination of Gaussian 16 at Sun Dec 10 06:55:59 2023.
