 Gaussian 16, Revision A.03,
 Gaussian 16:  ES64L-G16RevA.03 25-Dec-2016

 ------------------
 #p CCSD(T)/CEP-31G
 ------------------

 ------------
 H2O_H2O_1258
 ------------
 Symbolic Z-matrix:
 Charge =  0 Multiplicity = 1

                         Standard orientation:
 ---------------------------------------------------------------------
 Center     Atomic      Atomic             Coordinates (Angstroms)
 Number     Number       Type             X           Y           Z
 ---------------------------------------------------------------------
      1          8           0        0.028569   -1.460134    0.000000
      2          1           0       -0.771957   -2.029926    0.000000
      3          1           0        0.827183   -2.032604    0.000000
      4          8           0        0.028569    1.475341    0.000000
      5          1           0        0.436951    2.369060    0.000000
      6          1           0       -0.949285    1.571808    0.000000
 ---------------------------------------------------------------------

 SCF Done:  E(RHF) =  -33.6415856170     A.U. after   11 cycles
 E2 =    -0.2293327812D+00 EUMP2 =    -0.33870918398195D+02
 CCSD(T)
 CCSD(T)= -0.33888269797D+02

 The electronic state is 1-A'.
 Alpha  occ. eigenvalues --   -1.33558  -1.32992  -0.69172  -0.68591  -0.53927
 Alpha  occ. eigenvalues --   -0.51011  -0.48112  -0.47330
 Alpha virt. eigenvalues --    0.20939   0.23297   0.32008   0.32451   0.78448
 Alpha virt. eigenvalues --    0.79611   0.82665   0.86248   0.95498   1.12330
 Alpha virt. eigenvalues --    1.18970   1.20915   1.23746   1.24108   2.59236

 Mulliken charges:
               1
     1  O   -0.714010
     2  H    0.350843
     3  H    0.362573
     4  O   -0.707591
     5  H    0.349038
     6  H    0.359148
 Sum of Mulliken charges =  -0.00000

 Dipole moment (field-independent basis, Debye):
    X=             -1.2684    Y=             -0.3789    Z=              0.0000  Tot=              1.3238
 Quadrupole moment (field-independent basis, Debye-Ang):
   XX=             -8.6737   YY=              2.3777   ZZ=            -14.9858
   XY=             -1.2857   XZ=              0.0000   YZ=              0.0000

 \MP4DQ=-33.8824523\MP4SDQ=-33.8845515\CCSD=-33.8856265\CCSD(T)=-33.888
 Normal termination of Gaussian 16 at Sun Dec 10 06:48:16 2023.
