 Gaussian 16, Revision A.03,
 Gaussian 16:  ES64L-G16RevA.03 25-Dec-2016

 ------------------
 #p CCSD(T)/CEP-31G
 ------------------

 ------------
 H2O_H2O_4128
 ------------
 Symbolic Z-matrix:
 Charge =  0 Multiplicity = 1

                         Standard orientation:
 ---------------------------------------------------------------------
 Center     Atomic      Atomic             Coordinates (Angstroms)
 Number     Number       Type             X           Y           Z
 ---------------------------------------------------------------------
      1          8           0        0.011143   -2.996236    0.000000
      2          1           0       -0.788611   -3.567112    0.000000
      3          1           0        0.810531   -3.567624    0.000000
      4          8           0        0.011143    2.998424    0.000000
      5          1           0        0.684157    3.714354    0.000000
      6          1           0       -0.884358    3.402879    0.000000
 ---------------------------------------------------------------------

 SCF Done:  E(RHF) =  -33.6504215152     A.U. after   11 cycles
 E2 =    -0.2284523099D+00 EUMP2 =    -0.33878873825042D+02
 CCSD(T)
 CCSD(T)= -0.33895913477D+02

 The electronic state is 1-A'.
 Alpha  occ. eigenvalues --   -1.34940  -1.34921  -0.70566  -0.70548  -0.54598
 Alpha  occ. eigenvalues --   -0.54579  -0.49490  -0.49472
 Alpha virt. eigenvalues --    0.20756   0.20775   0.30987   0.31005   0.81063
 Alpha virt. eigenvalues --    0.81082   0.84202   0.84262   0.87280   0.87303
 Alpha virt. eigenvalues --    1.17904   1.17922   1.22373   1.22391   2.57954

 Mulliken charges:
               1
     1  O   -0.736267
     2  H    0.367795
     3  H    0.368472
     4  O   -0.736234
     5  H    0.367650
     6  H    0.368584
 Sum of Mulliken charges =  -0.00000

 Dipole moment (field-independent basis, Debye):
    X=             -0.5140    Y=             -0.0513    Z=              0.0000  Tot=              0.5166
 Quadrupole moment (field-independent basis, Debye-Ang):
   XX=             -8.1220   YY=             19.5504   ZZ=            -14.9865
   XY=             -1.2047   XZ=              0.0000   YZ=              0.0000

 \MP4DQ=-33.8902586\MP4SDQ=-33.89229\CCSD=-33.8933479\CCSD(T)=-33.89591
 Normal termination of Gaussian 16 at Sun Dec 10 06:54:27 2023.
