 Gaussian 16, Revision A.03,
 Gaussian 16:  ES64L-G16RevA.03 25-Dec-2016

 ------------------
 #p CCSD(T)/CEP-31G
 ------------------

 ------------
 H2O_H2O_2135
 ------------
 Symbolic Z-matrix:
 Charge =  0 Multiplicity = 1

                         Standard orientation:
 ---------------------------------------------------------------------
 Center     Atomic      Atomic             Coordinates (Angstroms)
 Number     Number       Type             X           Y           Z
 ---------------------------------------------------------------------
      1          8           0        0.034787   -1.920989    0.000000
      2          1           0       -0.765668   -2.490882    0.000000
      3          1           0        0.833472   -2.493358    0.000000
      4          8           0        0.034787    1.944486    0.000000
      5          1           0        0.322902    2.883899    0.000000
      6          1           0       -0.947290    1.912368    0.000000
 ---------------------------------------------------------------------

 SCF Done:  E(RHF) =  -33.6480582547     A.U. after   11 cycles
 E2 =    -0.2287107009D+00 EUMP2 =    -0.33876768955581D+02
 CCSD(T)
 CCSD(T)= -0.33893884093D+02

 The electronic state is 1-A'.
 Alpha  occ. eigenvalues --   -1.34476  -1.33985  -0.70101  -0.69583  -0.54080
 Alpha  occ. eigenvalues --   -0.53399  -0.48996  -0.48504
 Alpha virt. eigenvalues --    0.20743   0.21910   0.31324   0.31788   0.78512
 Alpha virt. eigenvalues --    0.81067   0.82522   0.86139   0.88546   0.95391
 Alpha virt. eigenvalues --    1.18271   1.18816   1.22766   1.23288   2.58078

 Mulliken charges:
               1
     1  O   -0.728370
     2  H    0.360780
     3  H    0.367714
     4  O   -0.726289
     5  H    0.358457
     6  H    0.367708
 Sum of Mulliken charges =   0.00000

 Dipole moment (field-independent basis, Debye):
    X=             -1.5855    Y=             -0.5699    Z=              0.0000  Tot=              1.6848
 Quadrupole moment (field-independent basis, Debye-Ang):
   XX=             -8.8539   YY=              6.8503   ZZ=            -14.9854
   XY=             -2.3403   XZ=              0.0000   YZ=              0.0000

 P4DQ=-33.8881953\MP4SDQ=-33.8902443\CCSD=-33.8912994\CCSD(T)=-33.89388
 Normal termination of Gaussian 16 at Sun Dec 10 07:05:50 2023.
