 Gaussian 16, Revision A.03,
 Gaussian 16:  ES64L-G16RevA.03 25-Dec-2016

 ------------------
 #p CCSD(T)/CEP-31G
 ------------------

 ------------
 H2O_H2O_2833
 ------------
 Symbolic Z-matrix:
 Charge =  0 Multiplicity = 1

                         Standard orientation:
 ---------------------------------------------------------------------
 Center     Atomic      Atomic             Coordinates (Angstroms)
 Number     Number       Type             X           Y           Z
 ---------------------------------------------------------------------
      1          8           0        0.028565   -2.297758    0.000000
      2          1           0       -0.771615   -2.868037    0.000000
      3          1           0        0.827526   -2.869742    0.000000
      4          8           0        0.028565    2.313001    0.000000
      5          1           0        0.436402    3.206967    0.000000
      6          1           0       -0.949349    2.408872    0.000000
 ---------------------------------------------------------------------

 SCF Done:  E(RHF) =  -33.6492524348     A.U. after   11 cycles
 E2 =    -0.2285453220D+00 EUMP2 =    -0.33877797756810D+02
 CCSD(T)
 CCSD(T)= -0.33894871711D+02

 The electronic state is 1-A'.
 Alpha  occ. eigenvalues --   -1.34671  -1.34452  -0.70296  -0.70067  -0.54271
 Alpha  occ. eigenvalues --   -0.54027  -0.49205  -0.48987
 Alpha virt. eigenvalues --    0.20898   0.21242   0.31192   0.31399   0.81304
 Alpha virt. eigenvalues --    0.81601   0.83090   0.85970   0.87619   0.88407
 Alpha virt. eigenvalues --    1.18124   1.18340   1.22606   1.22823   2.58202

 Mulliken charges:
               1
     1  O   -0.732313
     2  H    0.364386
     3  H    0.367935
     4  O   -0.731634
     5  H    0.363416
     6  H    0.368211
 Sum of Mulliken charges =   0.00000

 Dipole moment (field-independent basis, Debye):
    X=             -1.3111    Y=             -0.3622    Z=              0.0000  Tot=              1.3602
 Quadrupole moment (field-independent basis, Debye-Ang):
   XX=             -8.5863   YY=             11.1689   ZZ=            -14.9857
   XY=             -2.3173   XZ=              0.0000   YZ=              0.0000

 \MP4DQ=-33.8892062\MP4SDQ=-33.8912417\CCSD=-33.8923002\CCSD(T)=-33.894
 Normal termination of Gaussian 16 at Sun Dec 10 06:30:56 2023.
