 Gaussian 16, Revision A.03,
 Gaussian 16:  ES64L-G16RevA.03 25-Dec-2016

 ------------------
 #p CCSD(T)/CEP-31G
 ------------------

 ----------
 H2O_H2O_48
 ----------
 Symbolic Z-matrix:
 Charge =  0 Multiplicity = 1

                         Standard orientation:
 ---------------------------------------------------------------------
 Center     Atomic      Atomic             Coordinates (Angstroms)
 Number     Number       Type             X           Y           Z
 ---------------------------------------------------------------------
      1          8           0        0.057312   -0.759282    0.000000
      2          1           0       -0.745693   -1.325575    0.000000
      3          1           0        0.853419   -1.335233    0.000000
      4          8           0        0.057312    0.865347    0.000000
      5          1           0       -0.455249    1.703671    0.000000
      6          1           0       -0.569473    0.108613    0.000000
 ---------------------------------------------------------------------

 SCF Done:  E(RHF) =  -33.3916721891     A.U. after   12 cycles
 E2 =    -0.2366901624D+00 EUMP2 =    -0.33628362351407D+02
 CCSD(T)
 CCSD(T)= -0.33643452350D+02

 The electronic state is 1-A'.
 Alpha  occ. eigenvalues --   -1.48613  -1.26894  -0.84151  -0.75380  -0.58414
 Alpha  occ. eigenvalues --   -0.48349  -0.41273  -0.38962
 Alpha virt. eigenvalues --    0.18266   0.25736   0.32127   0.38027   0.77675
 Alpha virt. eigenvalues --    0.82814   0.90500   0.91642   0.97020   1.12129
 Alpha virt. eigenvalues --    1.17306   1.30964   1.33154   1.45154   2.92730

 Mulliken charges:
               1
     1  O   -0.722990
     2  H    0.354736
     3  H    0.471332
     4  O   -0.698255
     5  H    0.254677
     6  H    0.340500
 Sum of Mulliken charges =  -0.00000

 Dipole moment (field-independent basis, Debye):
    X=             -1.9455    Y=             -3.3792    Z=              0.0000  Tot=              3.8993
 Quadrupole moment (field-independent basis, Debye-Ang):
   XX=            -10.1039   YY=             -9.6003   ZZ=            -14.8258
   XY=             -2.1578   XZ=              0.0000   YZ=              0.0000

 P4DQ=-33.6361796\MP4SDQ=-33.6391623\CCSD=-33.6395139\CCSD(T)=-33.64345
 Normal termination of Gaussian 16 at Sun Dec 10 06:25:37 2023.
