 Gaussian 16, Revision A.03,
 Gaussian 16:  ES64L-G16RevA.03 25-Dec-2016

 ------------------
 #p CCSD(T)/CEP-31G
 ------------------

 -----------
 H2O_H2O_401
 -----------
 Symbolic Z-matrix:
 Charge =  0 Multiplicity = 1

                         Standard orientation:
 ---------------------------------------------------------------------
 Center     Atomic      Atomic             Coordinates (Angstroms)
 Number     Number       Type             X           Y           Z
 ---------------------------------------------------------------------
      1          8           0        0.003735   -1.016202    0.000000
      2          1           0       -0.796016   -1.587081    0.000000
      3          1           0        0.803126   -1.587587    0.000000
      4          8           0        0.003735    1.016444    0.000000
      5          1           0        0.764438    1.638407    0.000000
      6          1           0       -0.831314    1.534323    0.000000
 ---------------------------------------------------------------------

 SCF Done:  E(RHF) =  -33.5946897443     A.U. after   11 cycles
 E2 =    -0.2322722748D+00 EUMP2 =    -0.33826962019078D+02
 CCSD(T)
 CCSD(T)= -0.33844121476D+02

 The electronic state is 1-A'.
 Alpha  occ. eigenvalues --   -1.33104  -1.30468  -0.68220  -0.66385  -0.58664
 Alpha  occ. eigenvalues --   -0.48051  -0.44089  -0.41362
 Alpha virt. eigenvalues --    0.21581   0.25968   0.32861   0.33441   0.78210
 Alpha virt. eigenvalues --    0.80804   0.90258   0.95287   1.04181   1.20224
 Alpha virt. eigenvalues --    1.21594   1.22982   1.24000   1.27514   2.48641

 Mulliken charges:
               1
     1  O   -0.697913
     2  H    0.346788
     3  H    0.350955
     4  O   -0.697273
     5  H    0.349567
     6  H    0.347876
 Sum of Mulliken charges =   0.00000

 Dipole moment (field-independent basis, Debye):
    X=             -0.1454    Y=             -0.0057    Z=              0.0000  Tot=              0.1455
 Quadrupole moment (field-independent basis, Debye-Ang):
   XX=             -8.3436   YY=             -3.5809   ZZ=            -15.0263
   XY=             -0.0822   XZ=              0.0000   YZ=              0.0000

 P4DQ=-33.837919\MP4SDQ=-33.8401715\CCSD=-33.8411677\CCSD(T)=-33.844121
 Normal termination of Gaussian 16 at Sun Dec 10 06:32:16 2023.
