 Gaussian 16, Revision A.03,
 Gaussian 16:  ES64L-G16RevA.03 25-Dec-2016

 ------------------
 #p CCSD(T)/CEP-31G
 ------------------

 ------------
 H2O_H2O_1109
 ------------
 Symbolic Z-matrix:
 Charge =  0 Multiplicity = 1

                         Standard orientation:
 ---------------------------------------------------------------------
 Center     Atomic      Atomic             Coordinates (Angstroms)
 Number     Number       Type             X           Y           Z
 ---------------------------------------------------------------------
      1          8           0        0.031749   -1.378230    0.000000
      2          1           0       -0.768944   -1.947787    0.000000
      3          1           0        0.830195   -1.950935    0.000000
      4          8           0        0.031749    1.397356    0.000000
      5          1           0        0.381073    2.315767    0.000000
      6          1           0       -0.950311    1.429949    0.000000
 ---------------------------------------------------------------------

 SCF Done:  E(RHF) =  -33.6400064941     A.U. after   11 cycles
 E2 =    -0.2295481823D+00 EUMP2 =    -0.33869554676463D+02
 CCSD(T)
 CCSD(T)= -0.33886939230D+02

 The electronic state is 1-A'.
 Alpha  occ. eigenvalues --   -1.33509  -1.32717  -0.69118  -0.68323  -0.54156
 Alpha  occ. eigenvalues --   -0.50376  -0.48090  -0.47010
 Alpha virt. eigenvalues --    0.20880   0.23728   0.32049   0.32603   0.79262
 Alpha virt. eigenvalues --    0.80902   0.82223   0.87117   0.96567   1.14191
 Alpha virt. eigenvalues --    1.19009   1.22115   1.23790   1.24913   2.58420

 Mulliken charges:
               1
     1  O   -0.714806
     2  H    0.349166
     3  H    0.364103
     4  O   -0.703769
     5  H    0.347239
     6  H    0.358067
 Sum of Mulliken charges =  -0.00000

 Dipole moment (field-independent basis, Debye):
    X=             -1.3941    Y=             -0.4745    Z=              0.0000  Tot=              1.4727
 Quadrupole moment (field-independent basis, Debye-Ang):
   XX=             -8.8028   YY=              1.3136   ZZ=            -14.9878
   XY=             -1.3571   XZ=              0.0000   YZ=              0.0000

 \MP4DQ=-33.8810875\MP4SDQ=-33.8831981\CCSD=-33.8842778\CCSD(T)=-33.886
 Normal termination of Gaussian 16 at Sun Dec 10 06:45:29 2023.
