 Gaussian 16, Revision A.03,
 Gaussian 16:  ES64L-G16RevA.03 25-Dec-2016

 ------------------
 #p CCSD(T)/CEP-31G
 ------------------

 ------------
 H2O_H2O_2852
 ------------
 Symbolic Z-matrix:
 Charge =  0 Multiplicity = 1

                         Standard orientation:
 ---------------------------------------------------------------------
 Center     Atomic      Atomic             Coordinates (Angstroms)
 Number     Number       Type             X           Y           Z
 ---------------------------------------------------------------------
      1          8           0        0.007455   -2.318804    0.000000
      2          1           0       -0.792274   -2.889715    0.000000
      3          1           0        0.806868   -2.890157    0.000000
      4          8           0        0.007455    2.319777    0.000000
      5          1           0        0.725823    2.990189    0.000000
      6          1           0       -0.859696    2.781898    0.000000
 ---------------------------------------------------------------------

 SCF Done:  E(RHF) =  -33.6487973139     A.U. after   11 cycles
 E2 =    -0.2285552502D+00 EUMP2 =    -0.33877352564184D+02
 CCSD(T)
 CCSD(T)= -0.33894439307D+02

 The electronic state is 1-A'.
 Alpha  occ. eigenvalues --   -1.34500  -1.34486  -0.70123  -0.70108  -0.54112
 Alpha  occ. eigenvalues --   -0.53993  -0.49029  -0.49011
 Alpha virt. eigenvalues --    0.21015   0.21216   0.31319   0.31366   0.81435
 Alpha virt. eigenvalues --    0.81626   0.83251   0.86506   0.87645   0.88067
 Alpha virt. eigenvalues --    1.18277   1.18291   1.22739   1.22799   2.58340

 Mulliken charges:
               1
     1  O   -0.730697
     2  H    0.364891
     3  H    0.365806
     4  O   -0.730649
     5  H    0.364747
     6  H    0.365901
 Sum of Mulliken charges =  -0.00000

 Dipole moment (field-independent basis, Debye):
    X=             -0.3423    Y=             -0.0231    Z=              0.0000  Tot=              0.3431
 Quadrupole moment (field-independent basis, Debye-Ang):
   XX=             -8.1026   YY=             12.4127   ZZ=            -14.9851
   XY=             -0.5759   XZ=              0.0000   YZ=              0.0000

 P4DQ=-33.8887704\MP4SDQ=-33.8908069\CCSD=-33.8918667\CCSD(T)=-33.89443
 Normal termination of Gaussian 16 at Sun Dec 10 06:31:18 2023.
