 Gaussian 16, Revision A.03,
 Gaussian 16:  ES64L-G16RevA.03 25-Dec-2016

 ------------------
 #p CCSD(T)/CEP-31G
 ------------------

 -----------
 H2O_H2O_985
 -----------
 Symbolic Z-matrix:
 Charge =  0 Multiplicity = 1

                         Standard orientation:
 ---------------------------------------------------------------------
 Center     Atomic      Atomic             Coordinates (Angstroms)
 Number     Number       Type             X           Y           Z
 ---------------------------------------------------------------------
      1          8           0        0.034795   -1.309403    0.000000
      2          1           0       -0.766068   -1.878723    0.000000
      3          1           0        0.833070   -1.882345    0.000000
      4          8           0        0.034795    1.332850    0.000000
      5          1           0        0.323583    2.272056    0.000000
      6          1           0       -0.947305    1.301436    0.000000
 ---------------------------------------------------------------------

 SCF Done:  E(RHF) =  -33.6383403837     A.U. after   11 cycles
 E2 =    -0.2297810780D+00 EUMP2 =    -0.33868121461699D+02
 CCSD(T)
 CCSD(T)= -0.33885522088D+02

 The electronic state is 1-A'.
 Alpha  occ. eigenvalues --   -1.33521  -1.32455  -0.69126  -0.68088  -0.54431
 Alpha  occ. eigenvalues --   -0.49784  -0.48134  -0.46709
 Alpha virt. eigenvalues --    0.20794   0.24160   0.32045   0.32733   0.79022
 Alpha virt. eigenvalues --    0.81989   0.83890   0.87830   0.97220   1.14919
 Alpha virt. eigenvalues --    1.19026   1.22530   1.23792   1.26578   2.57553

 Mulliken charges:
               1
     1  O   -0.717562
     2  H    0.348115
     3  H    0.366442
     4  O   -0.700078
     5  H    0.345881
     6  H    0.357202
 Sum of Mulliken charges =   0.00000

 Dipole moment (field-independent basis, Debye):
    X=             -1.5104    Y=             -0.5790    Z=              0.0000  Tot=              1.6176
 Quadrupole moment (field-independent basis, Debye-Ang):
   XX=             -8.9345   YY=              0.3867   ZZ=            -14.9899
   XY=             -1.4323   XZ=              0.0000   YZ=              0.0000

 MP4DQ=-33.879636\MP4SDQ=-33.8817594\CCSD=-33.8828402\CCSD(T)=-33.88552
 Normal termination of Gaussian 16 at Sun Dec 10 06:43:11 2023.
