 Gaussian 16, Revision A.03,
 Gaussian 16:  ES64L-G16RevA.03 25-Dec-2016

 ------------------
 #p CCSD(T)/CEP-31G
 ------------------

 ------------
 H2O_H2O_2323
 ------------
 Symbolic Z-matrix:
 Charge =  0 Multiplicity = 1

                         Standard orientation:
 ---------------------------------------------------------------------
 Center     Atomic      Atomic             Coordinates (Angstroms)
 Number     Number       Type             X           Y           Z
 ---------------------------------------------------------------------
      1          8           0        0.057120   -1.968994    0.000000
      2          1           0       -0.743834   -2.538185    0.000000
      3          1           0        0.855303   -2.542064    0.000000
      4          8           0        0.057120    2.075473    0.000000
      5          1           0       -0.458467    2.911939    0.000000
      6          1           0       -0.566927    1.316479    0.000000
 ---------------------------------------------------------------------

 SCF Done:  E(RHF) =  -33.6531548554     A.U. after   11 cycles
 E2 =    -0.2285069887D+00 EUMP2 =    -0.33881661844148D+02
 CCSD(T)
 CCSD(T)= -0.33898632548D+02

 The electronic state is 1-A'.
 Alpha  occ. eigenvalues --   -1.35950  -1.33863  -0.71590  -0.69434  -0.55765
 Alpha  occ. eigenvalues --   -0.53614  -0.50539  -0.48453
 Alpha virt. eigenvalues --    0.19392   0.22475   0.30068   0.32406   0.79935
 Alpha virt. eigenvalues --    0.80890   0.82142   0.85540   0.86153   0.91280
 Alpha virt. eigenvalues --    1.16993   1.19445   1.21385   1.25198   2.56293

 Mulliken charges:
               1
     1  O   -0.745353
     2  H    0.368346
     3  H    0.377719
     4  O   -0.744631
     5  H    0.360023
     6  H    0.383895
 Sum of Mulliken charges =   0.00000

 Dipole moment (field-independent basis, Debye):
    X=             -2.6107    Y=             -2.5779    Z=              0.0000  Tot=              3.6690
 Quadrupole moment (field-independent basis, Debye-Ang):
   XX=            -10.1435   YY=              0.9952   ZZ=            -14.9923
   XY=             -5.5635   XZ=              0.0000   YZ=              0.0000

 7\MP4DQ=-33.8929749\MP4SDQ=-33.8950169\CCSD=-33.8960588\CCSD(T)=-33.89
 Normal termination of Gaussian 16 at Sun Dec 10 07:09:12 2023.
