 Gaussian 16, Revision A.03,
 Gaussian 16:  ES64L-G16RevA.03 25-Dec-2016

 ------------------
 #p CCSD(T)/CEP-31G
 ------------------

 ------------
 H2O_H2O_4439
 ------------
 Symbolic Z-matrix:
 Charge =  0 Multiplicity = 1

                         Standard orientation:
 ---------------------------------------------------------------------
 Center     Atomic      Atomic             Coordinates (Angstroms)
 Number     Number       Type             X           Y           Z
 ---------------------------------------------------------------------
      1          8           0        0.045339   -3.132765    0.000000
      2          1           0       -0.754938   -3.702908    0.000000
      3          1           0        0.844203   -3.704885    0.000000
      4          8           0        0.045339    3.177343    0.000000
      5          1           0        0.080192    4.159325    0.000000
      6          1           0       -0.894873    2.891845    0.000000
 ---------------------------------------------------------------------

 SCF Done:  E(RHF) =  -33.6512066341     A.U. after   11 cycles
 E2 =    -0.2284161024D+00 EUMP2 =    -0.33879622736513D+02
 CCSD(T)
 CCSD(T)= -0.33896639782D+02

 The electronic state is 1-A'.
 Alpha  occ. eigenvalues --   -1.35296  -1.34961  -0.70926  -0.70583  -0.54999
 Alpha  occ. eigenvalues --   -0.54661  -0.49859  -0.49524
 Alpha virt. eigenvalues --    0.20443   0.20785   0.30679   0.31012   0.80694
 Alpha virt. eigenvalues --    0.81025   0.83774   0.84107   0.86865   0.87245
 Alpha virt. eigenvalues --    1.17581   1.17914   1.22044   1.22379   2.57612

 Mulliken charges:
               1
     1  O   -0.739059
     2  H    0.368364
     3  H    0.370696
     4  O   -0.738738
     5  H    0.367374
     6  H    0.371363
 Sum of Mulliken charges =  -0.00000

 Dipole moment (field-independent basis, Debye):
    X=             -2.0926    Y=             -1.0427    Z=              0.0000  Tot=              2.3380
 Quadrupole moment (field-independent basis, Debye-Ang):
   XX=             -9.3721   YY=             16.0881   ZZ=            -14.9877
   XY=             -5.8479   XZ=              0.0000   YZ=              0.0000

 P4DQ=-33.8909911\MP4SDQ=-33.8930204\CCSD=-33.8940767\CCSD(T)=-33.89663
 Normal termination of Gaussian 16 at Sun Dec 10 06:59:54 2023.
