 Gaussian 16, Revision A.03,
 Gaussian 16:  ES64L-G16RevA.03 25-Dec-2016

 ------------------
 #p CCSD(T)/CEP-31G
 ------------------

 ------------
 H2O_H2O_1848
 ------------
 Symbolic Z-matrix:
 Charge =  0 Multiplicity = 1

                         Standard orientation:
 ---------------------------------------------------------------------
 Center     Atomic      Atomic             Coordinates (Angstroms)
 Number     Number       Type             X           Y           Z
 ---------------------------------------------------------------------
      1          8           0        0.057139   -1.716393    0.000000
      2          1           0       -0.744013   -2.285306    0.000000
      3          1           0        0.855123   -2.289739    0.000000
      4          8           0        0.057139    1.822832    0.000000
      5          1           0       -0.458159    2.659477    0.000000
      6          1           0       -0.567171    1.064054    0.000000
 ---------------------------------------------------------------------

 SCF Done:  E(RHF) =  -33.6538579336     A.U. after   11 cycles
 E2 =    -0.2287192379D+00 EUMP2 =    -0.33882577171521D+02
 CCSD(T)
 CCSD(T)= -0.33899559430D+02

 The electronic state is 1-A'.
 Alpha  occ. eigenvalues --   -1.36114  -1.33309  -0.71758  -0.68870  -0.55975
 Alpha  occ. eigenvalues --   -0.53074  -0.50713  -0.47908
 Alpha virt. eigenvalues --    0.19079   0.23524   0.29917   0.33393   0.78137
 Alpha virt. eigenvalues --    0.79312   0.83153   0.85904   0.86996   0.98492
 Alpha virt. eigenvalues --    1.16797   1.20171   1.21369   1.27767   2.54249

 Mulliken charges:
               1
     1  O   -0.748010
     2  H    0.367746
     3  H    0.381711
     4  O   -0.746194
     5  H    0.355080
     6  H    0.389668
 Sum of Mulliken charges =  -0.00000

 Dipole moment (field-independent basis, Debye):
    X=             -2.5928    Y=             -2.6324    Z=              0.0000  Tot=              3.6949
 Quadrupole moment (field-independent basis, Debye-Ang):
   XX=            -10.1354   YY=             -0.5114   ZZ=            -14.9945
   XY=             -4.9149   XZ=              0.0000   YZ=              0.0000

 6\MP4DQ=-33.8938615\MP4SDQ=-33.8959265\CCSD=-33.896961\CCSD(T)=-33.899
 Normal termination of Gaussian 16 at Sun Dec 10 06:59:13 2023.
