 Gaussian 16, Revision A.03,
 Gaussian 16:  ES64L-G16RevA.03 25-Dec-2016

 ------------------
 #p CCSD(T)/CEP-31G
 ------------------

 ------------
 H2O_H2O_3611
 ------------
 Symbolic Z-matrix:
 Charge =  0 Multiplicity = 1

                         Standard orientation:
 ---------------------------------------------------------------------
 Center     Atomic      Atomic             Coordinates (Angstroms)
 Number     Number       Type             X           Y           Z
 ---------------------------------------------------------------------
      1          8           0        0.037674   -2.702864    0.000000
      2          1           0       -0.762578   -3.273041    0.000000
      3          1           0        0.836563   -3.274949    0.000000
      4          8           0        0.037674    2.731120    0.000000
      5          1           0        0.263391    3.687446    0.000000
      6          1           0       -0.940166    2.634492    0.000000
 ---------------------------------------------------------------------

 SCF Done:  E(RHF) =  -33.6505132442     A.U. after   11 cycles
 E2 =    -0.2284611541D+00 EUMP2 =    -0.33878974398278D+02
 CCSD(T)
 CCSD(T)= -0.33896011530D+02

 The electronic state is 1-A'.
 Alpha  occ. eigenvalues --   -1.35041  -1.34751  -0.70669  -0.70370  -0.54704
 Alpha  occ. eigenvalues --   -0.54413  -0.49594  -0.49305
 Alpha virt. eigenvalues --    0.20658   0.20956   0.30893   0.31175   0.80959
 Alpha virt. eigenvalues --    0.81244   0.84041   0.84457   0.87168   0.87527
 Alpha virt. eigenvalues --    1.17806   1.18093   1.22275   1.22563   2.57854

 Mulliken charges:
               1
     1  O   -0.736644
     2  H    0.366837
     3  H    0.369807
     4  O   -0.736132
     5  H    0.365807
     6  H    0.370325
 Sum of Mulliken charges =  -0.00000

 Dipole moment (field-independent basis, Debye):
    X=             -1.7355    Y=             -0.6646    Z=              0.0000  Tot=              1.8584
 Quadrupole moment (field-independent basis, Debye-Ang):
   XX=             -8.9627   YY=             14.0153   ZZ=            -14.9869
   XY=             -3.9096   XZ=              0.0000   YZ=              0.0000

 MP4DQ=-33.8903572\MP4SDQ=-33.8923885\CCSD=-33.8934458\CCSD(T)=-33.8960
 Normal termination of Gaussian 16 at Sun Dec 10 06:44:55 2023.
