 Gaussian 16, Revision A.03,
 Gaussian 16:  ES64L-G16RevA.03 25-Dec-2016

 ------------------
 #p CCSD(T)/CEP-31G
 ------------------

 -----------
 H2O_H2O_588
 -----------
 Symbolic Z-matrix:
 Charge =  0 Multiplicity = 1

                         Standard orientation:
 ---------------------------------------------------------------------
 Center     Atomic      Atomic             Coordinates (Angstroms)
 Number     Number       Type             X           Y           Z
 ---------------------------------------------------------------------
      1          8           0        0.043005   -1.088424    0.000000
      2          1           0       -0.758468   -1.656884    0.000000
      3          1           0        0.840665   -1.662221    0.000000
      4          8           0        0.043005    1.127049    0.000000
      5          1           0        0.144061    2.104440    0.000000
      6          1           0       -0.914333    0.905666    0.000000
 ---------------------------------------------------------------------

 SCF Done:  E(RHF) =  -33.6239846251     A.U. after   11 cycles
 E2 =    -0.2310880899D+00 EUMP2 =    -0.33855072714994D+02
 CCSD(T)
 CCSD(T)= -0.33872422417D+02

 The electronic state is 1-A'.
 Alpha  occ. eigenvalues --   -1.34053  -1.31358  -0.69647  -0.67591  -0.55669
 Alpha  occ. eigenvalues --   -0.48798  -0.47096  -0.45453
 Alpha virt. eigenvalues --    0.20432   0.25969   0.31746   0.33259   0.79038
 Alpha virt. eigenvalues --    0.83608   0.89628   0.95292   0.99020   1.14171
 Alpha virt. eigenvalues --    1.19047   1.22647   1.24345   1.31209   2.55012

 Mulliken charges:
               1
     1  O   -0.741290
     2  H    0.347368
     3  H    0.379878
     4  O   -0.680742
     5  H    0.340543
     6  H    0.354243
 Sum of Mulliken charges =  -0.00000

 Dipole moment (field-independent basis, Debye):
    X=             -1.7664    Y=             -0.9427    Z=              0.0000  Tot=              2.0022
 Quadrupole moment (field-independent basis, Debye-Ang):
   XX=             -9.3408   YY=             -2.7238   ZZ=            -14.9975
   XY=             -1.5630   XZ=              0.0000   YZ=              0.0000

 P4DQ=-33.8663525\MP4SDQ=-33.8685664\CCSD=-33.8696035\CCSD(T)=-33.87242
 Normal termination of Gaussian 16 at Sun Dec 10 06:35:44 2023.
