 Gaussian 16, Revision A.03,
 Gaussian 16:  ES64L-G16RevA.03 25-Dec-2016

 ------------------
 #p CCSD(T)/CEP-31G
 ------------------

 ------------
 H2O_H2O_2396
 ------------
 Symbolic Z-matrix:
 Charge =  0 Multiplicity = 1

                         Standard orientation:
 ---------------------------------------------------------------------
 Center     Atomic      Atomic             Coordinates (Angstroms)
 Number     Number       Type             X           Y           Z
 ---------------------------------------------------------------------
      1          8           0        0.056123   -2.016919    0.000000
      2          1           0       -0.744781   -2.586180    0.000000
      3          1           0        0.854357   -2.589918    0.000000
      4          8           0        0.056123    2.108599    0.000000
      5          1           0       -0.345951    3.005171    0.000000
      6          1           0       -0.661595    1.437489    0.000000
 ---------------------------------------------------------------------

 SCF Done:  E(RHF) =  -33.6522618834     A.U. after   11 cycles
 E2 =    -0.2285106315D+00 EUMP2 =    -0.33880772514935D+02
 CCSD(T)
 CCSD(T)= -0.33897764372D+02

 The electronic state is 1-A'.
 Alpha  occ. eigenvalues --   -1.35693  -1.33982  -0.71331  -0.69557  -0.55456
 Alpha  occ. eigenvalues --   -0.53704  -0.50270  -0.48562
 Alpha virt. eigenvalues --    0.19696   0.22201   0.30280   0.32146   0.80215
 Alpha virt. eigenvalues --    0.80828   0.82028   0.85595   0.86343   0.91117
 Alpha virt. eigenvalues --    1.17219   1.19205   1.21601   1.24253   2.56899

 Mulliken charges:
               1
     1  O   -0.742543
     2  H    0.367005
     3  H    0.375962
     4  O   -0.740967
     5  H    0.360304
     6  H    0.380239
 Sum of Mulliken charges =   0.00000

 Dipole moment (field-independent basis, Debye):
    X=             -2.5669    Y=             -2.2098    Z=              0.0000  Tot=              3.3871
 Quadrupole moment (field-independent basis, Debye-Ang):
   XX=            -10.0719   YY=              2.6284   ZZ=            -14.9908
   XY=             -5.3047   XZ=              0.0000   YZ=              0.0000

 \MP4DQ=-33.892109\MP4SDQ=-33.8941471\CCSD=-33.895193\CCSD(T)=-33.89776
 Normal termination of Gaussian 16 at Sun Dec 10 07:10:31 2023.
