 Gaussian 16, Revision A.03,
 Gaussian 16:  ES64L-G16RevA.03 25-Dec-2016

 ------------------
 #p CCSD(T)/CEP-31G
 ------------------

 -----------
 H2O_H2O_896
 -----------
 Symbolic Z-matrix:
 Charge =  0 Multiplicity = 1

                         Standard orientation:
 ---------------------------------------------------------------------
 Center     Atomic      Atomic             Coordinates (Angstroms)
 Number     Number       Type             X           Y           Z
 ---------------------------------------------------------------------
      1          8           0        0.056191   -1.219251    0.000000
      2          1           0       -0.745552   -1.787331    0.000000
      3          1           0        0.853579   -1.793426    0.000000
      4          8           0        0.056191    1.310765    0.000000
      5          1           0       -0.344561    2.207929    0.000000
      6          1           0       -0.662516    0.640714    0.000000
 ---------------------------------------------------------------------

 SCF Done:  E(RHF) =  -33.6465764653     A.U. after   11 cycles
 E2 =    -0.2300998395D+00 EUMP2 =    -0.33876676304787D+02
 CCSD(T)
 CCSD(T)= -0.33893680835D+02

 The electronic state is 1-A'.
 Alpha  occ. eigenvalues --   -1.36221  -1.31520  -0.71899  -0.68036  -0.55121
 Alpha  occ. eigenvalues --   -0.51263  -0.50809  -0.46059
 Alpha virt. eigenvalues --    0.19186   0.26319   0.29938   0.35275   0.77153
 Alpha virt. eigenvalues --    0.81994   0.88104   0.88906   0.95842   1.13668
 Alpha virt. eigenvalues --    1.19529   1.19848   1.23607   1.30478   2.66293

 Mulliken charges:
               1
     1  O   -0.763767
     2  H    0.362827
     3  H    0.399744
     4  O   -0.719974
     5  H    0.334195
     6  H    0.386974
 Sum of Mulliken charges =  -0.00000

 Dipole moment (field-independent basis, Debye):
    X=             -2.4094    Y=             -2.3780    Z=              0.0000  Tot=              3.3853
 Quadrupole moment (field-independent basis, Debye-Ang):
   XX=            -10.0519   YY=             -3.1080   ZZ=            -15.0021
   XY=             -3.2798   XZ=              0.0000   YZ=              0.0000

 \MP4DQ=-33.8877386\MP4SDQ=-33.8899153\CCSD=-33.8909152\CCSD(T)=-33.893
 Normal termination of Gaussian 16 at Sun Dec 10 06:41:31 2023.
