 Gaussian 16, Revision A.03,
 Gaussian 16:  ES64L-G16RevA.03 25-Dec-2016

 ------------------
 #p CCSD(T)/CEP-31G
 ------------------

 ------------
 H2O_H2O_2389
 ------------
 Symbolic Z-matrix:
 Charge =  0 Multiplicity = 1

                         Standard orientation:
 ---------------------------------------------------------------------
 Center     Atomic      Atomic             Coordinates (Angstroms)
 Number     Number       Type             X           Y           Z
 ---------------------------------------------------------------------
      1          8           0        0.045353   -2.042531    0.000000
      2          1           0       -0.755295   -2.612152    0.000000
      3          1           0        0.843844   -2.615173    0.000000
      4          8           0        0.045353    2.087050    0.000000
      5          1           0        0.080847    3.069010    0.000000
      6          1           0       -0.895045    1.802166    0.000000
 ---------------------------------------------------------------------

 SCF Done:  E(RHF) =  -33.6497773985     A.U. after   11 cycles
 E2 =    -0.2285945597D+00 EUMP2 =    -0.33878371958243D+02
 CCSD(T)
 CCSD(T)= -0.33895433320D+02

 The electronic state is 1-A'.
 Alpha  occ. eigenvalues --   -1.34935  -1.34121  -0.70564  -0.69712  -0.54563
 Alpha  occ. eigenvalues --   -0.53719  -0.49477  -0.48667
 Alpha virt. eigenvalues --    0.20474   0.21772   0.30936   0.31762   0.80386
 Alpha virt. eigenvalues --    0.80929   0.82014   0.85899   0.87400   0.92083
 Alpha virt. eigenvalues --    1.17881   1.18761   1.22314   1.23246   2.57864

 Mulliken charges:
               1
     1  O   -0.734221
     2  H    0.363409
     3  H    0.370929
     4  O   -0.731921
     5  H    0.360069
     6  H    0.371735
 Sum of Mulliken charges =  -0.00000

 Dipole moment (field-independent basis, Debye):
    X=             -2.0732    Y=             -1.0695    Z=              0.0000  Tot=              2.3328
 Quadrupole moment (field-independent basis, Debye-Ang):
   XX=             -9.3794   YY=              6.6127   ZZ=            -14.9871
   XY=             -3.6121   XZ=              0.0000   YZ=              0.0000

 P4DQ=-33.8897657\MP4SDQ=-33.8918049\CCSD=-33.8928584\CCSD(T)=-33.89543
 Normal termination of Gaussian 16 at Sun Dec 10 07:10:23 2023.
