 Gaussian 16, Revision A.03,
 Gaussian 16:  ES64L-G16RevA.03 25-Dec-2016

 ------------------
 #p CCSD(T)/CEP-31G
 ------------------

 -----------
 H2O_H2O_456
 -----------
 Symbolic Z-matrix:
 Charge =  0 Multiplicity = 1

                         Standard orientation:
 ---------------------------------------------------------------------
 Center     Atomic      Atomic             Coordinates (Angstroms)
 Number     Number       Type             X           Y           Z
 ---------------------------------------------------------------------
      1          8           0        0.021864   -1.038245    0.000000
      2          1           0       -0.778736   -1.607933    0.000000
      3          1           0        0.820403   -1.610819    0.000000
      4          8           0        0.021864    1.046861    0.000000
      5          1           0        0.543513    1.879561    0.000000
      6          1           0       -0.935004    1.270262    0.000000
 ---------------------------------------------------------------------

 SCF Done:  E(RHF) =  -33.6046433129     A.U. after   11 cycles
 E2 =    -0.2317723330D+00 EUMP2 =    -0.33836415645902D+02
 CCSD(T)
 CCSD(T)= -0.33853669183D+02

 The electronic state is 1-A'.
 Alpha  occ. eigenvalues --   -1.33202  -1.30792  -0.68496  -0.66783  -0.57681
 Alpha  occ. eigenvalues --   -0.48111  -0.44518  -0.43019
 Alpha virt. eigenvalues --    0.21305   0.25850   0.32630   0.33290   0.79737
 Alpha virt. eigenvalues --    0.80345   0.90137   0.97823   1.00830   1.17289
 Alpha virt. eigenvalues --    1.19999   1.23290   1.25508   1.28114   2.49777

 Mulliken charges:
               1
     1  O   -0.710786
     2  H    0.341897
     3  H    0.363417
     4  O   -0.690239
     5  H    0.350803
     6  H    0.344909
 Sum of Mulliken charges =  -0.00000

 Dipole moment (field-independent basis, Debye):
    X=             -0.8662    Y=             -0.2029    Z=              0.0000  Tot=              0.8897
 Quadrupole moment (field-independent basis, Debye-Ang):
   XX=             -8.5977   YY=             -3.1641   ZZ=            -15.0151
   XY=             -0.5545   XZ=              0.0000   YZ=              0.0000

 MP4DQ=-33.8475208\MP4SDQ=-33.8497496\CCSD=-33.8507712\CCSD(T)=-33.8536
 Normal termination of Gaussian 16 at Sun Dec 10 06:33:18 2023.
