 Gaussian 16, Revision A.03,
 Gaussian 16:  ES64L-G16RevA.03 25-Dec-2016

 ------------------
 #p CCSD(T)/CEP-31G
 ------------------

 ------------
 H2O_H2O_2586
 ------------
 Symbolic Z-matrix:
 Charge =  0 Multiplicity = 1

                         Standard orientation:
 ---------------------------------------------------------------------
 Center     Atomic      Atomic             Coordinates (Angstroms)
 Number     Number       Type             X           Y           Z
 ---------------------------------------------------------------------
      1          8           0        0.037679   -2.157743    0.000000
      2          1           0       -0.762744   -2.727681    0.000000
      3          1           0        0.836396   -2.730068    0.000000
      4          8           0        0.037679    2.185977    0.000000
      5          1           0        0.263682    3.142235    0.000000
      6          1           0       -0.940190    2.089642    0.000000
 ---------------------------------------------------------------------

 SCF Done:  E(RHF) =  -33.6493329515     A.U. after   11 cycles
 E2 =    -0.2285724402D+00 EUMP2 =    -0.33877905391795D+02
 CCSD(T)
 CCSD(T)= -0.33894977859D+02

 The electronic state is 1-A'.
 Alpha  occ. eigenvalues --   -1.34752  -1.34291  -0.70379  -0.69896  -0.54358
 Alpha  occ. eigenvalues --   -0.53866  -0.49288  -0.48829
 Alpha virt. eigenvalues --    0.20752   0.21471   0.31113   0.31558   0.81177
 Alpha virt. eigenvalues --    0.81799   0.81843   0.86048   0.87591   0.89986
 Alpha virt. eigenvalues --    1.18047   1.18511   1.22521   1.22995   2.58107

 Mulliken charges:
               1
     1  O   -0.732654
     2  H    0.363604
     3  H    0.369085
     4  O   -0.731223
     5  H    0.361692
     6  H    0.369495
 Sum of Mulliken charges =  -0.00000

 Dipole moment (field-independent basis, Debye):
    X=             -1.7259    Y=             -0.6744    Z=              0.0000  Tot=              1.8530
 Quadrupole moment (field-independent basis, Debye-Ang):
   XX=             -8.9741   YY=              8.8445   ZZ=            -14.9861
   XY=             -2.9870   XZ=              0.0000   YZ=              0.0000

 MP4DQ=-33.8893108\MP4SDQ=-33.8913479\CCSD=-33.8924046\CCSD(T)=-33.8949
 Normal termination of Gaussian 16 at Sun Dec 10 06:26:20 2023.
