 Gaussian 16, Revision A.03,
 Gaussian 16:  ES64L-G16RevA.03 25-Dec-2016

 ------------------
 #p CCSD(T)/CEP-31G
 ------------------

 ------------
 H2O_H2O_4859
 ------------
 Symbolic Z-matrix:
 Charge =  0 Multiplicity = 1

                         Standard orientation:
 ---------------------------------------------------------------------
 Center     Atomic      Atomic             Coordinates (Angstroms)
 Number     Number       Type             X           Y           Z
 ---------------------------------------------------------------------
      1          8           0        0.031738   -3.372578    0.000000
      2          1           0       -0.768294   -3.943064    0.000000
      3          1           0        0.830848   -3.944356    0.000000
      4          8           0        0.031738    3.391778    0.000000
      5          1           0        0.379995    4.310594    0.000000
      6          1           0       -0.950360    3.423231    0.000000
 ---------------------------------------------------------------------

 SCF Done:  E(RHF) =  -33.6510384547     A.U. after   11 cycles
 E2 =    -0.2284192845D+00 EUMP2 =    -0.33879457739199D+02
 CCSD(T)
 CCSD(T)= -0.33896479735D+02

 The electronic state is 1-A'.
 Alpha  occ. eigenvalues --   -1.35185  -1.35060  -0.70814  -0.70686  -0.54878
 Alpha  occ. eigenvalues --   -0.54753  -0.49745  -0.49620
 Alpha virt. eigenvalues --    0.20545   0.20672   0.30779   0.30902   0.80808
 Alpha virt. eigenvalues --    0.80932   0.83905   0.84028   0.86990   0.87133
 Alpha virt. eigenvalues --    1.17684   1.17809   1.22148   1.22273   2.57720

 Mulliken charges:
               1
     1  O   -0.738442
     2  H    0.368538
     3  H    0.369903
     4  O   -0.738303
     5  H    0.368102
     6  H    0.370201
 Sum of Mulliken charges =   0.00000

 Dipole moment (field-independent basis, Debye):
    X=             -1.4658    Y=             -0.4482    Z=              0.0000  Tot=              1.5328
 Quadrupole moment (field-independent basis, Debye-Ang):
   XX=             -8.6895   YY=             21.4543   ZZ=            -14.9873
   XY=             -4.1624   XZ=              0.0000   YZ=              0.0000

 \MP4DQ=-33.8908298\MP4SDQ=-33.8928594\CCSD=-33.8939163\CCSD(T)=-33.896
 Normal termination of Gaussian 16 at Sun Dec 10 07:09:14 2023.
