 Gaussian 16, Revision A.03,
 Gaussian 16:  ES64L-G16RevA.03 25-Dec-2016

 ------------------
 #p CCSD(T)/CEP-31G
 ------------------

 ------------
 H2O_H2O_3553
 ------------
 Symbolic Z-matrix:
 Charge =  0 Multiplicity = 1

                         Standard orientation:
 ---------------------------------------------------------------------
 Center     Atomic      Atomic             Coordinates (Angstroms)
 Number     Number       Type             X           Y           Z
 ---------------------------------------------------------------------
      1          8           0        0.011143   -2.690430    0.000000
      2          1           0       -0.788632   -3.261277    0.000000
      3          1           0        0.810510   -3.261847    0.000000
      4          8           0        0.011143    2.692617    0.000000
      5          1           0        0.684183    3.408524    0.000000
      6          1           0       -0.884343    3.097105    0.000000
 ---------------------------------------------------------------------

 SCF Done:  E(RHF) =  -33.6498927850     A.U. after   11 cycles
 E2 =    -0.2284845213D+00 EUMP2 =    -0.33878377306326D+02
 CCSD(T)
 CCSD(T)= -0.33895432198D+02

 The electronic state is 1-A'.
 Alpha  occ. eigenvalues --   -1.34784  -1.34761  -0.70409  -0.70385  -0.54413
 Alpha  occ. eigenvalues --   -0.54385  -0.49327  -0.49304
 Alpha virt. eigenvalues --    0.20875   0.20915   0.31112   0.31135   0.81223
 Alpha virt. eigenvalues --    0.81252   0.84238   0.84673   0.87461   0.87510
 Alpha virt. eigenvalues --    1.18038   1.18060   1.22512   1.22535   2.58098

 Mulliken charges:
               1
     1  O   -0.734441
     2  H    0.366765
     3  H    0.367676
     4  O   -0.734386
     5  H    0.366585
     6  H    0.367801
 Sum of Mulliken charges =  -0.00000

 Dipole moment (field-independent basis, Debye):
    X=             -0.5133    Y=             -0.0515    Z=              0.0000  Tot=              0.5158
 Quadrupole moment (field-independent basis, Debye-Ang):
   XX=             -8.1300   YY=             16.3007   ZZ=            -14.9860
   XY=             -1.0506   XZ=              0.0000   YZ=              0.0000

 \MP4DQ=-33.8897731\MP4SDQ=-33.8918059\CCSD=-33.8928645\CCSD(T)=-33.895
 Normal termination of Gaussian 16 at Sun Dec 10 06:43:51 2023.
