 Gaussian 16, Revision A.03,
 Gaussian 16:  ES64L-G16RevA.03 25-Dec-2016

 ------------------
 #p CCSD(T)/CEP-31G
 ------------------

 ------------
 H2O_H2O_2580
 ------------
 Symbolic Z-matrix:
 Charge =  0 Multiplicity = 1

                         Standard orientation:
 ---------------------------------------------------------------------
 Center     Atomic      Atomic             Coordinates (Angstroms)
 Number     Number       Type             X           Y           Z
 ---------------------------------------------------------------------
      1          8           0        0.018361   -2.169799    0.000000
      2          1           0       -0.781626   -2.740350    0.000000
      3          1           0        0.817516   -2.741513    0.000000
      4          8           0        0.018361    2.175835    0.000000
      5          1           0        0.592495    2.973253    0.000000
      6          1           0       -0.922155    2.460328    0.000000
 ---------------------------------------------------------------------

 SCF Done:  E(RHF) =  -33.6483869529     A.U. after   11 cycles
 E2 =    -0.2285981446D+00 EUMP2 =    -0.33876985097523D+02
 CCSD(T)
 CCSD(T)= -0.33894084262D+02

 The electronic state is 1-A'.
 Alpha  occ. eigenvalues --   -1.34431  -1.34333  -0.70054  -0.69951  -0.54034
 Alpha  occ. eigenvalues --   -0.53797  -0.48955  -0.48854
 Alpha virt. eigenvalues --    0.21006   0.21398   0.31376   0.31483   0.81424
 Alpha virt. eigenvalues --    0.81863   0.82025   0.86960   0.88043   0.89231
 Alpha virt. eigenvalues --    1.18329   1.18425   1.22806   1.22934   2.58339

 Mulliken charges:
               1
     1  O   -0.729333
     2  H    0.363328
     3  H    0.366013
     4  O   -0.728951
     5  H    0.362774
     6  H    0.366169
 Sum of Mulliken charges =   0.00000

 Dipole moment (field-independent basis, Debye):
    X=             -0.8414    Y=             -0.1443    Z=              0.0000  Tot=              0.8537
 Quadrupole moment (field-independent basis, Debye-Ang):
   XX=             -8.2901   YY=             10.4792   ZZ=            -14.9849
   XY=             -1.3288   XZ=              0.0000   YZ=              0.0000

 4DQ=-33.88841\MP4SDQ=-33.8904492\CCSD=-33.8915085\CCSD(T)=-33.8940843\
 Normal termination of Gaussian 16 at Sun Dec 10 06:26:13 2023.
