 Gaussian 16, Revision A.03,
 Gaussian 16:  ES64L-G16RevA.03 25-Dec-2016

 ------------------
 #p CCSD(T)/CEP-31G
 ------------------

 ------------
 H2O_H2O_4842
 ------------
 Symbolic Z-matrix:
 Charge =  0 Multiplicity = 1

                         Standard orientation:
 ---------------------------------------------------------------------
 Center     Atomic      Atomic             Coordinates (Angstroms)
 Number     Number       Type             X           Y           Z
 ---------------------------------------------------------------------
      1          8           0        0.051265   -3.335185    0.000000
      2          1           0       -0.749053   -3.905269    0.000000
      3          1           0        0.850087   -3.907363    0.000000
      4          8           0        0.051265    3.398756    0.000000
      5          1           0       -0.106056    4.368682    0.000000
      6          1           0       -0.815217    2.935381    0.000000
 ---------------------------------------------------------------------

 SCF Done:  E(RHF) =  -33.6515274421     A.U. after   11 cycles
 E2 =    -0.2283966051D+00 EUMP2 =    -0.33879924047256D+02
 CCSD(T)
 CCSD(T)= -0.33896931834D+02

 The electronic state is 1-A'.
 Alpha  occ. eigenvalues --   -1.35447  -1.35031  -0.71078  -0.70654  -0.55167
 Alpha  occ. eigenvalues --   -0.54748  -0.50014  -0.49598
 Alpha virt. eigenvalues --    0.20310   0.20736   0.30548   0.30966   0.80538
 Alpha virt. eigenvalues --    0.80949   0.83588   0.84004   0.86690   0.87147
 Alpha virt. eigenvalues --    1.17444   1.17858   1.21904   1.22323   2.57467

 Mulliken charges:
               1
     1  O   -0.740196
     2  H    0.369019
     3  H    0.371177
     4  O   -0.739952
     5  H    0.367923
     6  H    0.372029
 Sum of Mulliken charges =   0.00000

 Dipole moment (field-independent basis, Debye):
    X=             -2.3674    Y=             -1.4845    Z=              0.0000  Tot=              2.7943
 Quadrupole moment (field-independent basis, Debye-Ang):
   XX=             -9.7452   YY=             15.2344   ZZ=            -14.9882
   XY=             -7.4253   XZ=              0.0000   YZ=              0.0000

 MP4DQ=-33.8912857\MP4SDQ=-33.8933141\CCSD=-33.8943699\CCSD(T)=-33.8969
 Normal termination of Gaussian 16 at Sun Dec 10 07:08:55 2023.
