 Gaussian 16, Revision A.03,
 Gaussian 16:  ES64L-G16RevA.03 25-Dec-2016

 ------------------
 #p CCSD(T)/CEP-31G
 ------------------

 ------------
 H2O_H2O_1150
 ------------
 Symbolic Z-matrix:
 Charge =  0 Multiplicity = 1

                         Standard orientation:
 ---------------------------------------------------------------------
 Center     Atomic      Atomic             Coordinates (Angstroms)
 Number     Number       Type             X           Y           Z
 ---------------------------------------------------------------------
      1          8           0        0.000000    0.000000   -1.415211
      2          1           0        0.000000    0.799571   -1.986343
      3          1           0       -0.000000   -0.799571   -1.986343
      4          8           0       -0.000000    0.000000    1.415211
      5          1           0       -0.000000   -0.799571    1.986343
      6          1           0       -0.000000    0.799571    1.986343
 ---------------------------------------------------------------------

 SCF Done:  E(RHF) =  -33.6379195282     A.U. after   10 cycles
 E2 =    -0.2294202364D+00 EUMP2 =    -0.33867339764573D+02
 CCSD(T)
 CCSD(T)= -0.33884746880D+02

 The electronic state is 1-AG.
 Alpha  occ. eigenvalues --   -1.33066  -1.32773  -0.68649  -0.68411  -0.53893
 Alpha  occ. eigenvalues --   -0.49984  -0.47683  -0.46953
 Alpha virt. eigenvalues --    0.21389   0.23321   0.32281   0.32655   0.79703
 Alpha virt. eigenvalues --    0.81108   0.81153   0.87019   1.00866   1.08356
 Alpha virt. eigenvalues --    1.19390   1.20161   1.24229   1.24390   2.58842

 Mulliken charges:
               1
     1  O   -0.704391
     2  H    0.352195
     3  H    0.352195
     4  O   -0.704391
     5  H    0.352195
     6  H    0.352195
 Sum of Mulliken charges =   0.00000

 Dipole moment (field-independent basis, Debye):
    X=             -0.0000    Y=             -0.0000    Z=             -0.0000  Tot=              0.0000
 Quadrupole moment (field-independent basis, Debye-Ang):
   XX=            -14.9867   YY=             -8.2033   ZZ=              2.2716
   XY=             -0.0000   XZ=             -0.0000   YZ=             -0.0000

 33.878907\MP4SDQ=-33.8809987\CCSD=-33.8820873\CCSD(T)=-33.8847469\RMSD
 Normal termination of Gaussian 16 at Sun Dec 10 06:46:15 2023.
