 Gaussian 16, Revision A.03,
 Gaussian 16:  ES64L-G16RevA.03 25-Dec-2016

 ------------------
 #p CCSD(T)/CEP-31G
 ------------------

 ------------
 H2O_H2O_4531
 ------------
 Symbolic Z-matrix:
 Charge =  0 Multiplicity = 1

                         Standard orientation:
 ---------------------------------------------------------------------
 Center     Atomic      Atomic             Coordinates (Angstroms)
 Number     Number       Type             X           Y           Z
 ---------------------------------------------------------------------
      1          8           0        0.021859   -3.205450    0.000000
      2          1           0       -0.778047   -3.776114    0.000000
      3          1           0        0.821095   -3.777051    0.000000
      4          8           0        0.021859    3.214120    0.000000
      5          1           0        0.542492    4.047454    0.000000
      6          1           0       -0.935281    3.436355    0.000000
 ---------------------------------------------------------------------

 SCF Done:  E(RHF) =  -33.6507667255     A.U. after   11 cycles
 E2 =    -0.2284335531D+00 EUMP2 =    -0.33879200278601D+02
 CCSD(T)
 CCSD(T)= -0.33896230051D+02

 The electronic state is 1-A'.
 Alpha  occ. eigenvalues --   -1.35068  -1.35005  -0.70696  -0.70631  -0.54746
 Alpha  occ. eigenvalues --   -0.54683  -0.49624  -0.49561
 Alpha virt. eigenvalues --    0.20647   0.20711   0.30879   0.30941   0.80930
 Alpha virt. eigenvalues --    0.80992   0.84053   0.84115   0.87127   0.87201
 Alpha virt. eigenvalues --    1.17790   1.17853   1.22256   1.22319   2.57832

 Mulliken charges:
               1
     1  O   -0.737479
     2  H    0.368193
     3  H    0.369287
     4  O   -0.737389
     5  H    0.367902
     6  H    0.369488
 Sum of Mulliken charges =   0.00000

 Dipole moment (field-independent basis, Debye):
    X=             -1.0091    Y=             -0.2027    Z=              0.0000  Tot=              1.0293
 Quadrupole moment (field-independent basis, Debye-Ang):
   XX=             -8.3473   YY=             21.0373   ZZ=            -14.9870
   XY=             -2.6202   XZ=              0.0000   YZ=              0.0000

 MP4DQ=-33.890578\MP4SDQ=-33.8926083\CCSD=-33.8936657\CCSD(T)=-33.89623
 Normal termination of Gaussian 16 at Sun Dec 10 07:03:12 2023.
