 Gaussian 16, Revision A.03,
 Gaussian 16:  ES64L-G16RevA.03 25-Dec-2016

 ------------------
 #p CCSD(T)/CEP-31G
 ------------------

 ------------
 H2O_H2O_2049
 ------------
 Symbolic Z-matrix:
 Charge =  0 Multiplicity = 1

                         Standard orientation:
 ---------------------------------------------------------------------
 Center     Atomic      Atomic             Coordinates (Angstroms)
 Number     Number       Type             X           Y           Z
 ---------------------------------------------------------------------
      1          8           0        0.057263   -1.818694    0.000000
      2          1           0       -0.743803   -2.387728    0.000000
      3          1           0        0.855334   -2.391920    0.000000
      4          8           0        0.057263    1.932621    0.000000
      5          1           0       -0.511771    2.733686    0.000000
      6          1           0       -0.515963    1.134550    0.000000
 ---------------------------------------------------------------------

 SCF Done:  E(RHF) =  -33.6540884521     A.U. after   11 cycles
 E2 =    -0.2285988559D+00 EUMP2 =    -0.33882687308028D+02
 CCSD(T)
 CCSD(T)= -0.33899649524D+02

 The electronic state is 1-A'.
 Alpha  occ. eigenvalues --   -1.36181  -1.33532  -0.71824  -0.69095  -0.56057
 Alpha  occ. eigenvalues --   -0.53305  -0.50783  -0.48132
 Alpha virt. eigenvalues --    0.19065   0.23129   0.29873   0.33075   0.79523
 Alpha virt. eigenvalues --    0.79847   0.82630   0.85566   0.86503   0.94366
 Alpha virt. eigenvalues --    1.16770   1.19912   1.21234   1.27228   2.54843

 Mulliken charges:
               1
     1  O   -0.748326
     2  H    0.369059
     3  H    0.380568
     4  O   -0.748114
     5  H    0.357692
     6  H    0.389121
 Sum of Mulliken charges =  -0.00000

 Dipole moment (field-independent basis, Debye):
    X=             -2.6082    Y=             -2.7934    Z=              0.0000  Tot=              3.8217
 Quadrupole moment (field-independent basis, Debye-Ang):
   XX=            -10.1491   YY=             -0.5386   ZZ=            -14.9943
   XY=             -5.3342   XZ=              0.0000   YZ=              0.0000

 \MP4DQ=-33.8939715\MP4SDQ=-33.8960267\CCSD=-33.8970628\CCSD(T)=-33.899
 Normal termination of Gaussian 16 at Sun Dec 10 07:04:17 2023.
