 Gaussian 16, Revision A.03,
 Gaussian 16:  ES64L-G16RevA.03 25-Dec-2016

 ------------------
 #p CCSD(T)/CEP-31G
 ------------------

 ------------
 H2O_H2O_2947
 ------------
 Symbolic Z-matrix:
 Charge =  0 Multiplicity = 1

                         Standard orientation:
 ---------------------------------------------------------------------
 Center     Atomic      Atomic             Coordinates (Angstroms)
 Number     Number       Type             X           Y           Z
 ---------------------------------------------------------------------
      1          8           0        0.056727   -2.305409    0.000000
      2          1           0       -0.744024   -2.874885    0.000000
      3          1           0        0.855114   -2.878195    0.000000
      4          8           0        0.056727    2.404492    0.000000
      5          1           0       -0.403358    3.272725    0.000000
      6          1           0       -0.615369    1.687698    0.000000
 ---------------------------------------------------------------------

 SCF Done:  E(RHF) =  -33.6522881241     A.U. after   11 cycles
 E2 =    -0.2284137493D+00 EUMP2 =    -0.33880701873427D+02
 CCSD(T)
 CCSD(T)= -0.33897687720D+02

 The electronic state is 1-A'.
 Alpha  occ. eigenvalues --   -1.35731  -1.34352  -0.71366  -0.69948  -0.55497
 Alpha  occ. eigenvalues --   -0.54086  -0.50309  -0.48931
 Alpha virt. eigenvalues --    0.19937   0.21594   0.30293   0.31732   0.80246
 Alpha virt. eigenvalues --    0.81593   0.82803   0.84932   0.86317   0.88105
 Alpha virt. eigenvalues --    1.17192   1.18615   1.21621   1.23242   2.57201

 Mulliken charges:
               1
     1  O   -0.742862
     2  H    0.368379
     3  H    0.374579
     4  O   -0.742059
     5  H    0.363628
     6  H    0.378335
 Sum of Mulliken charges =   0.00000

 Dipole moment (field-independent basis, Debye):
    X=             -2.6056    Y=             -2.3550    Z=              0.0000  Tot=              3.5121
 Quadrupole moment (field-independent basis, Debye-Ang):
   XX=            -10.1220   YY=              3.7415   ZZ=            -14.9903
   XY=             -6.2448   XZ=              0.0000   YZ=              0.0000

 P4DQ=-33.8920442\MP4SDQ=-33.8940733\CCSD=-33.8951244\CCSD(T)=-33.89768
 Normal termination of Gaussian 16 at Sun Dec 10 06:33:02 2023.
