 Gaussian 16, Revision A.03,
 Gaussian 16:  ES64L-G16RevA.03 25-Dec-2016

 ------------------
 #p CCSD(T)/CEP-31G
 ------------------

 ------------
 H2O_H2O_1480
 ------------
 Symbolic Z-matrix:
 Charge =  0 Multiplicity = 1

                         Standard orientation:
 ---------------------------------------------------------------------
 Center     Atomic      Atomic             Coordinates (Angstroms)
 Number     Number       Type             X           Y           Z
 ---------------------------------------------------------------------
      1          8           0        0.018361   -1.584785    0.000000
      2          1           0       -0.781778   -2.155120    0.000000
      3          1           0        0.817364   -2.156712    0.000000
      4          8           0        0.018361    1.590810    0.000000
      5          1           0        0.592709    2.388075    0.000000
      6          1           0       -0.922078    1.875555    0.000000
 ---------------------------------------------------------------------

 SCF Done:  E(RHF) =  -33.6429106249     A.U. after   11 cycles
 E2 =    -0.2290928678D+00 EUMP2 =    -0.33872003492694D+02
 CCSD(T)
 CCSD(T)= -0.33889302819D+02

 The electronic state is 1-A'.
 Alpha  occ. eigenvalues --   -1.33569  -1.33353  -0.69183  -0.68962  -0.53691
 Alpha  occ. eigenvalues --   -0.51681  -0.48115  -0.47712
 Alpha virt. eigenvalues --    0.21093   0.22731   0.31949   0.32257   0.76759
 Alpha virt. eigenvalues --    0.80249   0.83677   0.85077   0.94412   1.06710
 Alpha virt. eigenvalues --    1.18994   1.19462   1.23554   1.23931   2.59765

 Mulliken charges:
               1
     1  O   -0.713815
     2  H    0.353790
     3  H    0.359986
     4  O   -0.712114
     5  H    0.352981
     6  H    0.359172
 Sum of Mulliken charges =  -0.00000

 Dipole moment (field-independent basis, Debye):
    X=             -0.8255    Y=             -0.1503    Z=              0.0000  Tot=              0.8391
 Quadrupole moment (field-independent basis, Debye-Ang):
   XX=             -8.3639   YY=              4.1187   ZZ=            -14.9839
   XY=             -0.8707   XZ=              0.0000   YZ=              0.0000

 MP4DQ=-33.8835263\MP4SDQ=-33.8856099\CCSD=-33.8866788\CCSD(T)=-33.8893
 Normal termination of Gaussian 16 at Sun Dec 10 06:52:24 2023.
