 Gaussian 16, Revision A.03,
 Gaussian 16:  ES64L-G16RevA.03 25-Dec-2016

 ------------------
 #p CCSD(T)/CEP-31G
 ------------------

 ------------
 H2O_H2O_1379
 ------------
 Symbolic Z-matrix:
 Charge =  0 Multiplicity = 1

                         Standard orientation:
 ---------------------------------------------------------------------
 Center     Atomic      Atomic             Coordinates (Angstroms)
 Number     Number       Type             X           Y           Z
 ---------------------------------------------------------------------
      1          8           0        0.014784   -1.532773    0.000000
      2          1           0       -0.785261   -2.103242    0.000000
      3          1           0        0.813881   -2.104568    0.000000
      4          8           0        0.014784    1.536641    0.000000
      5          1           0        0.639919    2.294738    0.000000
      6          1           0       -0.905077    1.882131    0.000000
 ---------------------------------------------------------------------

 SCF Done:  E(RHF) =  -33.6416183013     A.U. after   11 cycles
 E2 =    -0.2291751934D+00 EUMP2 =    -0.33870793494731D+02
 CCSD(T)
 CCSD(T)= -0.33888130052D+02

 The electronic state is 1-A'.
 Alpha  occ. eigenvalues --   -1.33404  -1.33206  -0.69012  -0.68822  -0.53704
 Alpha  occ. eigenvalues --   -0.51237  -0.47975  -0.47509
 Alpha virt. eigenvalues --    0.21182   0.22893   0.32042   0.32375   0.77616
 Alpha virt. eigenvalues --    0.80066   0.82954   0.85642   0.96046   1.07853
 Alpha virt. eigenvalues --    1.19122   1.19639   1.23706   1.24088   2.59781

 Mulliken charges:
               1
     1  O   -0.710952
     2  H    0.352699
     3  H    0.358173
     4  O   -0.709586
     5  H    0.352380
     6  H    0.357287
 Sum of Mulliken charges =  -0.00000

 Dipole moment (field-independent basis, Debye):
    X=             -0.6619    Y=             -0.0965    Z=              0.0000  Tot=              0.6689
 Quadrupole moment (field-independent basis, Debye-Ang):
   XX=             -8.3042   YY=              3.5902   ZZ=            -14.9843
   XY=             -0.6591   XZ=              0.0000   YZ=              0.0000

 MP4DQ=-33.8823351\MP4SDQ=-33.8844223\CCSD=-33.885497\CCSD(T)=-33.88813
 Normal termination of Gaussian 16 at Sun Dec 10 06:50:32 2023.
