 Gaussian 16, Revision A.03,
 Gaussian 16:  ES64L-G16RevA.03 25-Dec-2016

 ------------------
 #p CCSD(T)/CEP-31G
 ------------------

 ------------
 H2O_H2O_2087
 ------------
 Symbolic Z-matrix:
 Charge =  0 Multiplicity = 1

                         Standard orientation:
 ---------------------------------------------------------------------
 Center     Atomic      Atomic             Coordinates (Angstroms)
 Number     Number       Type             X           Y           Z
 ---------------------------------------------------------------------
      1          8           0        0.040416   -1.889068    0.000000
      2          1           0       -0.760196   -2.458741    0.000000
      3          1           0        0.838943   -2.461658    0.000000
      4          8           0        0.040416    1.922377    0.000000
      5          1           0        0.203714    2.891314    0.000000
      6          1           0       -0.929111    1.762614    0.000000
 ---------------------------------------------------------------------

 SCF Done:  E(RHF) =  -33.6485271233     A.U. after   11 cycles
 E2 =    -0.2287180234D+00 EUMP2 =    -0.33877245146665D+02
 CCSD(T)
 CCSD(T)= -0.33894349060D+02

 The electronic state is 1-A'.
 Alpha  occ. eigenvalues --   -1.34633  -1.33913  -0.70260  -0.69502  -0.54238
 Alpha  occ. eigenvalues --   -0.53382  -0.49159  -0.48442
 Alpha virt. eigenvalues --    0.20558   0.22055   0.31177   0.31889   0.77953
 Alpha virt. eigenvalues --    0.80895   0.82593   0.85953   0.88272   0.96545
 Alpha virt. eigenvalues --    1.18130   1.18985   1.22591   1.23418   2.57894

 Mulliken charges:
               1
     1  O   -0.729997
     2  H    0.360926
     3  H    0.369268
     4  O   -0.727187
     5  H    0.357628
     6  H    0.369363
 Sum of Mulliken charges =  -0.00000

 Dipole moment (field-independent basis, Debye):
    X=             -1.8401    Y=             -0.8091    Z=              0.0000  Tot=              2.0102
 Quadrupole moment (field-independent basis, Debye-Ang):
   XX=             -9.1192   YY=              5.9542   ZZ=            -14.9861
   XY=             -2.7936   XZ=              0.0000   YZ=              0.0000

 \MP4DQ=-33.8886609\MP4SDQ=-33.8907111\CCSD=-33.8917639\CCSD(T)=-33.894
 Normal termination of Gaussian 16 at Sun Dec 10 07:04:57 2023.
