 Gaussian 16, Revision A.03,
 Gaussian 16:  ES64L-G16RevA.03 25-Dec-2016

 ------------------
 #p CCSD(T)/CEP-31G
 ------------------

 ------------
 H2O_H2O_4632
 ------------
 Symbolic Z-matrix:
 Charge =  0 Multiplicity = 1

                         Standard orientation:
 ---------------------------------------------------------------------
 Center     Atomic      Atomic             Coordinates (Angstroms)
 Number     Number       Type             X           Y           Z
 ---------------------------------------------------------------------
      1          8           0        0.025264   -3.256963    0.000000
      2          1           0       -0.774687   -3.827562    0.000000
      3          1           0        0.824455   -3.828627    0.000000
      4          8           0        0.025264    3.268709    0.000000
      5          1           0        0.490349    4.134273    0.000000
      6          1           0       -0.944349    3.427946    0.000000
 ---------------------------------------------------------------------

 SCF Done:  E(RHF) =  -33.6508558917     A.U. after   11 cycles
 E2 =    -0.2284289494D+00 EUMP2 =    -0.33879284841093D+02
 CCSD(T)
 CCSD(T)= -0.33896312064D+02

 The electronic state is 1-A'.
 Alpha  occ. eigenvalues --   -1.35105  -1.35023  -0.70734  -0.70649  -0.54788
 Alpha  occ. eigenvalues --   -0.54706  -0.49663  -0.49580
 Alpha virt. eigenvalues --    0.20615   0.20698   0.30848   0.30929   0.80891
 Alpha virt. eigenvalues --    0.80973   0.84006   0.84086   0.87083   0.87180
 Alpha virt. eigenvalues --    1.17757   1.17838   1.22222   1.22304   2.57796

 Mulliken charges:
               1
     1  O   -0.737795
     2  H    0.368294
     3  H    0.369501
     4  O   -0.737685
     5  H    0.367953
     6  H    0.369732
 Sum of Mulliken charges =   0.00000

 Dipole moment (field-independent basis, Debye):
    X=             -1.1665    Y=             -0.2745    Z=              0.0000  Tot=              1.1984
 Quadrupole moment (field-independent basis, Debye-Ang):
   XX=             -8.4508   YY=             21.2077   ZZ=            -14.9871
   XY=             -3.1147   XZ=              0.0000   YZ=              0.0000

 \MP4DQ=-33.8906607\MP4SDQ=-33.8926908\CCSD=-33.893748\CCSD(T)=-33.8963
 Normal termination of Gaussian 16 at Sun Dec 10 07:05:02 2023.
