 Gaussian 16, Revision A.03,
 Gaussian 16:  ES64L-G16RevA.03 25-Dec-2016

 ------------------
 #p CCSD(T)/CEP-31G
 ------------------

 ------------
 H2O_H2O_1691
 ------------
 Symbolic Z-matrix:
 Charge =  0 Multiplicity = 1

                         Standard orientation:
 ---------------------------------------------------------------------
 Center     Atomic      Atomic             Coordinates (Angstroms)
 Number     Number       Type             X           Y           Z
 ---------------------------------------------------------------------
      1          8           0        0.049533   -1.663540    0.000000
      2          1           0       -0.751473   -2.232658    0.000000
      3          1           0        0.847664   -2.236682    0.000000
      4          8           0        0.049533    1.720404    0.000000
      5          1           0       -0.042834    2.698654    0.000000
      6          1           0       -0.845888    1.315773    0.000000
 ---------------------------------------------------------------------

 SCF Done:  E(RHF) =  -33.6492194937     A.U. after   11 cycles
 E2 =    -0.2289185193D+00 EUMP2 =    -0.33878138012932D+02
 CCSD(T)
 CCSD(T)= -0.33895255775D+02

 The electronic state is 1-A'.
 Alpha  occ. eigenvalues --   -1.34977  -1.33393  -0.70613  -0.68951  -0.54634
 Alpha  occ. eigenvalues --   -0.52894  -0.49519  -0.47937
 Alpha virt. eigenvalues --    0.19945   0.23050   0.30831   0.32466   0.75501
 Alpha virt. eigenvalues --    0.79896   0.83774   0.85597   0.88400   1.05079
 Alpha virt. eigenvalues --    1.17772   1.20392   1.22266   1.24768   2.56889

 Mulliken charges:
               1
     1  O   -0.733012
     2  H    0.359851
     3  H    0.373786
     4  O   -0.726945
     5  H    0.352282
     6  H    0.374037
 Sum of Mulliken charges =   0.00000

 Dipole moment (field-independent basis, Debye):
    X=             -2.2347    Y=             -1.4060    Z=              0.0000  Tot=              2.6402
 Quadrupole moment (field-independent basis, Debye-Ang):
   XX=             -9.6346   YY=              2.5180   ZZ=            -14.9884
   XY=             -3.3197   XZ=              0.0000   YZ=              0.0000

 P4DQ=-33.8895334\MP4SDQ=-33.8916072\CCSD=-33.8926525\CCSD(T)=-33.89525
 Normal termination of Gaussian 16 at Sun Dec 10 06:56:19 2023.
