 Gaussian 16, Revision A.03,
 Gaussian 16:  ES64L-G16RevA.03 25-Dec-2016

 ------------------
 #p CCSD(T)/CEP-31G
 ------------------

 ------------
 H2O_H2O_2858
 ------------
 Symbolic Z-matrix:
 Charge =  0 Multiplicity = 1

                         Standard orientation:
 ---------------------------------------------------------------------
 Center     Atomic      Atomic             Coordinates (Angstroms)
 Number     Number       Type             X           Y           Z
 ---------------------------------------------------------------------
      1          8           0        0.028565   -2.311054    0.000000
      2          1           0       -0.771611   -2.881338    0.000000
      3          1           0        0.827530   -2.883033    0.000000
      4          8           0        0.028565    2.326297    0.000000
      5          1           0        0.436397    3.220265    0.000000
      6          1           0       -0.949349    2.422163    0.000000
 ---------------------------------------------------------------------

 SCF Done:  E(RHF) =  -33.6492945182     A.U. after   11 cycles
 E2 =    -0.2285417238D+00 EUMP2 =    -0.33877836242046D+02
 CCSD(T)
 CCSD(T)= -0.33894908949D+02

 The electronic state is 1-A'.
 Alpha  occ. eigenvalues --   -1.34681  -1.34465  -0.70306  -0.70080  -0.54283
 Alpha  occ. eigenvalues --   -0.54043  -0.49216  -0.49000
 Alpha virt. eigenvalues --    0.20896   0.21227   0.31184   0.31389   0.81299
 Alpha virt. eigenvalues --    0.81584   0.83175   0.85905   0.87604   0.88331
 Alpha virt. eigenvalues --    1.18116   1.18329   1.22597   1.22812   2.58193

 Mulliken charges:
               1
     1  O   -0.732455
     2  H    0.364484
     3  H    0.367978
     4  O   -0.731794
     5  H    0.363528
     6  H    0.368259
 Sum of Mulliken charges =   0.00000

 Dipole moment (field-independent basis, Debye):
    X=             -1.3113    Y=             -0.3620    Z=              0.0000  Tot=              1.3604
 Quadrupole moment (field-independent basis, Debye-Ang):
   XX=             -8.5857   YY=             11.3035   ZZ=            -14.9857
   XY=             -2.3342   XZ=              0.0000   YZ=              0.0000

 MP4DQ=-33.8892439\MP4SDQ=-33.8912792\CCSD=-33.8923377\CCSD(T)=-33.8949
 Normal termination of Gaussian 16 at Sun Dec 10 06:31:26 2023.
