 Gaussian 16, Revision A.03,
 Gaussian 16:  ES64L-G16RevA.03 25-Dec-2016

 ------------------
 #p CCSD(T)/CEP-31G
 ------------------

 ------------
 H2O_H2O_1866
 ------------
 Symbolic Z-matrix:
 Charge =  0 Multiplicity = 1

                         Standard orientation:
 ---------------------------------------------------------------------
 Center     Atomic      Atomic             Coordinates (Angstroms)
 Number     Number       Type             X           Y           Z
 ---------------------------------------------------------------------
      1          8           0        0.049529   -1.756605    0.000000
      2          1           0       -0.751402   -2.325828    0.000000
      3          1           0        0.847736   -2.329642    0.000000
      4          8           0        0.049529    1.813482    0.000000
      5          1           0       -0.042966    2.791720    0.000000
      6          1           0       -0.845839    1.408733    0.000000
 ---------------------------------------------------------------------

 SCF Done:  E(RHF) =  -33.6496662462     A.U. after   11 cycles
 E2 =    -0.2287957374D+00 EUMP2 =    -0.33878461983603D+02
 CCSD(T)
 CCSD(T)= -0.33895548979D+02

 The electronic state is 1-A'.
 Alpha  occ. eigenvalues --   -1.35026  -1.33602  -0.70660  -0.69165  -0.54672
 Alpha  occ. eigenvalues --   -0.53158  -0.49570  -0.48151
 Alpha virt. eigenvalues --    0.20005   0.22692   0.30796   0.32296   0.76249
 Alpha virt. eigenvalues --    0.80243   0.83135   0.85770   0.87819   1.01014
 Alpha virt. eigenvalues --    1.17759   1.19854   1.22182   1.24299   2.56974

 Mulliken charges:
               1
     1  O   -0.733978
     2  H    0.361228
     3  H    0.373305
     4  O   -0.729400
     5  H    0.354692
     6  H    0.374153
 Sum of Mulliken charges =  -0.00000

 Dipole moment (field-independent basis, Debye):
    X=             -2.2449    Y=             -1.3955    Z=              0.0000  Tot=              2.6433
 Quadrupole moment (field-independent basis, Debye-Ang):
   XX=             -9.6323   YY=              3.3123   ZZ=            -14.9882
   XY=             -3.5227   XZ=              0.0000   YZ=              0.0000

 MP4DQ=-33.8898496\MP4SDQ=-33.8919106\CCSD=-33.8929565\CCSD(T)=-33.8955
 Normal termination of Gaussian 16 at Sun Dec 10 06:59:33 2023.
