 Gaussian 16, Revision A.03,
 Gaussian 16:  ES64L-G16RevA.03 25-Dec-2016

 ------------------
 #p CCSD(T)/CEP-31G
 ------------------

 ------------
 H2O_H2O_1295
 ------------
 Symbolic Z-matrix:
 Charge =  0 Multiplicity = 1

                         Standard orientation:
 ---------------------------------------------------------------------
 Center     Atomic      Atomic             Coordinates (Angstroms)
 Number     Number       Type             X           Y           Z
 ---------------------------------------------------------------------
      1          8           0        0.055303   -1.435900    0.000000
      2          1           0       -0.746099   -2.004460    0.000000
      3          1           0        0.853035   -2.009598    0.000000
      4          8           0        0.055303    1.520208    0.000000
      5          1           0       -0.286466    2.441457    0.000000
      6          1           0       -0.705315    0.898142    0.000000
 ---------------------------------------------------------------------

 SCF Done:  E(RHF) =  -33.6509805005     A.U. after   11 cycles
 E2 =    -0.2293159884D+00 EUMP2 =    -0.33880296488956D+02
 CCSD(T)
 CCSD(T)= -0.33897398063D+02

 The electronic state is 1-A'.
 Alpha  occ. eigenvalues --   -1.35698  -1.32561  -0.71349  -0.68221  -0.55373
 Alpha  occ. eigenvalues --   -0.52225  -0.50276  -0.47134
 Alpha virt. eigenvalues --    0.19363   0.24720   0.30287   0.33815   0.77232
 Alpha virt. eigenvalues --    0.78267   0.85676   0.86759   0.90108   1.12658
 Alpha virt. eigenvalues --    1.17172   1.20635   1.22186   1.28519   2.56674

 Mulliken charges:
               1
     1  O   -0.745736
     2  H    0.361543
     3  H    0.384878
     4  O   -0.730872
     5  H    0.345103
     6  H    0.385083
 Sum of Mulliken charges =  -0.00000

 Dipole moment (field-independent basis, Debye):
    X=             -2.4550    Y=             -2.1334    Z=              0.0000  Tot=              3.2525
 Quadrupole moment (field-independent basis, Debye-Ang):
   XX=            -10.0001   YY=             -0.9321   ZZ=            -14.9949
   XY=             -3.6490   XZ=              0.0000   YZ=              0.0000

 \MP4DQ=-33.8915984\MP4SDQ=-33.8937111\CCSD=-33.8947454\CCSD(T)=-33.897
 Normal termination of Gaussian 16 at Sun Dec 10 06:48:58 2023.
