 Gaussian 16, Revision A.03,
 Gaussian 16:  ES64L-G16RevA.03 25-Dec-2016

 ------------------
 #p CCSD(T)/CEP-31G
 ------------------

 ------------
 H2O_H2O_2754
 ------------
 Symbolic Z-matrix:
 Charge =  0 Multiplicity = 1

                         Standard orientation:
 ---------------------------------------------------------------------
 Center     Atomic      Atomic             Coordinates (Angstroms)
 Number     Number       Type             X           Y           Z
 ---------------------------------------------------------------------
      1          8           0        0.014783   -2.264044    0.000000
      2          1           0       -0.785109   -2.834727    0.000000
      3          1           0        0.814033   -2.835625    0.000000
      4          8           0        0.014783    2.267920    0.000000
      5          1           0        0.639716    3.026184    0.000000
      6          1           0       -0.905170    2.613163    0.000000
 ---------------------------------------------------------------------

 SCF Done:  E(RHF) =  -33.6486959634     A.U. after   11 cycles
 E2 =    -0.2285679896D+00 EUMP2 =    -0.33877263953014D+02
 CCSD(T)
 CCSD(T)= -0.33894353792D+02

 The electronic state is 1-A'.
 Alpha  occ. eigenvalues --   -1.34490  -1.34432  -0.70113  -0.70052  -0.54093
 Alpha  occ. eigenvalues --   -0.53935  -0.49016  -0.48957
 Alpha virt. eigenvalues --    0.21009   0.21274   0.31333   0.31404   0.81430
 Alpha virt. eigenvalues --    0.81695   0.82873   0.86720   0.87764   0.88330
 Alpha virt. eigenvalues --    1.18283   1.18340   1.22756   1.22841   2.58339

 Mulliken charges:
               1
     1  O   -0.730367
     2  H    0.364220
     3  H    0.366150
     4  O   -0.730160
     5  H    0.363853
     6  H    0.366304
 Sum of Mulliken charges =   0.00000

 Dipole moment (field-independent basis, Debye):
    X=             -0.6784    Y=             -0.0923    Z=              0.0000  Tot=              0.6846
 Quadrupole moment (field-independent basis, Debye-Ang):
   XX=             -8.2091   YY=             11.6250   ZZ=            -14.9851
   XY=             -1.1207   XZ=              0.0000   YZ=              0.0000

 4DQ=-33.8886835\MP4SDQ=-33.8907207\CCSD=-33.8917803\CCSD(T)=-33.894353
 Normal termination of Gaussian 16 at Sun Dec 10 06:29:28 2023.
