 Gaussian 16, Revision A.03,
 Gaussian 16:  ES64L-G16RevA.03 25-Dec-2016

 ------------------
 #p CCSD(T)/CEP-31G
 ------------------

 ------------
 H2O_H2O_2568
 ------------
 Symbolic Z-matrix:
 Charge =  0 Multiplicity = 1

                         Standard orientation:
 ---------------------------------------------------------------------
 Center     Atomic      Atomic             Coordinates (Angstroms)
 Number     Number       Type             X           Y           Z
 ---------------------------------------------------------------------
      1          8           0        0.052840   -2.121606    0.000000
      2          1           0       -0.747932   -2.691052    0.000000
      3          1           0        0.851206   -2.694420    0.000000
      4          8           0        0.052840    2.191897    0.000000
      5          1           0       -0.166817    3.149633    0.000000
      6          1           0       -0.781894    1.673510    0.000000
 ---------------------------------------------------------------------

 SCF Done:  E(RHF) =  -33.6511778892     A.U. after   11 cycles
 E2 =    -0.2285099021D+00 EUMP2 =    -0.33879687791351D+02
 CCSD(T)
 CCSD(T)= -0.33896707476D+02

 The electronic state is 1-A'.
 Alpha  occ. eigenvalues --   -1.35360  -1.34179  -0.70993  -0.69766  -0.55061
 Alpha  occ. eigenvalues --   -0.53860  -0.49921  -0.48744
 Alpha virt. eigenvalues --    0.20149   0.21778   0.30580   0.31814   0.80591
 Alpha virt. eigenvalues --    0.81576   0.81826   0.85520   0.86766   0.90094
 Alpha virt. eigenvalues --    1.17514   1.18788   1.21923   1.23369   2.57513

 Mulliken charges:
               1
     1  O   -0.739027
     2  H    0.365755
     3  H    0.373410
     4  O   -0.737099
     5  H    0.361280
     6  H    0.375681
 Sum of Mulliken charges =   0.00000

 Dipole moment (field-independent basis, Debye):
    X=             -2.4203    Y=             -1.6821    Z=              0.0000  Tot=              2.9474
 Quadrupole moment (field-independent basis, Debye-Ang):
   XX=             -9.8451   YY=              5.2285   ZZ=            -14.9888
   XY=             -4.8575   XZ=              0.0000   YZ=              0.0000

 MP4DQ=-33.8910526\MP4SDQ=-33.8930868\CCSD=-33.8941383\CCSD(T)=-33.8967
 Normal termination of Gaussian 16 at Sun Dec 10 06:26:00 2023.
