 Gaussian 16, Revision A.03,
 Gaussian 16:  ES64L-G16RevA.03 25-Dec-2016

 ------------------
 #p CCSD(T)/CEP-31G
 ------------------

 ------------
 H2O_H2O_2546
 ------------
 Symbolic Z-matrix:
 Charge =  0 Multiplicity = 1

                         Standard orientation:
 ---------------------------------------------------------------------
 Center     Atomic      Atomic             Coordinates (Angstroms)
 Number     Number       Type             X           Y           Z
 ---------------------------------------------------------------------
      1          8           0        0.056119   -2.096689    0.000000
      2          1           0       -0.744735   -2.666020    0.000000
      3          1           0        0.854403   -2.669619    0.000000
      4          8           0        0.056119    2.188379    0.000000
      5          1           0       -0.346033    3.084916    0.000000
      6          1           0       -0.661540    1.517206    0.000000
 ---------------------------------------------------------------------

 SCF Done:  E(RHF) =  -33.6521855933     A.U. after   11 cycles
 E2 =    -0.2284775166D+00 EUMP2 =    -0.33880663109914D+02
 CCSD(T)
 CCSD(T)= -0.33897654414D+02

 The electronic state is 1-A'.
 Alpha  occ. eigenvalues --   -1.35676  -1.34103  -0.71312  -0.69685  -0.55434
 Alpha  occ. eigenvalues --   -0.53825  -0.50252  -0.48681
 Alpha virt. eigenvalues --    0.19805   0.21987   0.30310   0.31995   0.80272
 Alpha virt. eigenvalues --    0.81609   0.81871   0.85468   0.86345   0.89841
 Alpha virt. eigenvalues --    1.17238   1.18988   1.21631   1.23845   2.57129

 Mulliken charges:
               1
     1  O   -0.742380
     2  H    0.367297
     3  H    0.375365
     4  O   -0.740982
     5  H    0.361356
     6  H    0.379343
 Sum of Mulliken charges =  -0.00000

 Dipole moment (field-independent basis, Debye):
    X=             -2.5704    Y=             -2.1996    Z=              0.0000  Tot=              3.3831
 Quadrupole moment (field-independent basis, Debye-Ang):
   XX=            -10.0734   YY=              3.1496   ZZ=            -14.9905
   XY=             -5.5061   XZ=              0.0000   YZ=              0.0000

 9\MP4DQ=-33.8920037\MP4SDQ=-33.8940382\CCSD=-33.8950862\CCSD(T)=-33.89
 Normal termination of Gaussian 16 at Sun Dec 10 06:25:35 2023.
