 Gaussian 16, Revision A.03,
 Gaussian 16:  ES64L-G16RevA.03 25-Dec-2016

 ------------------
 #p CCSD(T)/CEP-31G
 ------------------

 ------------
 H2O_H2O_1461
 ------------
 Symbolic Z-matrix:
 Charge =  0 Multiplicity = 1

                         Standard orientation:
 ---------------------------------------------------------------------
 Center     Atomic      Atomic             Coordinates (Angstroms)
 Number     Number       Type             X           Y           Z
 ---------------------------------------------------------------------
      1          8           0        0.037687   -1.559449    0.000000
      2          1           0       -0.763059   -2.128933    0.000000
      3          1           0        0.836079   -2.132227    0.000000
      4          8           0        0.037687    1.587640    0.000000
      5          1           0        0.264233    2.543770    0.000000
      6          1           0       -0.940237    1.491861    0.000000
 ---------------------------------------------------------------------

 SCF Done:  E(RHF) =  -33.6451445463     A.U. after   11 cycles
 E2 =    -0.2291372396D+00 EUMP2 =    -0.33874281785863D+02
 CCSD(T)
 CCSD(T)= -0.33891535293D+02

 The electronic state is 1-A'.
 Alpha  occ. eigenvalues --   -1.34121  -1.33240  -0.69747  -0.68818  -0.54006
 Alpha  occ. eigenvalues --   -0.52081  -0.48639  -0.47700
 Alpha virt. eigenvalues --    0.20569   0.23062   0.31565   0.32348   0.76008
 Alpha virt. eigenvalues --    0.79845   0.84165   0.85004   0.91870   1.10233
 Alpha virt. eigenvalues --    1.18498   1.20582   1.23129   1.24063   2.59424

 Mulliken charges:
               1
     1  O   -0.721658
     2  H    0.354389
     3  H    0.367214
     4  O   -0.714893
     5  H    0.350062
     6  H    0.364886
 Sum of Mulliken charges =  -0.00000

 Dipole moment (field-independent basis, Debye):
    X=             -1.6882    Y=             -0.7021    Z=              0.0000  Tot=              1.8283
 Quadrupole moment (field-independent basis, Debye-Ang):
   XX=             -9.0169   YY=              2.9700   ZZ=            -14.9857
   XY=             -2.0067   XZ=              0.0000   YZ=              0.0000

 MP4DQ=-33.8857625\MP4SDQ=-33.8878531\CCSD=-33.8889127\CCSD(T)=-33.8915
 Normal termination of Gaussian 16 at Sun Dec 10 06:52:03 2023.
