 Gaussian 16, Revision A.03,
 Gaussian 16:  ES64L-G16RevA.03 25-Dec-2016

 ------------------
 #p CCSD(T)/CEP-31G
 ------------------

 ------------
 H2O_H2O_4003
 ------------
 Symbolic Z-matrix:
 Charge =  0 Multiplicity = 1

                         Standard orientation:
 ---------------------------------------------------------------------
 Center     Atomic      Atomic             Coordinates (Angstroms)
 Number     Number       Type             X           Y           Z
 ---------------------------------------------------------------------
      1          8           0        0.011143   -2.929756    0.000000
      2          1           0       -0.788615   -3.500627    0.000000
      3          1           0        0.810527   -3.501150    0.000000
      4          8           0        0.011143    2.931944    0.000000
      5          1           0        0.684162    3.647871    0.000000
      6          1           0       -0.884355    3.336406    0.000000
 ---------------------------------------------------------------------

 SCF Done:  E(RHF) =  -33.6503243689     A.U. after   11 cycles
 E2 =    -0.2284581973D+00 EUMP2 =    -0.33878782566118D+02
 CCSD(T)
 CCSD(T)= -0.33895825007D+02

 The electronic state is 1-A'.
 Alpha  occ. eigenvalues --   -1.34909  -1.34890  -0.70536  -0.70516  -0.54562
 Alpha  occ. eigenvalues --   -0.54543  -0.49459  -0.49440
 Alpha virt. eigenvalues --    0.20781   0.20801   0.31012   0.31030   0.81095
 Alpha virt. eigenvalues --    0.81114   0.84228   0.84321   0.87316   0.87341
 Alpha virt. eigenvalues --    1.17930   1.17949   1.22400   1.22419   2.57982

 Mulliken charges:
               1
     1  O   -0.735930
     2  H    0.367605
     3  H    0.368325
     4  O   -0.735893
     5  H    0.367453
     6  H    0.368441
 Sum of Mulliken charges =  -0.00000

 Dipole moment (field-independent basis, Debye):
    X=             -0.5139    Y=             -0.0513    Z=              0.0000  Tot=              0.5165
 Quadrupole moment (field-independent basis, Debye-Ang):
   XX=             -8.1234   YY=             18.8451   ZZ=            -14.9864
   XY=             -1.1711   XZ=              0.0000   YZ=              0.0000

 \MP4DQ=-33.8901694\MP4SDQ=-33.892201\CCSD=-33.893259\CCSD(T)=-33.89582
 Normal termination of Gaussian 16 at Sun Dec 10 06:52:09 2023.
