 Gaussian 16, Revision A.03,
 Gaussian 16:  ES64L-G16RevA.03 25-Dec-2016

 ------------------
 #p CCSD(T)/CEP-31G
 ------------------

 ------------
 H2O_H2O_3974
 ------------
 Symbolic Z-matrix:
 Charge =  0 Multiplicity = 1

                         Standard orientation:
 ---------------------------------------------------------------------
 Center     Atomic      Atomic             Coordinates (Angstroms)
 Number     Number       Type             X           Y           Z
 ---------------------------------------------------------------------
      1          8           0        0.057210   -2.842424    0.000000
      2          1           0       -0.743328   -3.412199    0.000000
      3          1           0        0.855811   -3.414911    0.000000
      4          8           0        0.057210    2.956456    0.000000
      5          1           0       -0.512565    3.756995    0.000000
      6          1           0       -0.515277    2.157855    0.000000
 ---------------------------------------------------------------------

 SCF Done:  E(RHF) =  -33.6522548223     A.U. after   11 cycles
 E2 =    -0.2283659355D+00 EUMP2 =    -0.33880620757745D+02
 CCSD(T)
 CCSD(T)= -0.33897607184D+02

 The electronic state is 1-A'.
 Alpha  occ. eigenvalues --   -1.35782  -1.34776  -0.71417  -0.70393  -0.55544
 Alpha  occ. eigenvalues --   -0.54519  -0.50361  -0.49354
 Alpha virt. eigenvalues --    0.20012   0.21057   0.30257   0.31297   0.80192
 Alpha virt. eigenvalues --    0.81179   0.83160   0.84202   0.86300   0.87377
 Alpha virt. eigenvalues --    1.17140   1.18141   1.21593   1.22624   2.57142

 Mulliken charges:
               1
     1  O   -0.742794
     2  H    0.369705
     3  H    0.373091
     4  O   -0.742648
     5  H    0.366905
     6  H    0.375741
 Sum of Mulliken charges =   0.00000

 Dipole moment (field-independent basis, Debye):
    X=             -2.6369    Y=             -2.6763    Z=              0.0000  Tot=              3.7571
 Quadrupole moment (field-independent basis, Debye-Ang):
   XX=            -10.1650   YY=              5.0339   ZZ=            -14.9897
   XY=             -7.9945   XZ=              0.0000   YZ=              0.0000

 \MP4DQ=-33.8919665\MP4SDQ=-33.893993\CCSD=-33.8950471\CCSD(T)=-33.8976
 Normal termination of Gaussian 16 at Sun Dec 10 06:51:37 2023.
