 Gaussian 16, Revision A.03,
 Gaussian 16:  ES64L-G16RevA.03 25-Dec-2016

 ------------------
 #p CCSD(T)/CEP-31G
 ------------------

 ------------
 H2O_H2O_4160
 ------------
 Symbolic Z-matrix:
 Charge =  0 Multiplicity = 1

                         Standard orientation:
 ---------------------------------------------------------------------
 Center     Atomic      Atomic             Coordinates (Angstroms)
 Number     Number       Type             X           Y           Z
 ---------------------------------------------------------------------
      1          8           0        0.034780   -2.997938    0.000000
      2          1           0       -0.765359   -3.568274    0.000000
      3          1           0        0.833783   -3.569865    0.000000
      4          8           0        0.034780    3.021473    0.000000
      5          1           0        0.322375    3.961045    0.000000
      6          1           0       -0.947279    2.988811    0.000000
 ---------------------------------------------------------------------

 SCF Done:  E(RHF) =  -33.6507790863     A.U. after   11 cycles
 E2 =    -0.2284384899D+00 EUMP2 =    -0.33879217576188D+02
 CCSD(T)
 CCSD(T)= -0.33896246967D+02

 The electronic state is 1-A'.
 Alpha  occ. eigenvalues --   -1.35107  -1.34912  -0.70736  -0.70535  -0.54786
 Alpha  occ. eigenvalues --   -0.54590  -0.49664  -0.49468
 Alpha virt. eigenvalues --    0.20608   0.20807   0.30842   0.31033   0.80890
 Alpha virt. eigenvalues --    0.81083   0.84011   0.84206   0.87085   0.87316
 Alpha virt. eigenvalues --    1.17751   1.17945   1.22218   1.22412   2.57793

 Mulliken charges:
               1
     1  O   -0.737545
     2  H    0.367738
     3  H    0.369807
     4  O   -0.737265
     5  H    0.367055
     6  H    0.370210
 Sum of Mulliken charges =  -0.00000

 Dipole moment (field-independent basis, Debye):
    X=             -1.6045    Y=             -0.5513    Z=              0.0000  Tot=              1.6966
 Quadrupole moment (field-independent basis, Debye-Ang):
   XX=             -8.8240   YY=             17.3134   ZZ=            -14.9871
   XY=             -4.0189   XZ=              0.0000   YZ=              0.0000

 MP4DQ=-33.8905949\MP4SDQ=-33.8926254\CCSD=-33.8936825\CCSD(T)=-33.8962
 Normal termination of Gaussian 16 at Sun Dec 10 06:55:01 2023.
