 Gaussian 16, Revision A.03,
 Gaussian 16:  ES64L-G16RevA.03 25-Dec-2016

 ------------------
 #p CCSD(T)/CEP-31G
 ------------------

 ------------
 H2O_H2O_2607
 ------------
 Symbolic Z-matrix:
 Charge =  0 Multiplicity = 1

                         Standard orientation:
 ---------------------------------------------------------------------
 Center     Atomic      Atomic             Coordinates (Angstroms)
 Number     Number       Type             X           Y           Z
 ---------------------------------------------------------------------
      1          8           0        0.025266   -2.180003    0.000000
      2          1           0       -0.774872   -2.750339    0.000000
      3          1           0        0.824269   -2.751930    0.000000
      4          8           0        0.025266    2.191732    0.000000
      5          1           0        0.490636    3.057144    0.000000
      6          1           0       -0.944294    2.351288    0.000000
 ---------------------------------------------------------------------

 SCF Done:  E(RHF) =  -33.6486835374     A.U. after   11 cycles
 E2 =    -0.2285873052D+00 EUMP2 =    -0.33877270842602D+02
 CCSD(T)
 CCSD(T)= -0.33894361560D+02

 The electronic state is 1-A'.
 Alpha  occ. eigenvalues --   -1.34526  -1.34337  -0.70149  -0.69952  -0.54118
 Alpha  occ. eigenvalues --   -0.53849  -0.49052  -0.48864
 Alpha virt. eigenvalues --    0.20949   0.21387   0.31306   0.31483   0.81369
 Alpha virt. eigenvalues --    0.81810   0.82114   0.86596   0.87881   0.89368
 Alpha virt. eigenvalues --    1.18247   1.18433   1.22734   1.22925   2.58292

 Mulliken charges:
               1
     1  O   -0.730368
     2  H    0.363376
     3  H    0.367006
     4  O   -0.729682
     5  H    0.362468
     6  H    0.367200
 Sum of Mulliken charges =  -0.00000

 Dipole moment (field-independent basis, Debye):
    X=             -1.1579    Y=             -0.2801    Z=              0.0000  Tot=              1.1913
 Quadrupole moment (field-independent basis, Debye-Ang):
   XX=             -8.4795   YY=             10.2114   ZZ=            -14.9852
   XY=             -1.8880   XZ=              0.0000   YZ=              0.0000

 P4DQ=-33.8886899\MP4SDQ=-33.8907282\CCSD=-33.8917868\CCSD(T)=-33.89436
 Normal termination of Gaussian 16 at Sun Dec 10 06:26:43 2023.
