 Gaussian 16, Revision A.03,
 Gaussian 16:  ES64L-G16RevA.03 25-Dec-2016

 ------------------
 #p CCSD(T)/CEP-31G
 ------------------

 ------------
 H2O_H2O_4133
 ------------
 Symbolic Z-matrix:
 Charge =  0 Multiplicity = 1

                         Standard orientation:
 ---------------------------------------------------------------------
 Center     Atomic      Atomic             Coordinates (Angstroms)
 Number     Number       Type             X           Y           Z
 ---------------------------------------------------------------------
      1          8           0        0.028563   -2.989138    0.000000
      2          1           0       -0.771476   -3.559614    0.000000
      3          1           0        0.827665   -3.560926    0.000000
      4          8           0        0.028563    3.004395    0.000000
      5          1           0        0.436180    3.898461    0.000000
      6          1           0       -0.949374    3.100026    0.000000
 ---------------------------------------------------------------------

 SCF Done:  E(RHF) =  -33.6506317489     A.U. after   11 cycles
 E2 =    -0.2284447034D+00 EUMP2 =    -0.33879076452328D+02
 CCSD(T)
 CCSD(T)= -0.33896110082D+02

 The electronic state is 1-A'.
 Alpha  occ. eigenvalues --   -1.35040  -1.34912  -0.70668  -0.70536  -0.54710
 Alpha  occ. eigenvalues --   -0.54582  -0.49594  -0.49466
 Alpha virt. eigenvalues --    0.20668   0.20797   0.30900   0.31025   0.80960
 Alpha virt. eigenvalues --    0.81086   0.84093   0.84227   0.87164   0.87317
 Alpha virt. eigenvalues --    1.17813   1.17939   1.22280   1.22407   2.57858

 Mulliken charges:
               1
     1  O   -0.737020
     2  H    0.367647
     3  H    0.369373
     4  O   -0.736817
     5  H    0.367144
     6  H    0.369673
 Sum of Mulliken charges =  -0.00000

 Dipole moment (field-independent basis, Debye):
    X=             -1.3176    Y=             -0.3574    Z=              0.0000  Tot=              1.3652
 Quadrupole moment (field-independent basis, Debye-Ang):
   XX=             -8.5692   YY=             18.1199   ZZ=            -14.9869
   XY=             -3.2075   XZ=              0.0000   YZ=              0.0000

 \MP4DQ=-33.8904569\MP4SDQ=-33.8924877\CCSD=-33.8935451\CCSD(T)=-33.896
 Normal termination of Gaussian 16 at Sun Dec 10 06:54:32 2023.
