 Gaussian 16, Revision A.03,
 Gaussian 16:  ES64L-G16RevA.03 25-Dec-2016

 ------------------
 #p CCSD(T)/CEP-31G
 ------------------

 ------------
 H2O_H2O_3805
 ------------
 Symbolic Z-matrix:
 Charge =  0 Multiplicity = 1

                         Standard orientation:
 ---------------------------------------------------------------------
 Center     Atomic      Atomic             Coordinates (Angstroms)
 Number     Number       Type             X           Y           Z
 ---------------------------------------------------------------------
      1          8           0        0.018360   -2.821296    0.000000
      2          1           0       -0.781530   -3.391981    0.000000
      3          1           0        0.817611   -3.392876    0.000000
      4          8           0        0.018360    2.827338    0.000000
      5          1           0        0.592360    3.624852    0.000000
      6          1           0       -0.922203    3.111672    0.000000
 ---------------------------------------------------------------------

 SCF Done:  E(RHF) =  -33.6502241327     A.U. after   11 cycles
 E2 =    -0.2284662359D+00 EUMP2 =    -0.33878690368519D+02
 CCSD(T)
 CCSD(T)= -0.33895735712D+02

 The electronic state is 1-A'.
 Alpha  occ. eigenvalues --   -1.34890  -1.34833  -0.70517  -0.70458  -0.54537
 Alpha  occ. eigenvalues --   -0.54480  -0.49438  -0.49381
 Alpha virt. eigenvalues --    0.20794   0.20854   0.31025   0.31080   0.81115
 Alpha virt. eigenvalues --    0.81172   0.84230   0.84419   0.87341   0.87414
 Alpha virt. eigenvalues --    1.17945   1.18001   1.22416   1.22473   2.57999

 Mulliken charges:
               1
     1  O   -0.735592
     2  H    0.367139
     3  H    0.368452
     4  O   -0.735475
     5  H    0.366832
     6  H    0.368643
 Sum of Mulliken charges =   0.00000

 Dipole moment (field-independent basis, Debye):
    X=             -0.8463    Y=             -0.1419    Z=              0.0000  Tot=              0.8581
 Quadrupole moment (field-independent basis, Debye-Ang):
   XX=             -8.2633   YY=             17.3300   ZZ=            -14.9864
   XY=             -1.8637   XZ=              0.0000   YZ=              0.0000

 P4DQ=-33.8900793\MP4SDQ=-33.8921112\CCSD=-33.8931693\CCSD(T)=-33.89573
 Normal termination of Gaussian 16 at Sun Dec 10 06:48:29 2023.
