 Gaussian 16, Revision A.03,
 Gaussian 16:  ES64L-G16RevA.03 25-Dec-2016

 ------------------
 #p CCSD(T)/CEP-31G
 ------------------

 ------------
 H2O_H2O_2714
 ------------
 Symbolic Z-matrix:
 Charge =  0 Multiplicity = 1

                         Standard orientation:
 ---------------------------------------------------------------------
 Center     Atomic      Atomic             Coordinates (Angstroms)
 Number     Number       Type             X           Y           Z
 ---------------------------------------------------------------------
      1          8           0        0.045350   -2.215371    0.000000
      2          1           0       -0.755216   -2.785108    0.000000
      3          1           0        0.843924   -2.787896    0.000000
      4          8           0        0.045350    2.259903    0.000000
      5          1           0        0.080701    3.241869    0.000000
      6          1           0       -0.895006    1.974882    0.000000
 ---------------------------------------------------------------------

 SCF Done:  E(RHF) =  -33.6501799901     A.U. after   11 cycles
 E2 =    -0.2285266252D+00 EUMP2 =    -0.33878706615237D+02
 CCSD(T)
 CCSD(T)= -0.33895754387D+02

 The electronic state is 1-A'.
 Alpha  occ. eigenvalues --   -1.35019  -1.34332  -0.70648  -0.69933  -0.54664
 Alpha  occ. eigenvalues --   -0.53967  -0.49566  -0.48883
 Alpha virt. eigenvalues --    0.20556   0.21457   0.30889   0.31571   0.80955
 Alpha virt. eigenvalues --    0.81687   0.82399   0.85575   0.87218   0.89255
 Alpha virt. eigenvalues --    1.17815   1.18511   1.22271   1.22995   2.57874

 Mulliken charges:
               1
     1  O   -0.735596
     2  H    0.364794
     3  H    0.370838
     4  O   -0.733985
     5  H    0.362180
     6  H    0.371769
 Sum of Mulliken charges =  -0.00000

 Dipole moment (field-independent basis, Debye):
    X=             -2.0794    Y=             -1.0607    Z=              0.0000  Tot=              2.3343
 Quadrupole moment (field-independent basis, Debye-Ang):
   XX=             -9.3768   YY=              8.1317   ZZ=            -14.9872
   XY=             -3.9619   XZ=              0.0000   YZ=              0.0000

 4DQ=-33.890095\MP4SDQ=-33.8921291\CCSD=-33.8931846\CCSD(T)=-33.8957544
 Normal termination of Gaussian 16 at Sun Dec 10 06:28:44 2023.
