 Gaussian 16, Revision A.03,
 Gaussian 16:  ES64L-G16RevA.03 25-Dec-2016

 ------------------
 #p CCSD(T)/CEP-31G
 ------------------

 -----------
 H2O_H2O_811
 -----------
 Symbolic Z-matrix:
 Charge =  0 Multiplicity = 1

                         Standard orientation:
 ---------------------------------------------------------------------
 Center     Atomic      Atomic             Coordinates (Angstroms)
 Number     Number       Type             X           Y           Z
 ---------------------------------------------------------------------
      1          8           0        0.037695   -1.213779    0.000000
      2          1           0       -0.763381   -1.782798    0.000000
      3          1           0        0.835755   -1.787019    0.000000
      4          8           0        0.037695    1.241926    0.000000
      5          1           0        0.264795    2.197924    0.000000
      6          1           0       -0.940284    1.146714    0.000000
 ---------------------------------------------------------------------

 SCF Done:  E(RHF) =  -33.6342581648     A.U. after   11 cycles
 E2 =    -0.2302100439D+00 EUMP2 =    -0.33864468208776D+02
 CCSD(T)
 CCSD(T)= -0.33881873031D+02

 The electronic state is 1-A'.
 Alpha  occ. eigenvalues --   -1.33562  -1.32039  -0.69153  -0.67776  -0.54941
 Alpha  occ. eigenvalues --   -0.48698  -0.48238  -0.46213
 Alpha virt. eigenvalues --    0.20698   0.24828   0.32034   0.32918   0.78896
 Alpha virt. eigenvalues --    0.82204   0.88767   0.88913   0.98278   1.14738
 Alpha virt. eigenvalues --    1.19104   1.22503   1.23887   1.28943   2.56059

 Mulliken charges:
               1
     1  O   -0.723592
     2  H    0.346980
     3  H    0.370311
     4  O   -0.693444
     5  H    0.344491
     6  H    0.355254
 Sum of Mulliken charges =  -0.00000

 Dipole moment (field-independent basis, Debye):
    X=             -1.6035    Y=             -0.6893    Z=              0.0000  Tot=              1.7453
 Quadrupole moment (field-independent basis, Debye-Ang):
   XX=             -9.0750   YY=             -0.8853   ZZ=            -14.9937
   XY=             -1.4532   XZ=              0.0000   YZ=              0.0000

 MP4DQ=-33.8759252\MP4SDQ=-33.8780736\CCSD=-33.879149\CCSD(T)=-33.88187
 Normal termination of Gaussian 16 at Sun Dec 10 06:39:55 2023.
