 Gaussian 16, Revision A.03,
 Gaussian 16:  ES64L-G16RevA.03 25-Dec-2016

 ------------------
 #p CCSD(T)/CEP-31G
 ------------------

 ----------
 H2O_H2O_26
 ----------
 Symbolic Z-matrix:
 Charge =  0 Multiplicity = 1

                         Standard orientation:
 ---------------------------------------------------------------------
 Center     Atomic      Atomic             Coordinates (Angstroms)
 Number     Number       Type             X           Y           Z
 ---------------------------------------------------------------------
      1          8           0        0.003735   -0.816764    0.000000
      2          1           0       -0.796060   -1.387581    0.000000
      3          1           0        0.803082   -1.388210    0.000000
      4          8           0        0.003735    0.817005    0.000000
      5          1           0        0.764486    1.438909    0.000000
      6          1           0       -0.831274    1.334948    0.000000
 ---------------------------------------------------------------------

 SCF Done:  E(RHF) =  -33.4698648788     A.U. after   11 cycles
 E2 =    -0.2399996898D+00 EUMP2 =    -0.33709864568679D+02
 CCSD(T)
 CCSD(T)= -0.33726013198D+02

 The electronic state is 1-A'.
 Alpha  occ. eigenvalues --   -1.37507  -1.28838  -0.70820  -0.67446  -0.65272
 Alpha  occ. eigenvalues --   -0.52131  -0.42355  -0.30217
 Alpha virt. eigenvalues --    0.21085   0.28912   0.31417   0.33704   0.79811
 Alpha virt. eigenvalues --    0.82257   0.87374   0.88797   1.04063   1.18866
 Alpha virt. eigenvalues --    1.20412   1.25231   1.27837   1.40332   2.52307

 Mulliken charges:
               1
     1  O   -0.684930
     2  H    0.338712
     3  H    0.346142
     4  O   -0.684287
     5  H    0.341872
     6  H    0.342491
 Sum of Mulliken charges =  -0.00000

 Dipole moment (field-independent basis, Debye):
    X=             -0.1363    Y=             -0.0075    Z=              0.0000  Tot=              0.1365
 Quadrupole moment (field-independent basis, Debye-Ang):
   XX=             -8.6046   YY=             -8.1042   ZZ=            -15.0289
   XY=             -0.0962   XZ=              0.0000   YZ=              0.0000

 4DQ=-33.7189595\MP4SDQ=-33.7218672\CCSD=-33.7223202\CCSD(T)=-33.726013
 Normal termination of Gaussian 16 at Sun Dec 10 06:25:13 2023.
