 Gaussian 16, Revision A.03,
 Gaussian 16:  ES64L-G16RevA.03 25-Dec-2016

 ------------------
 #p CCSD(T)/CEP-31G
 ------------------

 -----------
 H2O_H2O_849
 -----------
 Symbolic Z-matrix:
 Charge =  0 Multiplicity = 1

                         Standard orientation:
 ---------------------------------------------------------------------
 Center     Atomic      Atomic             Coordinates (Angstroms)
 Number     Number       Type             X           Y           Z
 ---------------------------------------------------------------------
      1          8           0        0.057340   -1.180571    0.000000
      2          1           0       -0.744494   -1.748522    0.000000
      3          1           0        0.854635   -1.754876    0.000000
      4          8           0        0.057340    1.294343    0.000000
      5          1           0       -0.510611    2.096177    0.000000
      6          1           0       -0.516965    0.497047    0.000000
 ---------------------------------------------------------------------

 SCF Done:  E(RHF) =  -33.6480532751     A.U. after   11 cycles
 E2 =    -0.2300315972D+00 EUMP2 =    -0.33878084872290D+02
 CCSD(T)
 CCSD(T)= -0.33894718241D+02

 The electronic state is 1-A'.
 Alpha  occ. eigenvalues --   -1.37513  -1.30868  -0.73172  -0.68590  -0.55681
 Alpha  occ. eigenvalues --   -0.52095  -0.50793  -0.45429
 Alpha virt. eigenvalues --    0.18661   0.27126   0.29013   0.37947   0.76325
 Alpha virt. eigenvalues --    0.81514   0.88496   0.88604   0.98186   1.10988
 Alpha virt. eigenvalues --    1.18093   1.19663   1.25131   1.31775   2.65317

 Mulliken charges:
               1
     1  O   -0.783327
     2  H    0.372019
     3  H    0.416726
     4  O   -0.733339
     5  H    0.330472
     6  H    0.397449
 Sum of Mulliken charges =   0.00000

 Dipole moment (field-independent basis, Debye):
    X=             -2.4399    Y=             -3.0575    Z=              0.0000  Tot=              3.9117
 Quadrupole moment (field-independent basis, Debye-Ang):
   XX=            -10.1148   YY=             -4.6193   ZZ=            -15.0091
   XY=             -3.6530   XZ=              0.0000   YZ=              0.0000

 MP4DQ=-33.8887473\MP4SDQ=-33.8909401\CCSD=-33.8918833\CCSD(T)=-33.8947
 Normal termination of Gaussian 16 at Sun Dec 10 06:40:37 2023.
