 Gaussian 16, Revision A.03,
 Gaussian 16:  ES64L-G16RevA.03 25-Dec-2016

 ------------------
 #p CCSD(T)/CEP-31G
 ------------------

 ------------
 H2O_H2O_1415
 ------------
 Symbolic Z-matrix:
 Charge =  0 Multiplicity = 1

                         Standard orientation:
 ---------------------------------------------------------------------
 Center     Atomic      Atomic             Coordinates (Angstroms)
 Number     Number       Type             X           Y           Z
 ---------------------------------------------------------------------
      1          8           0        0.047555   -1.520733    0.000000
      2          1           0       -0.753524   -2.089749    0.000000
      3          1           0        0.845613   -2.093977    0.000000
      4          8           0        0.047555    1.571247    0.000000
      5          1           0        0.019491    2.553449    0.000000
      6          1           0       -0.872458    1.226164    0.000000
 ---------------------------------------------------------------------

 SCF Done:  E(RHF) =  -33.6473550509     A.U. after   11 cycles
 E2 =    -0.2291889202D+00 EUMP2 =    -0.33876543971080D+02
 CCSD(T)
 CCSD(T)= -0.33893748364D+02

 The electronic state is 1-A'.
 Alpha  occ. eigenvalues --   -1.34700  -1.33046  -0.70335  -0.68612  -0.54440
 Alpha  occ. eigenvalues --   -0.52289  -0.49235  -0.47559
 Alpha virt. eigenvalues --    0.20052   0.23580   0.31074   0.32641   0.76123
 Alpha virt. eigenvalues --    0.79325   0.84981   0.85115   0.90210   1.11632
 Alpha virt. eigenvalues --    1.17968   1.21433   1.22596   1.25410   2.58490

 Mulliken charges:
               1
     1  O   -0.729724
     2  H    0.356463
     3  H    0.373366
     4  O   -0.719397
     5  H    0.348175
     6  H    0.371117
 Sum of Mulliken charges =  -0.00000

 Dipole moment (field-independent basis, Debye):
    X=             -2.1234    Y=             -1.2610    Z=              0.0000  Tot=              2.4696
 Quadrupole moment (field-independent basis, Debye-Ang):
   XX=             -9.5244   YY=              1.5772   ZZ=            -14.9883
   XY=             -2.7916   XZ=              0.0000   YZ=              0.0000

 MP4DQ=-33.8879741\MP4SDQ=-33.8900715\CCSD=-33.8911225\CCSD(T)=-33.8937
 Normal termination of Gaussian 16 at Sun Dec 10 06:51:12 2023.
