 Gaussian 16, Revision A.03,
 Gaussian 16:  ES64L-G16RevA.03 25-Dec-2016

 ------------------
 #p CCSD(T)/CEP-31G
 ------------------

 ------------
 H2O_H2O_2720
 ------------
 Symbolic Z-matrix:
 Charge =  0 Multiplicity = 1

                         Standard orientation:
 ---------------------------------------------------------------------
 Center     Atomic      Atomic             Coordinates (Angstroms)
 Number     Number       Type             X           Y           Z
 ---------------------------------------------------------------------
      1          8           0        0.055257   -2.193704    0.000000
      2          1           0       -0.745525   -2.763137    0.000000
      3          1           0        0.853613   -2.766533    0.000000
      4          8           0        0.055257    2.278132    0.000000
      5          1           0       -0.287515    3.199009    0.000000
      6          1           0       -0.704683    1.655238    0.000000
 ---------------------------------------------------------------------

 SCF Done:  E(RHF) =  -33.6518066995     A.U. after   11 cycles
 E2 =    -0.2284616025D+00 EUMP2 =    -0.33880268301999D+02
 CCSD(T)
 CCSD(T)= -0.33897268961D+02

 The electronic state is 1-A'.
 Alpha  occ. eigenvalues --   -1.35561  -1.34245  -0.71195  -0.69835  -0.55299
 Alpha  occ. eigenvalues --   -0.53957  -0.50132  -0.48818
 Alpha virt. eigenvalues --    0.20018   0.21721   0.30422   0.31799   0.80410
 Alpha virt. eigenvalues --    0.81720   0.82288   0.85281   0.86506   0.88952
 Alpha virt. eigenvalues --    1.17340   1.18734   1.21755   1.23370   2.57352

 Mulliken charges:
               1
     1  O   -0.741186
     2  H    0.367090
     3  H    0.374227
     4  O   -0.739784
     5  H    0.362308
     6  H    0.377345
 Sum of Mulliken charges =  -0.00000

 Dipole moment (field-independent basis, Debye):
    X=             -2.5344    Y=             -2.0148    Z=              0.0000  Tot=              3.2377
 Quadrupole moment (field-independent basis, Debye-Ang):
   XX=            -10.0134   YY=              4.4770   ZZ=            -14.9897
   XY=             -5.5262   XZ=              0.0000   YZ=              0.0000

 \MP4DQ=-33.8916201\MP4SDQ=-33.8936518\CCSD=-33.8947027\CCSD(T)=-33.897
 Normal termination of Gaussian 16 at Sun Dec 10 06:28:50 2023.
