 Gaussian 16, Revision A.03,
 Gaussian 16:  ES64L-G16RevA.03 25-Dec-2016

 ------------------
 #p CCSD(T)/CEP-31G
 ------------------

 -----------
 H2O_H2O_953
 -----------
 Symbolic Z-matrix:
 Charge =  0 Multiplicity = 1

                         Standard orientation:
 ---------------------------------------------------------------------
 Center     Atomic      Atomic             Coordinates (Angstroms)
 Number     Number       Type             X           Y           Z
 ---------------------------------------------------------------------
      1          8           0        0.011143   -1.307660    0.000000
      2          1           0       -0.788846   -1.878206    0.000000
      3          1           0        0.810295   -1.879378    0.000000
      4          8           0        0.011143    1.309839    0.000000
      5          1           0        0.684453    2.025491    0.000000
      6          1           0       -0.884191    1.714664    0.000000
 ---------------------------------------------------------------------

 SCF Done:  E(RHF) =  -33.6339651195     A.U. after   11 cycles
 E2 =    -0.2297683429D+00 EUMP2 =    -0.33863733462470D+02
 CCSD(T)
 CCSD(T)= -0.33881165432D+02

 The electronic state is 1-A'.
 Alpha  occ. eigenvalues --   -1.32884  -1.32350  -0.68434  -0.68012  -0.54381
 Alpha  occ. eigenvalues --   -0.48687  -0.47561  -0.46422
 Alpha virt. eigenvalues --    0.21423   0.23857   0.32516   0.32815   0.79460
 Alpha virt. eigenvalues --    0.79883   0.85791   0.88205   1.03325   1.09685
 Alpha virt. eigenvalues --    1.19563   1.21153   1.24315   1.24893   2.56926

 Mulliken charges:
               1
     1  O   -0.702480
     2  H    0.347852
     3  H    0.354224
     4  O   -0.700455
     5  H    0.349472
     6  H    0.351386
 Sum of Mulliken charges =   0.00000

 Dipole moment (field-independent basis, Debye):
    X=             -0.4821    Y=             -0.0531    Z=              0.0000  Tot=              0.4850
 Quadrupole moment (field-independent basis, Debye-Ang):
   XX=             -8.3044   YY=              0.8385   ZZ=            -14.9916
   XY=             -0.3835   XZ=              0.0000   YZ=              0.0000

 P4DQ=-33.8752758\MP4SDQ=-33.8773776\CCSD=-33.8784717\CCSD(T)=-33.88116
 Normal termination of Gaussian 16 at Sun Dec 10 06:42:35 2023.
