 Gaussian 16, Revision A.03,
 Gaussian 16:  ES64L-G16RevA.03 25-Dec-2016

 ------------------
 #p CCSD(T)/CEP-31G
 ------------------

 ------------
 H2O_H2O_2483
 ------------
 Symbolic Z-matrix:
 Charge =  0 Multiplicity = 1

                         Standard orientation:
 ---------------------------------------------------------------------
 Center     Atomic      Atomic             Coordinates (Angstroms)
 Number     Number       Type             X           Y           Z
 ---------------------------------------------------------------------
      1          8           0        0.028565   -2.111618    0.000000
      2          1           0       -0.771668   -2.681822    0.000000
      3          1           0        0.827473   -2.683677    0.000000
      4          8           0        0.028565    2.126856    0.000000
      5          1           0        0.436487    3.020783    0.000000
      6          1           0       -0.949339    2.222819    0.000000
 ---------------------------------------------------------------------

 SCF Done:  E(RHF) =  -33.6485544576     A.U. after   11 cycles
 E2 =    -0.2286108027D+00 EUMP2 =    -0.33877165260291D+02
 CCSD(T)
 CCSD(T)= -0.33894260339D+02

 The electronic state is 1-A'.
 Alpha  occ. eigenvalues --   -1.34517  -1.34256  -0.70141  -0.69866  -0.54109
 Alpha  occ. eigenvalues --   -0.53750  -0.49042  -0.48781
 Alpha virt. eigenvalues --    0.20909   0.21500   0.31309   0.31553   0.81324
 Alpha virt. eigenvalues --    0.81333   0.81946   0.86553   0.87998   0.90501
 Alpha virt. eigenvalues --    1.18250   1.18511   1.22741   1.23005   2.58261

 Mulliken charges:
               1
     1  O   -0.729952
     2  H    0.362762
     3  H    0.367219
     4  O   -0.728967
     5  H    0.361541
     6  H    0.367398
 Sum of Mulliken charges =  -0.00000

 Dipole moment (field-independent basis, Debye):
    X=             -1.3076    Y=             -0.3651    Z=              0.0000  Tot=              1.3576
 Quadrupole moment (field-independent basis, Debye-Ang):
   XX=             -8.5953   YY=              9.2781   ZZ=            -14.9853
   XY=             -2.0819   XZ=              0.0000   YZ=              0.0000

 \MP4DQ=-33.8885859\MP4SDQ=-33.8906259\CCSD=-33.8916839\CCSD(T)=-33.894
 Normal termination of Gaussian 16 at Sun Dec 10 07:12:05 2023.
