 Gaussian 16, Revision A.03,
 Gaussian 16:  ES64L-G16RevA.03 25-Dec-2016

 ------------------
 #p CCSD(T)/CEP-31G
 ------------------

 ------------
 H2O_H2O_2035
 ------------
 Symbolic Z-matrix:
 Charge =  0 Multiplicity = 1

                         Standard orientation:
 ---------------------------------------------------------------------
 Center     Atomic      Atomic             Coordinates (Angstroms)
 Number     Number       Type             X           Y           Z
 ---------------------------------------------------------------------
      1          8           0        0.034787   -1.867807    0.000000
      2          1           0       -0.765692   -2.437665    0.000000
      3          1           0        0.833448   -2.440212    0.000000
      4          8           0        0.034787    1.891301    0.000000
      5          1           0        0.322943    2.830701    0.000000
      6          1           0       -0.947291    1.859226    0.000000
 ---------------------------------------------------------------------

 SCF Done:  E(RHF) =  -33.6477310981     A.U. after   11 cycles
 E2 =    -0.2287536064D+00 EUMP2 =    -0.33876484704517D+02
 CCSD(T)
 CCSD(T)= -0.33893612938D+02

 The electronic state is 1-A'.
 Alpha  occ. eigenvalues --   -1.34420  -1.33899  -0.70045  -0.69495  -0.54039
 Alpha  occ. eigenvalues --   -0.53260  -0.48938  -0.48413
 Alpha virt. eigenvalues --    0.20722   0.22038   0.31364   0.31854   0.77691
 Alpha virt. eigenvalues --    0.80970   0.82768   0.85975   0.88890   0.97180
 Alpha virt. eigenvalues --    1.18313   1.18921   1.22817   1.23372   2.58040

 Mulliken charges:
               1
     1  O   -0.727327
     2  H    0.360006
     3  H    0.367475
     4  O   -0.724977
     5  H    0.357482
     6  H    0.367341
 Sum of Mulliken charges =   0.00000

 Dipole moment (field-independent basis, Debye):
    X=             -1.5831    Y=             -0.5723    Z=              0.0000  Tot=              1.6833
 Quadrupole moment (field-independent basis, Debye-Ang):
   XX=             -8.8577   YY=              6.3215   ZZ=            -14.9853
   XY=             -2.2599   XZ=              0.0000   YZ=              0.0000

 MP4DQ=-33.8879164\MP4SDQ=-33.8899698\CCSD=-33.8910244\CCSD(T)=-33.8936
 Normal termination of Gaussian 16 at Sun Dec 10 07:04:02 2023.
