 Gaussian 16, Revision A.03,
 Gaussian 16:  ES64L-G16RevA.03 25-Dec-2016

 ------------------
 #p CCSD(T)/CEP-31G
 ------------------

 -----------
 H2O_H2O_762
 -----------
 Symbolic Z-matrix:
 Charge =  0 Multiplicity = 1

                         Standard orientation:
 ---------------------------------------------------------------------
 Center     Atomic      Atomic             Coordinates (Angstroms)
 Number     Number       Type             X           Y           Z
 ---------------------------------------------------------------------
      1          8           0        0.040433   -1.184430    0.000000
      2          1           0       -0.760787   -1.753245    0.000000
      3          1           0        0.838348   -1.757874    0.000000
      4          8           0        0.040433    1.217652    0.000000
      5          1           0        0.204769    2.186414    0.000000
      6          1           0       -0.929264    1.058927    0.000000
 ---------------------------------------------------------------------

 SCF Done:  E(RHF) =  -33.6332438918     A.U. after   11 cycles
 E2 =    -0.2303812908D+00 EUMP2 =    -0.33863625182581D+02
 CCSD(T)
 CCSD(T)= -0.33881017295D+02

 The electronic state is 1-A'.
 Alpha  occ. eigenvalues --   -1.33736  -1.31893  -0.69334  -0.67712  -0.55081
 Alpha  occ. eigenvalues --   -0.48537  -0.48422  -0.46072
 Alpha virt. eigenvalues --    0.20565   0.25131   0.31905   0.33015   0.78816
 Alpha virt. eigenvalues --    0.82744   0.88973   0.90491   0.97965   1.14822
 Alpha virt. eigenvalues --    1.19046   1.22419   1.23837   1.29871   2.56072

 Mulliken charges:
               1
     1  O   -0.729017
     2  H    0.347445
     3  H    0.373475
     4  O   -0.690969
     5  H    0.343126
     6  H    0.355940
 Sum of Mulliken charges =   0.00000

 Dipole moment (field-independent basis, Debye):
    X=             -1.7087    Y=             -0.8144    Z=              0.0000  Tot=              1.8928
 Quadrupole moment (field-independent basis, Debye-Ang):
   XX=             -9.2019   YY=             -1.3669   ZZ=            -14.9946
   XY=             -1.5708   XZ=              0.0000   YZ=              0.0000

 MP4DQ=-33.8750461\MP4SDQ=-33.8772084\CCSD=-33.8782761\CCSD(T)=-33.8810
 Normal termination of Gaussian 16 at Sun Dec 10 06:38:59 2023.
