 Gaussian 16, Revision A.03,
 Gaussian 16:  ES64L-G16RevA.03 25-Dec-2016

 ------------------
 #p CCSD(T)/CEP-31G
 ------------------

 ------------
 H2O_H2O_1473
 ------------
 Symbolic Z-matrix:
 Charge =  0 Multiplicity = 1

                         Standard orientation:
 ---------------------------------------------------------------------
 Center     Atomic      Atomic             Coordinates (Angstroms)
 Number     Number       Type             X           Y           Z
 ---------------------------------------------------------------------
      1          8           0        0.057157   -1.516975    0.000000
      2          1           0       -0.744194   -2.085606    0.000000
      3          1           0        0.854940   -2.090602    0.000000
      4          8           0        0.057157    1.623374    0.000000
      5          1           0       -0.457845    2.460200    0.000000
      6          1           0       -0.567420    0.864815    0.000000
 ---------------------------------------------------------------------

 SCF Done:  E(RHF) =  -33.6543007034     A.U. after   11 cycles
 E2 =    -0.2290390194D+00 EUMP2 =    -0.33883339722842D+02
 CCSD(T)
 CCSD(T)= -0.33900332070D+02

 The electronic state is 1-A'.
 Alpha  occ. eigenvalues --   -1.36307  -1.32686  -0.71956  -0.68331  -0.56165
 Alpha  occ. eigenvalues --   -0.52475  -0.50915  -0.47292
 Alpha virt. eigenvalues --    0.18979   0.24646   0.29795   0.34598   0.76711
 Alpha virt. eigenvalues --    0.78303   0.84695   0.86488   0.89584   1.06724
 Alpha virt. eigenvalues --    1.16564   1.20282   1.21685   1.29402   2.53410

 Mulliken charges:
               1
     1  O   -0.753550
     2  H    0.367197
     3  H    0.388069
     4  O   -0.745827
     5  H    0.348962
     6  H    0.395149
 Sum of Mulliken charges =  -0.00000

 Dipole moment (field-independent basis, Debye):
    X=             -2.5633    Y=             -2.6881    Z=              0.0000  Tot=              3.7144
 Quadrupole moment (field-independent basis, Debye-Ang):
   XX=            -10.1264   YY=             -1.7624   ZZ=            -14.9979
   XY=             -4.4017   XZ=              0.0000   YZ=              0.0000

 MP4DQ=-33.8945721\MP4SDQ=-33.8966656\CCSD=-33.8976921\CCSD(T)=-33.9003
 Normal termination of Gaussian 16 at Sun Dec 10 06:52:16 2023.
