 Gaussian 16, Revision A.03,
 Gaussian 16:  ES64L-G16RevA.03 25-Dec-2016

 ------------------
 #p CCSD(T)/CEP-31G
 ------------------

 -----------
 H2O_H2O_541
 -----------
 Symbolic Z-matrix:
 Charge =  0 Multiplicity = 1

                         Standard orientation:
 ---------------------------------------------------------------------
 Center     Atomic      Atomic             Coordinates (Angstroms)
 Number     Number       Type             X           Y           Z
 ---------------------------------------------------------------------
      1          8           0        0.049574   -1.052002    0.000000
      2          1           0       -0.752242   -1.619978    0.000000
      3          1           0        0.846887   -1.626280    0.000000
      4          8           0        0.049574    1.108724    0.000000
      5          1           0       -0.041400    2.087106    0.000000
      6          1           0       -0.846423    0.705370    0.000000
 ---------------------------------------------------------------------

 SCF Done:  E(RHF) =  -33.6218016601     A.U. after   11 cycles
 E2 =    -0.2314433433D+00 EUMP2 =    -0.33853245003405D+02
 CCSD(T)
 CCSD(T)= -0.33870490279D+02

 The electronic state is 1-A'.
 Alpha  occ. eigenvalues --   -1.34996  -1.31046  -0.70700  -0.67991  -0.55037
 Alpha  occ. eigenvalues --   -0.49652  -0.47800  -0.45270
 Alpha virt. eigenvalues --    0.19972   0.26710   0.31081   0.33774   0.78655
 Alpha virt. eigenvalues --    0.84620   0.89687   0.96159   0.98483   1.14311
 Alpha virt. eigenvalues --    1.18883   1.22598   1.24945   1.31837   2.58786

 Mulliken charges:
               1
     1  O   -0.759933
     2  H    0.351835
     3  H    0.391303
     4  O   -0.677077
     5  H    0.332096
     6  H    0.361777
 Sum of Mulliken charges =   0.00000

 Dipole moment (field-independent basis, Debye):
    X=             -2.0170    Y=             -1.4162    Z=              0.0000  Tot=              2.4646
 Quadrupole moment (field-independent basis, Debye-Ang):
   XX=             -9.6765   YY=             -3.6175   ZZ=            -14.9961
   XY=             -1.9778   XZ=              0.0000   YZ=              0.0000

 MP4DQ=-33.8643678\MP4SDQ=-33.8666214\CCSD=-33.8676185\CCSD(T)=-33.8704
 Normal termination of Gaussian 16 at Sun Dec 10 06:34:52 2023.
