 Gaussian 16, Revision A.03,
 Gaussian 16:  ES64L-G16RevA.03 25-Dec-2016

 ------------------
 #p CCSD(T)/CEP-31G
 ------------------

 ------------
 H2O_H2O_2637
 ------------
 Symbolic Z-matrix:
 Charge =  0 Multiplicity = 1

                         Standard orientation:
 ---------------------------------------------------------------------
 Center     Atomic      Atomic             Coordinates (Angstroms)
 Number     Number       Type             X           Y           Z
 ---------------------------------------------------------------------
      1          8           0        0.040412   -2.181568    0.000000
      2          1           0       -0.760062   -2.751435    0.000000
      3          1           0        0.839078   -2.753964    0.000000
      4          8           0        0.040412    2.214896    0.000000
      5          1           0        0.203475    3.183873    0.000000
      6          1           0       -0.929077    2.054899    0.000000
 ---------------------------------------------------------------------

 SCF Done:  E(RHF) =  -33.6496283123     A.U. after   11 cycles
 E2 =    -0.2285556776D+00 EUMP2 =    -0.33878183989916D+02
 CCSD(T)
 CCSD(T)= -0.33895247824D+02

 The electronic state is 1-A'.
 Alpha  occ. eigenvalues --   -1.34843  -1.34311  -0.70470  -0.69914  -0.54460
 Alpha  occ. eigenvalues --   -0.53909  -0.49382  -0.48853
 Alpha virt. eigenvalues --    0.20691   0.21456   0.31037   0.31556   0.81109
 Alpha virt. eigenvalues --    0.81748   0.82089   0.85869   0.87457   0.89679
 Alpha virt. eigenvalues --    1.17969   1.18505   1.22436   1.22987   2.58033

 Mulliken charges:
               1
     1  O   -0.733679
     2  H    0.364017
     3  H    0.369696
     4  O   -0.732169
     5  H    0.361886
     6  H    0.370249
 Sum of Mulliken charges =   0.00000

 Dipole moment (field-independent basis, Debye):
    X=             -1.8519    Y=             -0.7951    Z=              0.0000  Tot=              2.0153
 Quadrupole moment (field-independent basis, Debye-Ang):
   XX=             -9.1085   YY=              8.6959   ZZ=            -14.9865
   XY=             -3.3160   XZ=              0.0000   YZ=              0.0000

 MP4DQ=-33.8895836\MP4SDQ=-33.8916196\CCSD=-33.8926759\CCSD(T)=-33.8952
 Normal termination of Gaussian 16 at Sun Dec 10 06:27:17 2023.
