 Gaussian 16, Revision A.03,
 Gaussian 16:  ES64L-G16RevA.03 25-Dec-2016

 ------------------
 #p CCSD(T)/CEP-31G
 ------------------

 -----------
 H2O_H2O_982
 -----------
 Symbolic Z-matrix:
 Charge =  0 Multiplicity = 1

                         Standard orientation:
 ---------------------------------------------------------------------
 Center     Atomic      Atomic             Coordinates (Angstroms)
 Number     Number       Type             X           Y           Z
 ---------------------------------------------------------------------
      1          8           0        0.025270   -1.315786    0.000000
      2          1           0       -0.775239   -1.885602    0.000000
      3          1           0        0.823900   -1.888233    0.000000
      4          8           0        0.025270    1.327483    0.000000
      5          1           0        0.491202    2.192591    0.000000
      6          1           0       -0.944187    1.487669    0.000000
 ---------------------------------------------------------------------

 SCF Done:  E(RHF) =  -33.6363190057     A.U. after   11 cycles
 E2 =    -0.2297425655D+00 EUMP2 =    -0.33866061571175D+02
 CCSD(T)
 CCSD(T)= -0.33883483068D+02

 The electronic state is 1-A'.
 Alpha  occ. eigenvalues --   -1.33151  -1.32468  -0.68732  -0.68106  -0.54365
 Alpha  occ. eigenvalues --   -0.49293  -0.47800  -0.46624
 Alpha virt. eigenvalues --    0.21131   0.23937   0.32332   0.32712   0.79273
 Alpha virt. eigenvalues --    0.80827   0.84481   0.87949   0.99672   1.13154
 Alpha virt. eigenvalues --    1.19331   1.22083   1.24095   1.25137   2.57182

 Mulliken charges:
               1
     1  O   -0.709737
     2  H    0.347149
     3  H    0.360821
     4  O   -0.700136
     5  H    0.347823
     6  H    0.354080
 Sum of Mulliken charges =   0.00000

 Dipole moment (field-independent basis, Debye):
    X=             -1.0969    Y=             -0.2871    Z=              0.0000  Tot=              1.1338
 Quadrupole moment (field-independent basis, Debye-Ang):
   XX=             -8.6019   YY=              0.7532   ZZ=            -14.9902
   XY=             -0.9547   XZ=              0.0000   YZ=              0.0000

 P4DQ=-33.8775983\MP4SDQ=-33.8797103\CCSD=-33.8807988\CCSD(T)=-33.88348
 Normal termination of Gaussian 16 at Sun Dec 10 06:43:07 2023.
