 Gaussian 16, Revision A.03,
 Gaussian 16:  ES64L-G16RevA.03 25-Dec-2016

 ------------------
 #p CCSD(T)/CEP-31G
 ------------------

 ------------
 H2O_H2O_2948
 ------------
 Symbolic Z-matrix:
 Charge =  0 Multiplicity = 1

                         Standard orientation:
 ---------------------------------------------------------------------
 Center     Atomic      Atomic             Coordinates (Angstroms)
 Number     Number       Type             X           Y           Z
 ---------------------------------------------------------------------
      1          8           0        0.057102   -2.301372    0.000000
      2          1           0       -0.743657   -2.870836    0.000000
      3          1           0        0.855481   -2.874168    0.000000
      4          8           0        0.057102    2.407890    0.000000
      5          1           0       -0.458772    3.244179    0.000000
      6          1           0       -0.566685    1.648682    0.000000
 ---------------------------------------------------------------------

 SCF Done:  E(RHF) =  -33.6525462305     A.U. after   11 cycles
 E2 =    -0.2284020251D+00 EUMP2 =    -0.33880948255638D+02
 CCSD(T)
 CCSD(T)= -0.33897926549D+02

 The electronic state is 1-A'.
 Alpha  occ. eigenvalues --   -1.35819  -1.34337  -0.71455  -0.69933  -0.55600
 Alpha  occ. eigenvalues --   -0.54080  -0.50400  -0.48919
 Alpha virt. eigenvalues --    0.19848   0.21638   0.30220   0.31775   0.80156
 Alpha virt. eigenvalues --    0.81601   0.82751   0.84921   0.86209   0.88056
 Alpha virt. eigenvalues --    1.17114   1.18651   1.21542   1.23329   2.57118

 Mulliken charges:
               1
     1  O   -0.743732
     2  H    0.368852
     3  H    0.375001
     4  O   -0.743135
     5  H    0.363752
     6  H    0.379262
 Sum of Mulliken charges =  -0.00000

 Dipole moment (field-independent basis, Debye):
    X=             -2.6226    Y=             -2.5327    Z=              0.0000  Tot=              3.6459
 Quadrupole moment (field-independent basis, Debye-Ang):
   XX=            -10.1499   YY=              2.9258   ZZ=            -14.9907
   XY=             -6.4211   XZ=              0.0000   YZ=              0.0000

 8\MP4DQ=-33.8922844\MP4SDQ=-33.8943134\CCSD=-33.8953637\CCSD(T)=-33.89
 Normal termination of Gaussian 16 at Sun Dec 10 06:33:03 2023.
