 Gaussian 16, Revision A.03,
 Gaussian 16:  ES64L-G16RevA.03 25-Dec-2016

 ------------------
 #p CCSD(T)/CEP-31G
 ------------------

 -----------
 H2O_H2O_908
 -----------
 Symbolic Z-matrix:
 Charge =  0 Multiplicity = 1

                         Standard orientation:
 ---------------------------------------------------------------------
 Center     Atomic      Atomic             Coordinates (Angstroms)
 Number     Number       Type             X           Y           Z
 ---------------------------------------------------------------------
      1          8           0        0.028571   -1.273998    0.000000
      2          1           0       -0.772094   -1.843596    0.000000
      3          1           0        0.827045   -1.846663    0.000000
      4          8           0        0.028571    1.289192    0.000000
      5          1           0        0.437170    2.182810    0.000000
      6          1           0       -0.949260    1.385897    0.000000
 ---------------------------------------------------------------------

 SCF Done:  E(RHF) =  -33.6350182137     A.U. after   11 cycles
 E2 =    -0.2299101404D+00 EUMP2 =    -0.33864928354162D+02
 CCSD(T)
 CCSD(T)= -0.33882351647D+02

 The electronic state is 1-A'.
 Alpha  occ. eigenvalues --   -1.33188  -1.32298  -0.68764  -0.67954  -0.54604
 Alpha  occ. eigenvalues --   -0.48882  -0.47857  -0.46434
 Alpha virt. eigenvalues --    0.21050   0.24222   0.32316   0.32779   0.79169
 Alpha virt. eigenvalues --    0.80917   0.86345   0.88349   0.99735   1.13657
 Alpha virt. eigenvalues --    1.19324   1.22485   1.24086   1.26111   2.56417

 Mulliken charges:
               1
     1  O   -0.712285
     2  H    0.346435
     3  H    0.362968
     4  O   -0.697871
     5  H    0.347126
     6  H    0.353626
 Sum of Mulliken charges =  -0.00000

 Dipole moment (field-independent basis, Debye):
    X=             -1.2298    Y=             -0.3714    Z=              0.0000  Tot=              1.2846
 Quadrupole moment (field-independent basis, Debye-Ang):
   XX=             -8.7152   YY=              0.1523   ZZ=            -14.9920
   XY=             -1.0597   XZ=              0.0000   YZ=              0.0000

 P4DQ=-33.8764435\MP4SDQ=-33.8785654\CCSD=-33.8796526\CCSD(T)=-33.88235
 Normal termination of Gaussian 16 at Sun Dec 10 06:41:44 2023.
