 Gaussian 16, Revision A.03,
 Gaussian 16:  ES64L-G16RevA.03 25-Dec-2016

 ------------------
 #p CCSD(T)/CEP-31G
 ------------------

 -----------
 H2O_H2O_244
 -----------
 Symbolic Z-matrix:
 Charge =  0 Multiplicity = 1

                         Standard orientation:
 ---------------------------------------------------------------------
 Center     Atomic      Atomic             Coordinates (Angstroms)
 Number     Number       Type             X           Y           Z
 ---------------------------------------------------------------------
      1          8           0        0.054278   -0.881457    0.000000
      2          1           0       -0.748173   -1.448535    0.000000
      3          1           0        0.850948   -1.456628    0.000000
      4          8           0        0.054278    0.958418    0.000000
      5          1           0       -0.224767    1.900565    0.000000
      6          1           0       -0.746451    0.388909    0.000000
 ---------------------------------------------------------------------

 SCF Done:  E(RHF) =  -33.5565162316     A.U. after   11 cycles
 E2 =    -0.2339292045D+00 EUMP2 =    -0.33790445436159D+02
 CCSD(T)
 CCSD(T)= -0.33807141281D+02

 The electronic state is 1-A'.
 Alpha  occ. eigenvalues --   -1.38597  -1.29349  -0.74923  -0.70260  -0.52845
 Alpha  occ. eigenvalues --   -0.52418  -0.44726  -0.43690
 Alpha virt. eigenvalues --    0.19398   0.29039   0.29636   0.34885   0.79198
 Alpha virt. eigenvalues --    0.84044   0.89898   0.95294   0.98635   1.17002
 Alpha virt. eigenvalues --    1.20474   1.24883   1.30297   1.34250   2.67015

 Mulliken charges:
               1
     1  O   -0.792767
     2  H    0.356091
     3  H    0.419754
     4  O   -0.652510
     5  H    0.303694
     6  H    0.365738
 Sum of Mulliken charges =   0.00000

 Dipole moment (field-independent basis, Debye):
    X=             -2.0371    Y=             -2.0390    Z=              0.0000  Tot=              2.8822
 Quadrupole moment (field-independent basis, Debye-Ang):
   XX=             -9.9459   YY=             -6.6111   ZZ=            -14.9630
   XY=             -1.9962   XZ=              0.0000   YZ=              0.0000

 MP4DQ=-33.8006237\MP4SDQ=-33.8031276\CCSD=-33.8039019\CCSD(T)=-33.8071
 Normal termination of Gaussian 16 at Sun Dec 10 06:29:19 2023.
