 Gaussian 16, Revision A.03,
 Gaussian 16:  ES64L-G16RevA.03 25-Dec-2016

 ------------------
 #p CCSD(T)/CEP-31G
 ------------------

 -----------
 H2O_H2O_577
 -----------
 Symbolic Z-matrix:
 Charge =  0 Multiplicity = 1

                         Standard orientation:
 ---------------------------------------------------------------------
 Center     Atomic      Atomic             Coordinates (Angstroms)
 Number     Number       Type             X           Y           Z
 ---------------------------------------------------------------------
      1          8           0        0.007455   -1.108879    0.000000
      2          1           0       -0.792446   -1.679548    0.000000
      3          1           0        0.806696   -1.680473    0.000000
      4          8           0        0.007455    1.109848    0.000000
      5          1           0        0.726026    1.780042    0.000000
      6          1           0       -0.859557    1.572229    0.000000
 ---------------------------------------------------------------------

 SCF Done:  E(RHF) =  -33.6153081889     A.U. after   11 cycles
 E2 =    -0.2310341947D+00 EUMP2 =    -0.33846342383612D+02
 CCSD(T)
 CCSD(T)= -0.33863669180D+02

 The electronic state is 1-A'.
 Alpha  occ. eigenvalues --   -1.32750  -1.31186  -0.68110  -0.66978  -0.56580
 Alpha  occ. eigenvalues --   -0.47603  -0.44963  -0.44479
 Alpha virt. eigenvalues --    0.21569   0.25138   0.32881   0.33231   0.78328
 Alpha virt. eigenvalues --    0.80038   0.89970   0.98440   1.00131   1.15830
 Alpha virt. eigenvalues --    1.20029   1.22656   1.23692   1.26652   2.51154

 Mulliken charges:
               1
     1  O   -0.698812
     2  H    0.345834
     3  H    0.352465
     4  O   -0.696867
     5  H    0.349571
     6  H    0.347809
 Sum of Mulliken charges =  -0.00000

 Dipole moment (field-independent basis, Debye):
    X=             -0.3026    Y=             -0.0227    Z=              0.0000  Tot=              0.3034
 Quadrupole moment (field-independent basis, Debye-Ang):
   XX=             -8.3260   YY=             -2.0127   ZZ=            -15.0118
   XY=             -0.1900   XZ=              0.0000   YZ=              0.0000

 4DQ=-33.8576184\MP4SDQ=-33.859779\CCSD=-33.8608402\CCSD(T)=-33.8636692
 Normal termination of Gaussian 16 at Sun Dec 10 06:35:32 2023.
