 Gaussian 16, Revision A.03,
 Gaussian 16:  ES64L-G16RevA.03 25-Dec-2016

 ------------------
 #p CCSD(T)/CEP-31G
 ------------------

 -----------
 H2O_H2O_466
 -----------
 Symbolic Z-matrix:
 Charge =  0 Multiplicity = 1

                         Standard orientation:
 ---------------------------------------------------------------------
 Center     Atomic      Atomic             Coordinates (Angstroms)
 Number     Number       Type             X           Y           Z
 ---------------------------------------------------------------------
      1          8           0        0.049578   -1.012122    0.000000
      2          1           0       -0.752324   -1.579977    0.000000
      3          1           0        0.846805   -1.586521    0.000000
      4          8           0        0.049578    1.068830    0.000000
      5          1           0       -0.041248    2.047225    0.000000
      6          1           0       -0.846480    0.665610    0.000000
 ---------------------------------------------------------------------

 SCF Done:  E(RHF) =  -33.6129626002     A.U. after   11 cycles
 E2 =    -0.2318933700D+00 EUMP2 =    -0.33844855970213D+02
 CCSD(T)
 CCSD(T)= -0.33862067667D+02

 The electronic state is 1-A'.
 Alpha  occ. eigenvalues --   -1.35246  -1.30772  -0.70992  -0.68147  -0.55135
 Alpha  occ. eigenvalues --   -0.49882  -0.46886  -0.44957
 Alpha virt. eigenvalues --    0.19966   0.27068   0.31024   0.33822   0.78936
 Alpha virt. eigenvalues --    0.84762   0.89837   0.96378   0.99333   1.14793
 Alpha virt. eigenvalues --    1.19035   1.23374   1.25489   1.32144   2.58323

 Mulliken charges:
               1
     1  O   -0.765064
     2  H    0.351536
     3  H    0.393886
     4  O   -0.670390
     5  H    0.329870
     6  H    0.360161
 Sum of Mulliken charges =  -0.00000

 Dipole moment (field-independent basis, Debye):
    X=             -1.9849    Y=             -1.4155    Z=              0.0000  Tot=              2.4380
 Quadrupole moment (field-independent basis, Debye-Ang):
   XX=             -9.6821   YY=             -4.1565   ZZ=            -14.9946
   XY=             -1.8856   XZ=              0.0000   YZ=              0.0000

 MP4DQ=-33.8558821\MP4SDQ=-33.8581721\CCSD=-33.8591435\CCSD(T)=-33.8620
 Normal termination of Gaussian 16 at Sun Dec 10 06:33:29 2023.
