 Gaussian 16, Revision A.03,
 Gaussian 16:  ES64L-G16RevA.03 25-Dec-2016

 ------------------
 #p CCSD(T)/CEP-31G
 ------------------

 ------------
 H2O_H2O_1134
 ------------
 Symbolic Z-matrix:
 Charge =  0 Multiplicity = 1

                         Standard orientation:
 ---------------------------------------------------------------------
 Center     Atomic      Atomic             Coordinates (Angstroms)
 Number     Number       Type             X           Y           Z
 ---------------------------------------------------------------------
      1          8           0        0.031749   -1.391526    0.000000
      2          1           0       -0.768934   -1.961098    0.000000
      3          1           0        0.830205   -1.964215    0.000000
      4          8           0        0.031749    1.410653    0.000000
      5          1           0        0.381055    2.329070    0.000000
      6          1           0       -0.950312    1.443227    0.000000
 ---------------------------------------------------------------------

 SCF Done:  E(RHF) =  -33.6404061910     A.U. after   11 cycles
 E2 =    -0.2295099954D+00 EUMP2 =    -0.33869916186387D+02
 CCSD(T)
 CCSD(T)= -0.33887294407D+02

 The electronic state is 1-A'.
 Alpha  occ. eigenvalues --   -1.33536  -1.32763  -0.69147  -0.68366  -0.54118
 Alpha  occ. eigenvalues --   -0.50513  -0.48110  -0.47069
 Alpha virt. eigenvalues --    0.20872   0.23663   0.32027   0.32580   0.79302
 Alpha virt. eigenvalues --    0.80421   0.82298   0.86964   0.96276   1.14058
 Alpha virt. eigenvalues --    1.18984   1.22000   1.23764   1.24746   2.58594

 Mulliken charges:
               1
     1  O   -0.714914
     2  H    0.349481
     3  H    0.364067
     4  O   -0.704506
     5  H    0.347419
     6  H    0.358452
 Sum of Mulliken charges =  -0.00000

 Dipole moment (field-independent basis, Debye):
    X=             -1.3969    Y=             -0.4750    Z=              0.0000  Tot=              1.4755
 Quadrupole moment (field-independent basis, Debye-Ang):
   XX=             -8.8001   YY=              1.4676   ZZ=            -14.9874
   XY=             -1.3750   XZ=              0.0000   YZ=              0.0000

 DQ=-33.8814489\MP4SDQ=-33.8835578\CCSD=-33.8846365\CCSD(T)=-33.8872944
 Normal termination of Gaussian 16 at Sun Dec 10 06:45:57 2023.
