 Gaussian 16, Revision A.03,
 Gaussian 16:  ES64L-G16RevA.03 25-Dec-2016

 ------------------
 #p CCSD(T)/CEP-31G
 ------------------

 ------------
 H2O_H2O_2344
 ------------
 Symbolic Z-matrix:
 Charge =  0 Multiplicity = 1

                         Standard orientation:
 ---------------------------------------------------------------------
 Center     Atomic      Atomic             Coordinates (Angstroms)
 Number     Number       Type             X           Y           Z
 ---------------------------------------------------------------------
      1          8           0        0.054171   -1.998157    0.000000
      2          1           0       -0.746704   -2.567460    0.000000
      3          1           0        0.852434   -2.571115    0.000000
      4          8           0        0.054171    2.075419    0.000000
      5          1           0       -0.227487    3.016787    0.000000
      6          1           0       -0.744974    1.503690    0.000000
 ---------------------------------------------------------------------

 SCF Done:  E(RHF) =  -33.6514824569     A.U. after   11 cycles
 E2 =    -0.2285495428D+00 EUMP2 =    -0.33880031999676D+02
 CCSD(T)
 CCSD(T)= -0.33897046196D+02

 The electronic state is 1-A'.
 Alpha  occ. eigenvalues --   -1.35462  -1.33986  -0.71097  -0.69562  -0.55179
 Alpha  occ. eigenvalues --   -0.53676  -0.50028  -0.48557
 Alpha virt. eigenvalues --    0.19903   0.22133   0.30468   0.32058   0.80212
 Alpha virt. eigenvalues --    0.80417   0.82078   0.85694   0.86636   0.92138
 Alpha virt. eigenvalues --    1.17419   1.19145   1.21797   1.23911   2.57167

 Mulliken charges:
               1
     1  O   -0.739964
     2  H    0.365590
     3  H    0.374706
     4  O   -0.737710
     5  H    0.359715
     6  H    0.377663
 Sum of Mulliken charges =  -0.00000

 Dipole moment (field-independent basis, Debye):
    X=             -2.4757    Y=             -1.8627    Z=              0.0000  Tot=              3.0982
 Quadrupole moment (field-independent basis, Debye-Ang):
   XX=             -9.9342   YY=              3.7296   ZZ=            -14.9896
   XY=             -4.8083   XZ=              0.0000   YZ=              0.0000

 MP4DQ=-33.8913864\MP4SDQ=-33.8934253\CCSD=-33.8944732\CCSD(T)=-33.8970
 Normal termination of Gaussian 16 at Sun Dec 10 07:09:35 2023.
