 Gaussian 16, Revision A.03,
 Gaussian 16:  ES64L-G16RevA.03 25-Dec-2016

 ------------------
 #p CCSD(T)/CEP-31G
 ------------------

 ------------
 H2O_H2O_4779
 ------------
 Symbolic Z-matrix:
 Charge =  0 Multiplicity = 1

                         Standard orientation:
 ---------------------------------------------------------------------
 Center     Atomic      Atomic             Coordinates (Angstroms)
 Number     Number       Type             X           Y           Z
 ---------------------------------------------------------------------
      1          8           0        0.014783   -3.341010    0.000000
      2          1           0       -0.785006   -3.911837    0.000000
      3          1           0        0.814136   -3.912446    0.000000
      4          8           0        0.014783    3.344891    0.000000
      5          1           0        0.639578    4.103269    0.000000
      6          1           0       -0.905233    3.689968    0.000000
 ---------------------------------------------------------------------

 SCF Done:  E(RHF) =  -33.6508329612     A.U. after   11 cycles
 E2 =    -0.2284282838D+00 EUMP2 =    -0.33879261244922D+02
 CCSD(T)
 CCSD(T)= -0.33896289149D+02

 The electronic state is 1-A'.
 Alpha  occ. eigenvalues --   -1.35081  -1.35055  -0.70709  -0.70682  -0.54762
 Alpha  occ. eigenvalues --   -0.54736  -0.49637  -0.49612
 Alpha virt. eigenvalues --    0.20638   0.20664   0.30871   0.30896   0.80916
 Alpha virt. eigenvalues --    0.80942   0.84033   0.84058   0.87110   0.87141
 Alpha virt. eigenvalues --    1.17780   1.17806   1.22246   1.22272   2.57821

 Mulliken charges:
               1
     1  O   -0.737706
     2  H    0.368522
     3  H    0.369184
     4  O   -0.737672
     5  H    0.368361
     6  H    0.369311
 Sum of Mulliken charges =   0.00000

 Dipole moment (field-independent basis, Debye):
    X=             -0.6827    Y=             -0.0906    Z=              0.0000  Tot=              0.6887
 Quadrupole moment (field-independent basis, Debye-Ang):
   XX=             -8.1773   YY=             23.0009   ZZ=            -14.9870
   XY=             -1.8389   XZ=              0.0000   YZ=              0.0000

 P4DQ=-33.8906376\MP4SDQ=-33.8926678\CCSD=-33.8937251\CCSD(T)=-33.89628
 Normal termination of Gaussian 16 at Sun Dec 10 07:07:44 2023.
