 Gaussian 16, Revision A.03,
 Gaussian 16:  ES64L-G16RevA.03 25-Dec-2016

 ------------------
 #p CCSD(T)/CEP-31G
 ------------------

 -----------
 H2O_H2O_915
 -----------
 Symbolic Z-matrix:
 Charge =  0 Multiplicity = 1

                         Standard orientation:
 ---------------------------------------------------------------------
 Center     Atomic      Atomic             Coordinates (Angstroms)
 Number     Number       Type             X           Y           Z
 ---------------------------------------------------------------------
      1          8           0        0.047569   -1.254842    0.000000
      2          1           0       -0.753822   -1.823418    0.000000
      3          1           0        0.845312   -1.828525    0.000000
      4          8           0        0.047569    1.305304    0.000000
      5          1           0        0.020044    2.287520    0.000000
      6          1           0       -0.872633    0.960726    0.000000
 ---------------------------------------------------------------------

 SCF Done:  E(RHF) =  -33.6410631930     A.U. after   11 cycles
 E2 =    -0.2300394792D+00 EUMP2 =    -0.33871102672198D+02
 CCSD(T)
 CCSD(T)= -0.33888425971D+02

 The electronic state is 1-A'.
 Alpha  occ. eigenvalues --   -1.34440  -1.32132  -0.70081  -0.67912  -0.54670
 Alpha  occ. eigenvalues --   -0.50411  -0.49035  -0.46519
 Alpha virt. eigenvalues --    0.20110   0.25055   0.31325   0.33177   0.78336
 Alpha virt. eigenvalues --    0.83131   0.87271   0.88060   0.94162   1.16354
 Alpha virt. eigenvalues --    1.18813   1.22170   1.22993   1.29588   2.60316

 Mulliken charges:
               1
     1  O   -0.735899
     2  H    0.351994
     3  H    0.378562
     4  O   -0.701130
     5  H    0.340608
     6  H    0.365864
 Sum of Mulliken charges =  -0.00000

 Dipole moment (field-independent basis, Debye):
    X=             -2.0485    Y=             -1.2625    Z=              0.0000  Tot=              2.4062
 Quadrupole moment (field-independent basis, Debye-Ang):
   XX=             -9.5454   YY=             -1.0533   ZZ=            -14.9926
   XY=             -2.2421   XZ=              0.0000   YZ=              0.0000

 P4DQ=-33.8825103\MP4SDQ=-33.8846622\CCSD=-33.8857196\CCSD(T)=-33.88842
 Normal termination of Gaussian 16 at Sun Dec 10 06:41:52 2023.
