 Gaussian 16, Revision A.03,
 Gaussian 16:  ES64L-G16RevA.03 25-Dec-2016

 ------------------
 #p CCSD(T)/CEP-31G
 ------------------

 -----------
 H2O_H2O_137
 -----------
 Symbolic Z-matrix:
 Charge =  0 Multiplicity = 1

                         Standard orientation:
 ---------------------------------------------------------------------
 Center     Atomic      Atomic             Coordinates (Angstroms)
 Number     Number       Type             X           Y           Z
 ---------------------------------------------------------------------
      1          8           0        0.040452   -0.852079    0.000000
      2          1           0       -0.761399   -1.420006    0.000000
      3          1           0        0.837731   -1.426407    0.000000
      4          8           0        0.040452    0.885212    0.000000
      5          1           0        0.205861    1.853791    0.000000
      6          1           0       -0.929421    0.727561    0.000000
 ---------------------------------------------------------------------

 SCF Done:  E(RHF) =  -33.5312735321     A.U. after   12 cycles
 E2 =    -0.2356744295D+00 EUMP2 =    -0.33766947961623D+02
 CCSD(T)
 CCSD(T)= -0.33783866328D+02

 The electronic state is 1-A'.
 Alpha  occ. eigenvalues --   -1.37003  -1.29301  -0.72288  -0.68503  -0.58888
 Alpha  occ. eigenvalues --   -0.51423  -0.43197  -0.37809
 Alpha virt. eigenvalues --    0.20351   0.28333   0.31286   0.33482   0.81212
 Alpha virt. eigenvalues --    0.84733   0.89409   0.94063   0.98132   1.19823
 Alpha virt. eigenvalues --    1.20661   1.25836   1.26787   1.36526   2.55097

 Mulliken charges:
               1
     1  O   -0.748429
     2  H    0.338701
     3  H    0.389529
     4  O   -0.653510
     5  H    0.328567
     6  H    0.345141
 Sum of Mulliken charges =   0.00000

 Dipole moment (field-independent basis, Debye):
    X=             -1.4807    Y=             -0.8527    Z=              0.0000  Tot=              1.7087
 Quadrupole moment (field-independent basis, Debye-Ang):
   XX=             -9.2969   YY=             -6.7305   ZZ=            -14.9750
   XY=             -1.0598   XZ=              0.0000   YZ=              0.0000

 P4DQ=-33.7772189\MP4SDQ=-33.7798308\CCSD=-33.7805598\CCSD(T)=-33.78386
 Normal termination of Gaussian 16 at Sun Dec 10 06:27:18 2023.
