 Gaussian 16, Revision A.03,
 Gaussian 16:  ES64L-G16RevA.03 25-Dec-2016

 ------------------
 #p CCSD(T)/CEP-31G
 ------------------

 -----------
 H2O_H2O_580
 -----------
 Symbolic Z-matrix:
 Charge =  0 Multiplicity = 1

                         Standard orientation:
 ---------------------------------------------------------------------
 Center     Atomic      Atomic             Coordinates (Angstroms)
 Number     Number       Type             X           Y           Z
 ---------------------------------------------------------------------
      1          8           0        0.018363   -1.106140    0.000000
      2          1           0       -0.782021   -1.676132    0.000000
      3          1           0        0.817119   -1.678411    0.000000
      4          8           0        0.018363    1.112150    0.000000
      5          1           0        0.593053    1.909168    0.000000
      6          1           0       -0.921954    1.397298    0.000000
 ---------------------------------------------------------------------

 SCF Done:  E(RHF) =  -33.6167471733     A.U. after   11 cycles
 E2 =    -0.2310097926D+00 EUMP2 =    -0.33847756965856D+02
 CCSD(T)
 CCSD(T)= -0.33865097848D+02

 The electronic state is 1-A'.
 Alpha  occ. eigenvalues --   -1.32887  -1.31255  -0.68281  -0.67075  -0.56496
 Alpha  occ. eigenvalues --   -0.47738  -0.45063  -0.44831
 Alpha virt. eigenvalues --    0.21398   0.25224   0.32740   0.33169   0.79137
 Alpha virt. eigenvalues --    0.79912   0.89913   0.97607   1.00486   1.14764
 Alpha virt. eigenvalues --    1.19954   1.23081   1.24449   1.26997   2.51343

 Mulliken charges:
               1
     1  O   -0.705568
     2  H    0.343325
     3  H    0.359157
     4  O   -0.693762
     5  H    0.350004
     6  H    0.346845
 Sum of Mulliken charges =  -0.00000

 Dipole moment (field-independent basis, Debye):
    X=             -0.7473    Y=             -0.1413    Z=              0.0000  Tot=              0.7606
 Quadrupole moment (field-independent basis, Debye-Ang):
   XX=             -8.4902   YY=             -2.0668   ZZ=            -15.0090
   XY=             -0.4971   XZ=              0.0000   YZ=              0.0000

 P4DQ=-33.8590464\MP4SDQ=-33.8612148\CCSD=-33.8622758\CCSD(T)=-33.86509
 Normal termination of Gaussian 16 at Sun Dec 10 06:35:35 2023.
