 Gaussian 16, Revision A.03,
 Gaussian 16:  ES64L-G16RevA.03 25-Dec-2016

 ------------------
 #p CCSD(T)/CEP-31G
 ------------------

 ------------
 H2O_H2O_1210
 ------------
 Symbolic Z-matrix:
 Charge =  0 Multiplicity = 1

                         Standard orientation:
 ---------------------------------------------------------------------
 Center     Atomic      Atomic             Coordinates (Angstroms)
 Number     Number       Type             X           Y           Z
 ---------------------------------------------------------------------
      1          8           0        0.034793   -1.429060    0.000000
      2          1           0       -0.765963   -1.998529    0.000000
      3          1           0        0.833176   -2.001851    0.000000
      4          8           0        0.034793    1.452520    0.000000
      5          1           0        0.323405    2.391780    0.000000
      6          1           0       -0.947301    1.420921    0.000000
 ---------------------------------------------------------------------

 SCF Done:  E(RHF) =  -33.6420881810     A.U. after   11 cycles
 E2 =    -0.2294143926D+00 EUMP2 =    -0.33871502573664D+02
 CCSD(T)
 CCSD(T)= -0.33888848933D+02

 The electronic state is 1-A'.
 Alpha  occ. eigenvalues --   -1.33748  -1.32879  -0.69367  -0.68470  -0.54072
 Alpha  occ. eigenvalues --   -0.51025  -0.48296  -0.47246
 Alpha virt. eigenvalues --    0.20735   0.23552   0.31861   0.32535   0.78939
 Alpha virt. eigenvalues --    0.79357   0.82863   0.86468   0.94754   1.13928
 Alpha virt. eigenvalues --    1.18800   1.21880   1.23548   1.24599   2.59154

 Mulliken charges:
               1
     1  O   -0.717517
     2  H    0.350828
     3  H    0.365650
     4  O   -0.707228
     5  H    0.347518
     6  H    0.360748
 Sum of Mulliken charges =  -0.00000

 Dipole moment (field-independent basis, Debye):
    X=             -1.5386    Y=             -0.5844    Z=              0.0000  Tot=              1.6459
 Quadrupole moment (field-independent basis, Debye-Ang):
   XX=             -8.9118   YY=              1.7543   ZZ=            -14.9868
   XY=             -1.6088   XZ=              0.0000   YZ=              0.0000

 P4DQ=-33.883022\MP4SDQ=-33.8851286\CCSD=-33.8862012\CCSD(T)=-33.888848
 Normal termination of Gaussian 16 at Sun Dec 10 06:47:22 2023.
