 Gaussian 16, Revision A.03,
 Gaussian 16:  ES64L-G16RevA.03 25-Dec-2016

 ------------------
 #p CCSD(T)/CEP-31G
 ------------------

 ------------
 H2O_H2O_2309
 ------------
 Symbolic Z-matrix:
 Charge =  0 Multiplicity = 1

                         Standard orientation:
 ---------------------------------------------------------------------
 Center     Atomic      Atomic             Coordinates (Angstroms)
 Number     Number       Type             X           Y           Z
 ---------------------------------------------------------------------
      1          8           0        0.031743   -2.016413    0.000000
      2          1           0       -0.768597   -2.586467    0.000000
      3          1           0        0.830544   -2.588623    0.000000
      4          8           0        0.031743    2.035578    0.000000
      5          1           0        0.380497    2.954206    0.000000
      6          1           0       -0.950337    2.067563    0.000000
 ---------------------------------------------------------------------

 SCF Done:  E(RHF) =  -33.6483113848     A.U. after   11 cycles
 E2 =    -0.2286540495D+00 EUMP2 =    -0.33876965434287D+02
 CCSD(T)
 CCSD(T)= -0.33894069315D+02

 The electronic state is 1-A'.
 Alpha  occ. eigenvalues --   -1.34492  -1.34130  -0.70116  -0.69735  -0.54087
 Alpha  occ. eigenvalues --   -0.53588  -0.49014  -0.48652
 Alpha virt. eigenvalues --    0.20842   0.21684   0.31323   0.31660   0.80015
 Alpha virt. eigenvalues --    0.81230   0.82194   0.86405   0.88237   0.92607
 Alpha virt. eigenvalues --    1.18266   1.18640   1.22761   1.23132   2.58193

 Mulliken charges:
               1
     1  O   -0.729163
     2  H    0.361821
     3  H    0.367405
     4  O   -0.727715
     5  H    0.360131
     6  H    0.367519
 Sum of Mulliken charges =   0.00000

 Dipole moment (field-independent basis, Debye):
    X=             -1.4503    Y=             -0.4618    Z=              0.0000  Tot=              1.5220
 Quadrupole moment (field-independent basis, Debye-Ang):
   XX=             -8.7213   YY=              8.0649   ZZ=            -14.9853
   XY=             -2.2224   XZ=              0.0000   YZ=              0.0000

 \MP4DQ=-33.888389\MP4SDQ=-33.8904326\CCSD=-33.8914894\CCSD(T)=-33.8940
 Normal termination of Gaussian 16 at Sun Dec 10 07:08:57 2023.
