 Gaussian 16, Revision A.03,
 Gaussian 16:  ES64L-G16RevA.03 25-Dec-2016

 ------------------
 #p CCSD(T)/CEP-31G
 ------------------

 ------------
 H2O_H2O_3488
 ------------
 Symbolic Z-matrix:
 Charge =  0 Multiplicity = 1

                         Standard orientation:
 ---------------------------------------------------------------------
 Center     Atomic      Atomic             Coordinates (Angstroms)
 Number     Number       Type             X           Y           Z
 ---------------------------------------------------------------------
      1          8           0        0.042967   -2.630662    0.000000
      2          1           0       -0.757400   -3.200678    0.000000
      3          1           0        0.841741   -3.202909    0.000000
      4          8           0        0.042967    2.669454    0.000000
      5          1           0        0.142125    3.647040    0.000000
      6          1           0       -0.913939    2.446213    0.000000
 ---------------------------------------------------------------------

 SCF Done:  E(RHF) =  -33.6506629724     A.U. after   11 cycles
 E2 =    -0.2284588162D+00 EUMP2 =    -0.33879121788527D+02
 CCSD(T)
 CCSD(T)= -0.33896154661D+02

 The electronic state is 1-A'.
 Alpha  occ. eigenvalues --   -1.35116  -1.34697  -0.70745  -0.70312  -0.54788
 Alpha  occ. eigenvalues --   -0.54366  -0.49671  -0.49253
 Alpha virt. eigenvalues --    0.20589   0.21024   0.30827   0.31237   0.80882
 Alpha virt. eigenvalues --    0.81294   0.83917   0.84513   0.87082   0.87604
 Alpha virt. eigenvalues --    1.17738   1.18153   1.22205   1.22624   2.57780

 Mulliken charges:
               1
     1  O   -0.737190
     2  H    0.366791
     3  H    0.370399
     4  O   -0.736499
     5  H    0.365360
     6  H    0.371138
 Sum of Mulliken charges =  -0.00000

 Dipole moment (field-independent basis, Debye):
    X=             -1.9784    Y=             -0.9135    Z=              0.0000  Tot=              2.1791
 Quadrupole moment (field-independent basis, Debye-Ang):
   XX=             -9.2383   YY=             12.3217   ZZ=            -14.9872
   XY=             -4.4739   XZ=              0.0000   YZ=              0.0000

 MP4DQ=-33.8905015\MP4SDQ=-33.8925324\CCSD=-33.8935892\CCSD(T)=-33.8961
 Normal termination of Gaussian 16 at Sun Dec 10 06:42:40 2023.
