 Gaussian 16, Revision A.03,
 Gaussian 16:  ES64L-G16RevA.03 25-Dec-2016

 ------------------
 #p CCSD(T)/CEP-31G
 ------------------

 ------------
 H2O_H2O_3534
 ------------
 Symbolic Z-matrix:
 Charge =  0 Multiplicity = 1

                         Standard orientation:
 ---------------------------------------------------------------------
 Center     Atomic      Atomic             Coordinates (Angstroms)
 Number     Number       Type             X           Y           Z
 ---------------------------------------------------------------------
      1          8           0        0.031740   -2.667902    0.000000
      2          1           0       -0.768413   -3.238218    0.000000
      3          1           0        0.830728   -3.239849    0.000000
      4          8           0        0.031740    2.687088    0.000000
      5          1           0        0.380193    3.605830    0.000000
      6          1           0       -0.950351    2.718751    0.000000
 ---------------------------------------------------------------------

 SCF Done:  E(RHF) =  -33.6502490081     A.U. after   11 cycles
 E2 =    -0.2284733600D+00 EUMP2 =    -0.33878722368090D+02
 CCSD(T)
 CCSD(T)= -0.33895767116D+02

 The electronic state is 1-A'.
 Alpha  occ. eigenvalues --   -1.34939  -1.34736  -0.70566  -0.70356  -0.54586
 Alpha  occ. eigenvalues --   -0.54383  -0.49487  -0.49285
 Alpha virt. eigenvalues --    0.20745   0.20956   0.30980   0.31176   0.81066
 Alpha virt. eigenvalues --    0.81266   0.84112   0.84567   0.87289   0.87551
 Alpha virt. eigenvalues --    1.17898   1.18098   1.22369   1.22570   2.57952

 Mulliken charges:
               1
     1  O   -0.735713
     2  H    0.366549
     3  H    0.369165
     4  O   -0.735300
     5  H    0.365758
     6  H    0.369541
 Sum of Mulliken charges =   0.00000

 Dipole moment (field-independent basis, Debye):
    X=             -1.4618    Y=             -0.4516    Z=              0.0000  Tot=              1.5299
 Quadrupole moment (field-independent basis, Debye-Ang):
   XX=             -8.6981   YY=             14.5400   ZZ=            -14.9866
   XY=             -3.1449   XZ=              0.0000   YZ=              0.0000

 MP4DQ=-33.8901107\MP4SDQ=-33.8921427\CCSD=-33.8932005\CCSD(T)=-33.8957
 Normal termination of Gaussian 16 at Sun Dec 10 06:43:30 2023.
