 Gaussian 16, Revision A.03,
 Gaussian 16:  ES64L-G16RevA.03 25-Dec-2016

 ------------------
 #p CCSD(T)/CEP-31G
 ------------------

 -----------
 H2O_H2O_644
 -----------
 Symbolic Z-matrix:
 Charge =  0 Multiplicity = 1

                         Standard orientation:
 ---------------------------------------------------------------------
 Center     Atomic      Atomic             Coordinates (Angstroms)
 Number     Number       Type             X           Y           Z
 ---------------------------------------------------------------------
      1          8           0        0.054241   -1.094138    0.000000
      2          1           0       -0.747671   -1.661979    0.000000
      3          1           0        0.851458   -1.668551    0.000000
      4          8           0        0.054241    1.171202    0.000000
      5          1           0       -0.225699    2.113083    0.000000
      6          1           0       -0.745946    0.600932    0.000000
 ---------------------------------------------------------------------

 SCF Done:  E(RHF) =  -33.6322274127     A.U. after   11 cycles
 E2 =    -0.2310051328D+00 EUMP2 =    -0.33863232545498D+02
 CCSD(T)
 CCSD(T)= -0.33880300188D+02

 The electronic state is 1-A'.
 Alpha  occ. eigenvalues --   -1.35865  -1.31051  -0.71609  -0.68278  -0.54226
 Alpha  occ. eigenvalues --   -0.50437  -0.49936  -0.45461
 Alpha virt. eigenvalues --    0.19487   0.26898   0.30317   0.34706   0.77716
 Alpha virt. eigenvalues --    0.84392   0.89351   0.94191   0.97240   1.14088
 Alpha virt. eigenvalues --    1.18981   1.21266   1.25250   1.31256   2.66775

 Mulliken charges:
               1
     1  O   -0.768425
     2  H    0.358330
     3  H    0.400607
     4  O   -0.693179
     5  H    0.328085
     6  H    0.374583
 Sum of Mulliken charges =   0.00000

 Dipole moment (field-independent basis, Debye):
    X=             -2.2448    Y=             -1.9857    Z=              0.0000  Tot=              2.9970
 Quadrupole moment (field-independent basis, Debye-Ang):
   XX=             -9.9347   YY=             -3.7335   ZZ=            -14.9992
   XY=             -2.5956   XZ=              0.0000   YZ=              0.0000

 P4DQ=-33.8742283\MP4SDQ=-33.8764637\CCSD=-33.8774458\CCSD(T)=-33.88030
 Normal termination of Gaussian 16 at Sun Dec 10 06:36:47 2023.
