 Gaussian 16, Revision A.03,
 Gaussian 16:  ES64L-G16RevA.03 25-Dec-2016

 ------------------
 #p CCSD(T)/CEP-31G
 ------------------

 ------------
 H2O_H2O_2875
 ------------
 Symbolic Z-matrix:
 Charge =  0 Multiplicity = 1

                         Standard orientation:
 ---------------------------------------------------------------------
 Center     Atomic      Atomic             Coordinates (Angstroms)
 Number     Number       Type             X           Y           Z
 ---------------------------------------------------------------------
      1          8           0        0.000000   -0.000000    2.332629
      2          1           0        0.000000    0.799571    2.903761
      3          1           0       -0.000000   -0.799571    2.903761
      4          8           0        0.000000   -0.000000   -2.332629
      5          1           0       -0.000000   -0.799571   -2.903761
      6          1           0        0.000000    0.799571   -2.903761
 ---------------------------------------------------------------------

 SCF Done:  E(RHF) =  -33.6488137454     A.U. after   10 cycles
 E2 =    -0.2285524877D+00 EUMP2 =    -0.33877366233128D+02
 CCSD(T)
 CCSD(T)= -0.33894452458D+02

 The electronic state is 1-AG.
 Alpha  occ. eigenvalues --   -1.34500  -1.34498  -0.70123  -0.70121  -0.54116
 Alpha  occ. eigenvalues --   -0.54004  -0.49032  -0.49021
 Alpha virt. eigenvalues --    0.21017   0.21204   0.31315   0.31360   0.81436
 Alpha virt. eigenvalues --    0.81612   0.83334   0.86449   0.87616   0.88026
 Alpha virt. eigenvalues --    1.18278   1.18278   1.22734   1.22792   2.58339

 Mulliken charges:
               1
     1  O   -0.730748
     2  H    0.365374
     3  H    0.365374
     4  O   -0.730748
     5  H    0.365374
     6  H    0.365374
 Sum of Mulliken charges =  -0.00000

 Dipole moment (field-independent basis, Debye):
    X=             -0.0000    Y=              0.0000    Z=             -0.0000  Tot=              0.0000
 Quadrupole moment (field-independent basis, Debye-Ang):
   XX=            -14.9851   YY=             -8.0665   ZZ=             12.6302
   XY=              0.0000   XZ=              0.0000   YZ=             -0.0000

 33.8887838\MP4SDQ=-33.8908202\CCSD=-33.89188\CCSD(T)=-33.8944525\RMSD=
 Normal termination of Gaussian 16 at Sun Dec 10 06:31:46 2023.
