 Gaussian 16, Revision A.03,
 Gaussian 16:  ES64L-G16RevA.03 25-Dec-2016

 ------------------
 #p CCSD(T)/CEP-31G
 ------------------

 ------------
 H2O_H2O_4553
 ------------
 Symbolic Z-matrix:
 Charge =  0 Multiplicity = 1

                         Standard orientation:
 ---------------------------------------------------------------------
 Center     Atomic      Atomic             Coordinates (Angstroms)
 Number     Number       Type             X           Y           Z
 ---------------------------------------------------------------------
      1          8           0        0.011143   -3.222266    0.000000
      2          1           0       -0.788598   -3.793160    0.000000
      3          1           0        0.810544   -3.793636    0.000000
      4          8           0        0.011143    3.224454    0.000000
      5          1           0        0.684141    3.940401    0.000000
      6          1           0       -0.884367    3.628891    0.000000
 ---------------------------------------------------------------------

 SCF Done:  E(RHF) =  -33.6506961333     A.U. after   11 cycles
 E2 =    -0.2284359477D+00 EUMP2 =    -0.33879132081044D+02
 CCSD(T)
 CCSD(T)= -0.33896163885D+02

 The electronic state is 1-A'.
 Alpha  occ. eigenvalues --   -1.35029  -1.35014  -0.70657  -0.70641  -0.54703
 Alpha  occ. eigenvalues --   -0.54688  -0.49584  -0.49568
 Alpha virt. eigenvalues --    0.20682   0.20698   0.30914   0.30929   0.80970
 Alpha virt. eigenvalues --    0.80985   0.84099   0.84117   0.87171   0.87190
 Alpha virt. eigenvalues --    1.17826   1.17841   1.22292   1.22308   2.57869

 Mulliken charges:
               1
     1  O   -0.737225
     2  H    0.368336
     3  H    0.368889
     4  O   -0.737201
     5  H    0.368211
     6  H    0.368991
 Sum of Mulliken charges =   0.00000

 Dipole moment (field-independent basis, Debye):
    X=             -0.5144    Y=             -0.0512    Z=              0.0000  Tot=              0.5170
 Quadrupole moment (field-independent basis, Debye-Ang):
   XX=             -8.1178   YY=             21.9447   ZZ=            -14.9868
   XY=             -1.3192   XZ=              0.0000   YZ=              0.0000

 \MP4DQ=-33.8905112\MP4SDQ=-33.8925418\CCSD=-33.8935993\CCSD(T)=-33.896
 Normal termination of Gaussian 16 at Sun Dec 10 07:03:36 2023.
