 Gaussian 16, Revision A.03,
 Gaussian 16:  ES64L-G16RevA.03 25-Dec-2016

 ------------------
 #p CCSD(T)/CEP-31G
 ------------------

 ------------
 H2O_H2O_4939
 ------------
 Symbolic Z-matrix:
 Charge =  0 Multiplicity = 1

                         Standard orientation:
 ---------------------------------------------------------------------
 Center     Atomic      Atomic             Coordinates (Angstroms)
 Number     Number       Type             X           Y           Z
 ---------------------------------------------------------------------
      1          8           0        0.045336   -3.398679    0.000000
      2          1           0       -0.754885   -3.968898    0.000000
      3          1           0        0.844256   -3.970722    0.000000
      4          8           0        0.045336    3.443265    0.000000
      5          1           0        0.080095    4.425252    0.000000
      6          1           0       -0.894848    3.157677    0.000000
 ---------------------------------------------------------------------

 SCF Done:  E(RHF) =  -33.6513380456     A.U. after   11 cycles
 E2 =    -0.2284053004D+00 EUMP2 =    -0.33879743346011D+02
 CCSD(T)
 CCSD(T)= -0.33896756675D+02

 The electronic state is 1-A'.
 Alpha  occ. eigenvalues --   -1.35343  -1.35060  -0.70973  -0.70684  -0.55053
 Alpha  occ. eigenvalues --   -0.54768  -0.49908  -0.49624
 Alpha virt. eigenvalues --    0.20404   0.20692   0.30640   0.30922   0.80645
 Alpha virt. eigenvalues --    0.80925   0.83713   0.83994   0.86809   0.87124
 Alpha virt. eigenvalues --    1.17540   1.17821   1.22001   1.22285   2.57568

 Mulliken charges:
               1
     1  O   -0.739515
     2  H    0.368830
     3  H    0.370686
     4  O   -0.739296
     5  H    0.368040
     6  H    0.371256
 Sum of Mulliken charges =  -0.00000

 Dipole moment (field-independent basis, Debye):
    X=             -2.0940    Y=             -1.0407    Z=              0.0000  Tot=              2.3383
 Quadrupole moment (field-independent basis, Debye-Ang):
   XX=             -9.3717   YY=             18.3748   ZZ=            -14.9878
   XY=             -6.3995   XZ=              0.0000   YZ=              0.0000

 MP4DQ=-33.8911091\MP4SDQ=-33.8931379\CCSD=-33.8941942\CCSD(T)=-33.8967
 Normal termination of Gaussian 16 at Sun Dec 10 07:10:43 2023.
