 Gaussian 16, Revision A.03,
 Gaussian 16:  ES64L-G16RevA.03 25-Dec-2016

 ------------------
 #p CCSD(T)/CEP-31G
 ------------------

 ------------
 H2O_H2O_2774
 ------------
 Symbolic Z-matrix:
 Charge =  0 Multiplicity = 1

                         Standard orientation:
 ---------------------------------------------------------------------
 Center     Atomic      Atomic             Coordinates (Angstroms)
 Number     Number       Type             X           Y           Z
 ---------------------------------------------------------------------
      1          8           0        0.057237   -2.204249    0.000000
      2          1           0       -0.743574   -2.773641    0.000000
      3          1           0        0.855565   -2.777118    0.000000
      4          8           0        0.057237    2.318227    0.000000
      5          1           0       -0.512155    3.119038    0.000000
      6          1           0       -0.515632    1.519899    0.000000
 ---------------------------------------------------------------------

 SCF Done:  E(RHF) =  -33.6529752605     A.U. after   11 cycles
 E2 =    -0.2284073368D+00 EUMP2 =    -0.33881382597321D+02
 CCSD(T)
 CCSD(T)= -0.33898349360D+02

 The electronic state is 1-A'.
 Alpha  occ. eigenvalues --   -1.35942  -1.34208  -0.71581  -0.69799  -0.55748
 Alpha  occ. eigenvalues --   -0.53962  -0.50530  -0.48795
 Alpha virt. eigenvalues --    0.19647   0.21874   0.30110   0.31957   0.80024
 Alpha virt. eigenvalues --    0.81722   0.82453   0.85164   0.86019   0.88357
 Alpha virt. eigenvalues --    1.17007   1.18868   1.21420   1.23807   2.56967

 Mulliken charges:
               1
     1  O   -0.745081
     2  H    0.369288
     3  H    0.376059
     4  O   -0.744713
     5  H    0.363076
     6  H    0.381372
 Sum of Mulliken charges =  -0.00000

 Dipole moment (field-independent basis, Debye):
    X=             -2.6257    Y=             -2.7221    Z=              0.0000  Tot=              3.7820
 Quadrupole moment (field-independent basis, Debye-Ang):
   XX=            -10.1586   YY=              1.5832   ZZ=            -14.9916
   XY=             -6.3299   XZ=              0.0000   YZ=              0.0000

 4\MP4DQ=-33.8927065\MP4SDQ=-33.8947377\CCSD=-33.8957852\CCSD(T)=-33.89
 Normal termination of Gaussian 16 at Sun Dec 10 06:29:51 2023.
