 Gaussian 16, Revision A.03,
 Gaussian 16:  ES64L-G16RevA.03 25-Dec-2016

 ------------------
 #p CCSD(T)/CEP-31G
 ------------------

 ------------
 H2O_H2O_1653
 ------------
 Symbolic Z-matrix:
 Charge =  0 Multiplicity = 1

                         Standard orientation:
 ---------------------------------------------------------------------
 Center     Atomic      Atomic             Coordinates (Angstroms)
 Number     Number       Type             X           Y           Z
 ---------------------------------------------------------------------
      1          8           0        0.011143   -1.679944    0.000000
      2          1           0       -0.788754   -2.250619    0.000000
      3          1           0        0.810388   -2.251532    0.000000
      4          8           0        0.011143    1.682126    0.000000
      5          1           0        0.684336    2.397888    0.000000
      6          1           0       -0.884256    2.086806    0.000000
 ---------------------------------------------------------------------

 SCF Done:  E(RHF) =  -33.6440332245     A.U. after   11 cycles
 E2 =    -0.2289634516D+00 EUMP2 =    -0.33872996676020D+02
 CCSD(T)
 CCSD(T)= -0.33890249769D+02

 The electronic state is 1-A'.
 Alpha  occ. eigenvalues --   -1.33671  -1.33580  -0.69287  -0.69195  -0.53634
 Alpha  occ. eigenvalues --   -0.52163  -0.48216  -0.47963
 Alpha virt. eigenvalues --    0.21122   0.22414   0.31819   0.32146   0.76583
 Alpha virt. eigenvalues --    0.80660   0.84267   0.84716   0.93151   1.02412
 Alpha virt. eigenvalues --    1.18929   1.19083   1.23331   1.23825   2.58675

 Mulliken charges:
               1
     1  O   -0.715986
     2  H    0.356380
     3  H    0.359617
     4  O   -0.715528
     5  H    0.356003
     6  H    0.359514
 Sum of Mulliken charges =   0.00000

 Dipole moment (field-independent basis, Debye):
    X=             -0.5041    Y=             -0.0542    Z=              0.0000  Tot=              0.5071
 Quadrupole moment (field-independent basis, Debye-Ang):
   XX=             -8.2171   YY=              5.3502   ZZ=            -14.9834
   XY=             -0.5595   XZ=              0.0000   YZ=              0.0000

 \MP4DQ=-33.8844999\MP4SDQ=-33.8865734\CCSD=-33.8876379\CCSD(T)=-33.890
 Normal termination of Gaussian 16 at Sun Dec 10 06:55:37 2023.
