 Gaussian 16, Revision A.03,
 Gaussian 16:  ES64L-G16RevA.03 25-Dec-2016

 ------------------
 #p CCSD(T)/CEP-31G
 ------------------

 ------------
 H2O_H2O_2933
 ------------
 Symbolic Z-matrix:
 Charge =  0 Multiplicity = 1

                         Standard orientation:
 ---------------------------------------------------------------------
 Center     Atomic      Atomic             Coordinates (Angstroms)
 Number     Number       Type             X           Y           Z
 ---------------------------------------------------------------------
      1          8           0        0.028565   -2.350941    0.000000
      2          1           0       -0.771601   -2.921240    0.000000
      3          1           0        0.827540   -2.922906    0.000000
      4          8           0        0.028565    2.366185    0.000000
      5          1           0        0.436381    3.260161    0.000000
      6          1           0       -0.949351    2.462034    0.000000
 ---------------------------------------------------------------------

 SCF Done:  E(RHF) =  -33.6494154592     A.U. after   11 cycles
 E2 =    -0.2285317528D+00 EUMP2 =    -0.33877947211958D+02
 CCSD(T)
 CCSD(T)= -0.33895016348D+02

 The electronic state is 1-A'.
 Alpha  occ. eigenvalues --   -1.34710  -1.34501  -0.70335  -0.70117  -0.54316
 Alpha  occ. eigenvalues --   -0.54090  -0.49246  -0.49038
 Alpha virt. eigenvalues --    0.20887   0.21185   0.31162   0.31360   0.81280
 Alpha virt. eigenvalues --    0.81535   0.83402   0.85708   0.87564   0.88142
 Alpha virt. eigenvalues --    1.18092   1.18298   1.22572   1.22779   2.58168

 Mulliken charges:
               1
     1  O   -0.732865
     2  H    0.364767
     3  H    0.368103
     4  O   -0.732252
     5  H    0.363853
     6  H    0.368395
 Sum of Mulliken charges =  -0.00000

 Dipole moment (field-independent basis, Debye):
    X=             -1.3119    Y=             -0.3616    Z=              0.0000  Tot=              1.3608
 Quadrupole moment (field-independent basis, Debye-Ang):
   XX=             -8.5842   YY=             11.7072   ZZ=            -14.9858
   XY=             -2.3850   XZ=              0.0000   YZ=              0.0000

 MP4DQ=-33.8893525\MP4SDQ=-33.8913873\CCSD=-33.8924458\CCSD(T)=-33.8950
 Normal termination of Gaussian 16 at Sun Dec 10 06:32:47 2023.
