 Gaussian 16, Revision A.03,
 Gaussian 16:  ES64L-G16RevA.03 25-Dec-2016

 ------------------
 #p CCSD(T)/CEP-31G
 ------------------

 -----------
 H2O_H2O_613
 -----------
 Symbolic Z-matrix:
 Charge =  0 Multiplicity = 1

                         Standard orientation:
 ---------------------------------------------------------------------
 Center     Atomic      Atomic             Coordinates (Angstroms)
 Number     Number       Type             X           Y           Z
 ---------------------------------------------------------------------
      1          8           0        0.043004   -1.101718    0.000000
      2          1           0       -0.758446   -1.670210    0.000000
      3          1           0        0.840687   -1.675483    0.000000
      4          8           0        0.043004    1.140346    0.000000
      5          1           0        0.144021    2.117741    0.000000
      6          1           0       -0.914325    0.918926    0.000000
 ---------------------------------------------------------------------

 SCF Done:  E(RHF) =  -33.6258725810     A.U. after   11 cycles
 E2 =    -0.2309723590D+00 EUMP2 =    -0.33856844939936D+02
 CCSD(T)
 CCSD(T)= -0.33874201371D+02

 The electronic state is 1-A'.
 Alpha  occ. eigenvalues --   -1.34020  -1.31439  -0.69617  -0.67603  -0.55562
 Alpha  occ. eigenvalues --   -0.48756  -0.47380  -0.45552
 Alpha virt. eigenvalues --    0.20432   0.25862   0.31751   0.33236   0.78965
 Alpha virt. eigenvalues --    0.83535   0.89549   0.94777   0.98779   1.14208
 Alpha virt. eigenvalues --    1.19037   1.22551   1.24231   1.31102   2.55267

 Mulliken charges:
               1
     1  O   -0.739993
     2  H    0.347522
     3  H    0.379259
     4  O   -0.682308
     5  H    0.340725
     6  H    0.354795
 Sum of Mulliken charges =  -0.00000

 Dipole moment (field-independent basis, Debye):
    X=             -1.7745    Y=             -0.9439    Z=              0.0000  Tot=              2.0100
 Quadrupole moment (field-independent basis, Debye-Ang):
   XX=             -9.3380   YY=             -2.5458   ZZ=            -14.9972
   XY=             -1.5876   XZ=              0.0000   YZ=              0.0000

 MP4DQ=-33.8681475\MP4SDQ=-33.870353\CCSD=-33.8713953\CCSD(T)=-33.87420
 Normal termination of Gaussian 16 at Sun Dec 10 06:36:12 2023.
