 Gaussian 16, Revision A.03,
 Gaussian 16:  ES64L-G16RevA.03 25-Dec-2016

 ------------------
 #p CCSD(T)/CEP-31G
 ------------------

 -----------
 H2O_H2O_629
 -----------
 Symbolic Z-matrix:
 Charge =  0 Multiplicity = 1

                         Standard orientation:
 ---------------------------------------------------------------------
 Center     Atomic      Atomic             Coordinates (Angstroms)
 Number     Number       Type             X           Y           Z
 ---------------------------------------------------------------------
      1          8           0        0.014784   -1.133900    0.000000
      2          1           0       -0.785426   -1.704136    0.000000
      3          1           0        0.813715   -1.705928    0.000000
      4          8           0        0.014784    1.137759    0.000000
      5          1           0        0.640141    1.895675    0.000000
      6          1           0       -0.904976    1.483517    0.000000
 ---------------------------------------------------------------------

 SCF Done:  E(RHF) =  -33.6199721418     A.U. after   11 cycles
 E2 =    -0.2307752541D+00 EUMP2 =    -0.33850747395880D+02
 CCSD(T)
 CCSD(T)= -0.33868111350D+02

 The electronic state is 1-A'.
 Alpha  occ. eigenvalues --   -1.32789  -1.31407  -0.68207  -0.67182  -0.56108
 Alpha  occ. eigenvalues --   -0.47615  -0.45383  -0.45244
 Alpha virt. eigenvalues --    0.21466   0.24979   0.32784   0.33136   0.78841
 Alpha virt. eigenvalues --    0.79808   0.89778   0.96256   1.01438   1.13911
 Alpha virt. eigenvalues --    1.19934   1.22819   1.24090   1.26517   2.52074

 Mulliken charges:
               1
     1  O   -0.702516
     2  H    0.344273
     3  H    0.356440
     4  O   -0.695525
     5  H    0.349695
     6  H    0.347632
 Sum of Mulliken charges =  -0.00000

 Dipole moment (field-independent basis, Debye):
    X=             -0.6073    Y=             -0.0909    Z=              0.0000  Tot=              0.6141
 Quadrupole moment (field-independent basis, Debye-Ang):
   XX=             -8.4117   YY=             -1.6318   ZZ=            -15.0068
   XY=             -0.4063   XZ=              0.0000   YZ=              0.0000

 MP4DQ=-33.8620908\MP4SDQ=-33.8642404\CCSD=-33.8653119\CCSD(T)=-33.8681
 Normal termination of Gaussian 16 at Sun Dec 10 06:36:30 2023.
