 Gaussian 16, Revision A.03,
 Gaussian 16:  ES64L-G16RevA.03 25-Dec-2016

 ------------------
 #p CCSD(T)/CEP-31G
 ------------------

 ------------
 H2O_H2O_4091
 ------------
 Symbolic Z-matrix:
 Charge =  0 Multiplicity = 1

                         Standard orientation:
 ---------------------------------------------------------------------
 Center     Atomic      Atomic             Coordinates (Angstroms)
 Number     Number       Type             X           Y           Z
 ---------------------------------------------------------------------
      1          8           0        0.049502   -2.939891    0.000000
      2          1           0       -0.750887   -3.509876    0.000000
      3          1           0        0.848253   -3.512170    0.000000
      4          8           0        0.049502    2.996863    0.000000
      5          1           0       -0.043924    3.975013    0.000000
      6          1           0       -0.845480    2.591263    0.000000
 ---------------------------------------------------------------------

 SCF Done:  E(RHF) =  -33.6512925100     A.U. after   11 cycles
 E2 =    -0.2284167145D+00 EUMP2 =    -0.33879709224541D+02
 CCSD(T)
 CCSD(T)= -0.33896723729D+02

 The electronic state is 1-A'.
 Alpha  occ. eigenvalues --   -1.35352  -1.34866  -0.70983  -0.70485  -0.55059
 Alpha  occ. eigenvalues --   -0.54569  -0.49916  -0.49430
 Alpha virt. eigenvalues --    0.20392   0.20890   0.30629   0.31114   0.80637
 Alpha virt. eigenvalues --    0.81115   0.83707   0.84194   0.86802   0.87353
 Alpha virt. eigenvalues --    1.17529   1.18011   1.21991   1.22479   2.57558

 Mulliken charges:
               1
     1  O   -0.739380
     2  H    0.368195
     3  H    0.371185
     4  O   -0.738930
     5  H    0.366757
     6  H    0.372174
 Sum of Mulliken charges =  -0.00000

 Dipole moment (field-independent basis, Debye):
    X=             -2.2832    Y=             -1.3354    Z=              0.0000  Tot=              2.6451
 Quadrupole moment (field-independent basis, Debye-Ang):
   XX=             -9.6287   YY=             12.9750   ZZ=            -14.9880
   XY=             -6.1612   XZ=              0.0000   YZ=              0.0000

 \MP4DQ=-33.8910757\MP4SDQ=-33.8931048\CCSD=-33.8941608\CCSD(T)=-33.896
 Normal termination of Gaussian 16 at Sun Dec 10 06:53:47 2023.
