 Gaussian 16, Revision A.03,
 Gaussian 16:  ES64L-G16RevA.03 25-Dec-2016

 ------------------
 #p CCSD(T)/CEP-31G
 ------------------

 ------------
 H2O_H2O_2770
 ------------
 Symbolic Z-matrix:
 Charge =  0 Multiplicity = 1

                         Standard orientation:
 ---------------------------------------------------------------------
 Center     Atomic      Atomic             Coordinates (Angstroms)
 Number     Number       Type             X           Y           Z
 ---------------------------------------------------------------------
      1          8           0        0.055256   -2.220295    0.000000
      2          1           0       -0.745512   -2.789747    0.000000
      3          1           0        0.853626   -2.793104    0.000000
      4          8           0        0.055256    2.304725    0.000000
      5          1           0       -0.287539    3.225593    0.000000
      6          1           0       -0.704668    1.681812    0.000000
 ---------------------------------------------------------------------

 SCF Done:  E(RHF) =  -33.6517989938     A.U. after   11 cycles
 E2 =    -0.2284551063D+00 EUMP2 =    -0.33880254100127D+02
 CCSD(T)
 CCSD(T)= -0.33897254762D+02

 The electronic state is 1-A'.
 Alpha  occ. eigenvalues --   -1.35559  -1.34277  -0.71194  -0.69869  -0.55297
 Alpha  occ. eigenvalues --   -0.53989  -0.50130  -0.48850
 Alpha virt. eigenvalues --    0.20043   0.21669   0.30427   0.31764   0.80416
 Alpha virt. eigenvalues --    0.81685   0.82458   0.85213   0.86513   0.88734
 Alpha virt. eigenvalues --    1.17342   1.18687   1.21762   1.23300   2.57361

 Mulliken charges:
               1
     1  O   -0.741171
     2  H    0.367187
     3  H    0.374095
     4  O   -0.739836
     5  H    0.362579
     6  H    0.377147
 Sum of Mulliken charges =  -0.00000

 Dipole moment (field-independent basis, Debye):
    X=             -2.5352    Y=             -2.0125    Z=              0.0000  Tot=              3.2369
 Quadrupole moment (field-independent basis, Debye-Ang):
   XX=            -10.0138   YY=              4.6590   ZZ=            -14.9896
   XY=             -5.5925   XZ=              0.0000   YZ=              0.0000

 MP4DQ=-33.8916066\MP4SDQ=-33.8936377\CCSD=-33.8946891\CCSD(T)=-33.8972
 Normal termination of Gaussian 16 at Sun Dec 10 06:29:46 2023.
