 Gaussian 16, Revision A.03,
 Gaussian 16:  ES64L-G16RevA.03 25-Dec-2016

 ------------------
 #p CCSD(T)/CEP-31G
 ------------------

 ------------
 H2O_H2O_3211
 ------------
 Symbolic Z-matrix:
 Charge =  0 Multiplicity = 1

                         Standard orientation:
 ---------------------------------------------------------------------
 Center     Atomic      Atomic             Coordinates (Angstroms)
 Number     Number       Type             X           Y           Z
 ---------------------------------------------------------------------
      1          8           0        0.037676   -2.490133    0.000000
      2          1           0       -0.762634   -3.060229    0.000000
      3          1           0        0.836507   -3.062299    0.000000
      4          8           0        0.037676    2.518382    0.000000
      5          1           0        0.263490    3.474684    0.000000
      6          1           0       -0.940174    2.421853    0.000000
 ---------------------------------------------------------------------

 SCF Done:  E(RHF) =  -33.6501621336     A.U. after   11 cycles
 E2 =    -0.2284895032D+00 EUMP2 =    -0.33878651636746D+02
 CCSD(T)
 CCSD(T)= -0.33895699121D+02

 The electronic state is 1-A'.
 Alpha  occ. eigenvalues --   -1.34947  -1.34604  -0.70574  -0.70219  -0.54590
 Alpha  occ. eigenvalues --   -0.54245  -0.49494  -0.49153
 Alpha virt. eigenvalues --    0.20721   0.21095   0.30967   0.31299   0.81056
 Alpha virt. eigenvalues --    0.81397   0.83835   0.84916   0.87285   0.87799
 Alpha virt. eigenvalues --    1.17886   1.18225   1.22358   1.22699   2.57941

 Mulliken charges:
               1
     1  O   -0.735454
     2  H    0.365869
     3  H    0.369587
     4  O   -0.734705
     5  H    0.364587
     6  H    0.370117
 Sum of Mulliken charges =   0.00000

 Dipole moment (field-independent basis, Debye):
    X=             -1.7328    Y=             -0.6673    Z=              0.0000  Tot=              1.8568
 Quadrupole moment (field-independent basis, Debye-Ang):
   XX=             -8.9659   YY=             12.0054   ZZ=            -14.9866
   XY=             -3.5476   XZ=              0.0000   YZ=              0.0000

 \MP4DQ=-33.8900417\MP4SDQ=-33.8920742\CCSD=-33.8931316\CCSD(T)=-33.895
 Normal termination of Gaussian 16 at Sun Dec 10 06:37:40 2023.
