 Gaussian 16, Revision A.03,
 Gaussian 16:  ES64L-G16RevA.03 25-Dec-2016

 ------------------
 #p CCSD(T)/CEP-31G
 ------------------

 -----------
 H2O_H2O_617
 -----------
 Symbolic Z-matrix:
 Charge =  0 Multiplicity = 1

                         Standard orientation:
 ---------------------------------------------------------------------
 Center     Atomic      Atomic             Coordinates (Angstroms)
 Number     Number       Type             X           Y           Z
 ---------------------------------------------------------------------
      1          8           0        0.051348   -1.088317    0.000000
      2          1           0       -0.750465   -1.656296    0.000000
      3          1           0        0.848664   -1.662593    0.000000
      4          8           0        0.051348    1.151618    0.000000
      5          1           0       -0.103424    2.121954    0.000000
      6          1           0       -0.816348    0.690522    0.000000
 ---------------------------------------------------------------------

 SCF Done:  E(RHF) =  -33.6291099269     A.U. after   11 cycles
 E2 =    -0.2310958581D+00 EUMP2 =    -0.33860205785001D+02
 CCSD(T)
 CCSD(T)= -0.33877421281D+02

 The electronic state is 1-A'.
 Alpha  occ. eigenvalues --   -1.35168  -1.31205  -0.70875  -0.68016  -0.54693
 Alpha  occ. eigenvalues --   -0.49793  -0.48981  -0.45521
 Alpha virt. eigenvalues --    0.19815   0.26577   0.30866   0.33974   0.78227
 Alpha virt. eigenvalues --    0.84505   0.89447   0.95706   0.96763   1.14335
 Alpha virt. eigenvalues --    1.18869   1.21928   1.24680   1.31488   2.61373

 Mulliken charges:
               1
     1  O   -0.759995
     2  H    0.353949
     3  H    0.392725
     4  O   -0.685054
     5  H    0.331582
     6  H    0.366794
 Sum of Mulliken charges =   0.00000

 Dipole moment (field-independent basis, Debye):
    X=             -2.1185    Y=             -1.5970    Z=              0.0000  Tot=              2.6530
 Quadrupole moment (field-independent basis, Debye-Ang):
   XX=             -9.7693   YY=             -3.3444   ZZ=            -14.9969
   XY=             -2.2330   XZ=              0.0000   YZ=              0.0000

 P4DQ=-33.8713459\MP4SDQ=-33.8735772\CCSD=-33.8745819\CCSD(T)=-33.87742
 Normal termination of Gaussian 16 at Sun Dec 10 06:36:17 2023.
