 Gaussian 16, Revision A.03,
 Gaussian 16:  ES64L-G16RevA.03 25-Dec-2016

 ------------------
 #p CCSD(T)/CEP-31G
 ------------------

 ----------
 H2O_H2O_14
 ----------
 Symbolic Z-matrix:
 Charge =  0 Multiplicity = 1

                         Standard orientation:
 ---------------------------------------------------------------------
 Center     Atomic      Atomic             Coordinates (Angstroms)
 Number     Number       Type             X           Y           Z
 ---------------------------------------------------------------------
      1          8           0        0.045419   -0.779561    0.000000
      2          1           0       -0.756921   -1.346796    0.000000
      3          1           0        0.842202   -1.354576    0.000000
      4          8           0        0.045419    0.823809    0.000000
      5          1           0        0.083836    1.805659    0.000000
      6          1           0       -0.895822    0.541725    0.000000
 ---------------------------------------------------------------------

 SCF Done:  E(RHF) =  -33.4603362878     A.U. after   12 cycles
 E2 =    -0.2386793786D+00 EUMP2 =    -0.33699015666413D+02
 CCSD(T)
 CCSD(T)= -0.33715653080D+02

 The electronic state is 1-A'.
 Alpha  occ. eigenvalues --   -1.40780  -1.28540  -0.75717  -0.70908  -0.57927
 Alpha  occ. eigenvalues --   -0.54146  -0.42758  -0.34644
 Alpha virt. eigenvalues --    0.19803   0.29142   0.30887   0.33476   0.81038
 Alpha virt. eigenvalues --    0.83648   0.88628   0.93938   0.96961   1.19942
 Alpha virt. eigenvalues --    1.22046   1.25783   1.25822   1.41207   2.62404

 Mulliken charges:
               1
     1  O   -0.745513
     2  H    0.331308
     3  H    0.397959
     4  O   -0.630829
     5  H    0.297017
     6  H    0.350057
 Sum of Mulliken charges =  -0.00000

 Dipole moment (field-independent basis, Debye):
    X=             -1.5848    Y=             -1.2063    Z=              0.0000  Tot=              1.9917
 Quadrupole moment (field-independent basis, Debye-Ang):
   XX=             -9.5461   YY=             -8.5700   ZZ=            -14.9121
   XY=             -1.1829   XZ=              0.0000   YZ=              0.0000

 P4DQ=-33.7086206\MP4SDQ=-33.7115104\CCSD=-33.7119713\CCSD(T)=-33.71565
 Normal termination of Gaussian 16 at Sun Dec 10 06:24:59 2023.
