 Gaussian 16, Revision A.03,
 Gaussian 16:  ES64L-G16RevA.03 25-Dec-2016

 ------------------
 #p CCSD(T)/CEP-31G
 ------------------

 ------------
 H2O_H2O_2678
 ------------
 Symbolic Z-matrix:
 Charge =  0 Multiplicity = 1

                         Standard orientation:
 ---------------------------------------------------------------------
 Center     Atomic      Atomic             Coordinates (Angstroms)
 Number     Number       Type             X           Y           Z
 ---------------------------------------------------------------------
      1          8           0        0.011143   -2.225075    0.000000
      2          1           0       -0.788674   -2.795862    0.000000
      3          1           0        0.810468   -2.796551    0.000000
      4          8           0        0.011143    2.227260    0.000000
      5          1           0        0.684236    2.943116    0.000000
      6          1           0       -0.884313    2.631815    0.000000
 ---------------------------------------------------------------------

 SCF Done:  E(RHF) =  -33.6484657676     A.U. after   11 cycles
 E2 =    -0.2285822882D+00 EUMP2 =    -0.33877048055754D+02
 CCSD(T)
 CCSD(T)= -0.33894144590D+02

 The electronic state is 1-A'.
 Alpha  occ. eigenvalues --   -1.34429  -1.34395  -0.70052  -0.70016  -0.54041
 Alpha  occ. eigenvalues --   -0.53861  -0.48954  -0.48915
 Alpha virt. eigenvalues --    0.21029   0.21326   0.31370   0.31441   0.81452
 Alpha virt. eigenvalues --    0.81776   0.82560   0.87121   0.87856   0.88465
 Alpha virt. eigenvalues --    1.18334   1.18367   1.22794   1.22887   2.58359

 Mulliken charges:
               1
     1  O   -0.729577
     2  H    0.364026
     3  H    0.365554
     4  O   -0.729449
     5  H    0.363767
     6  H    0.365679
 Sum of Mulliken charges =  -0.00000

 Dipole moment (field-independent basis, Debye):
    X=             -0.5111    Y=             -0.0521    Z=              0.0000  Tot=              0.5137
 Quadrupole moment (field-independent basis, Debye-Ang):
   XX=             -8.1519   YY=             11.3206   ZZ=            -14.9849
   XY=             -0.8192   XZ=              0.0000   YZ=              0.0000

 MP4DQ=-33.888472\MP4SDQ=-33.8905102\CCSD=-33.89157\CCSD(T)=-33.8941446
 Normal termination of Gaussian 16 at Sun Dec 10 06:28:03 2023.
