 Gaussian 16, Revision A.03,
 Gaussian 16:  ES64L-G16RevA.03 25-Dec-2016

 ------------------
 #p CCSD(T)/CEP-31G
 ------------------

 ------------
 H2O_H2O_2887
 ------------
 Symbolic Z-matrix:
 Charge =  0 Multiplicity = 1

                         Standard orientation:
 ---------------------------------------------------------------------
 Center     Atomic      Atomic             Coordinates (Angstroms)
 Number     Number       Type             X           Y           Z
 ---------------------------------------------------------------------
      1          8           0        0.040410   -2.314523    0.000000
      2          1           0       -0.760012   -2.884462    0.000000
      3          1           0        0.839128   -2.886847    0.000000
      4          8           0        0.040410    2.347859    0.000000
      5          1           0        0.203386    3.316851    0.000000
      6          1           0       -0.929064    2.187773    0.000000
 ---------------------------------------------------------------------

 SCF Done:  E(RHF) =  -33.6499614139     A.U. after   11 cycles
 E2 =    -0.2285174836D+00 EUMP2 =    -0.33878478897443D+02
 CCSD(T)
 CCSD(T)= -0.33895532561D+02

 The electronic state is 1-A'.
 Alpha  occ. eigenvalues --   -1.34918  -1.34448  -0.70546  -0.70056  -0.54551
 Alpha  occ. eigenvalues --   -0.54073  -0.49462  -0.48995
 Alpha virt. eigenvalues --    0.20700   0.21278   0.30983   0.31440   0.81074
 Alpha virt. eigenvalues --    0.81565   0.83141   0.85451   0.87332   0.88441
 Alpha virt. eigenvalues --    1.17907   1.18374   1.22377   1.22852   2.57970

 Mulliken charges:
               1
     1  O   -0.734803
     2  H    0.364987
     3  H    0.369827
     4  O   -0.733646
     5  H    0.363190
     6  H    0.370445
 Sum of Mulliken charges =   0.00000

 Dipole moment (field-independent basis, Debye):
    X=             -1.8552    Y=             -0.7912    Z=              0.0000  Tot=              2.0169
 Quadrupole moment (field-independent basis, Debye-Ang):
   XX=             -9.1056   YY=              9.9306   ZZ=            -14.9866
   XY=             -3.5561   XZ=              0.0000   YZ=              0.0000

 \MP4DQ=-33.8898727\MP4SDQ=-33.8919064\CCSD=-33.8929633\CCSD(T)=-33.895
 Normal termination of Gaussian 16 at Sun Dec 10 06:31:58 2023.
