 Gaussian 16, Revision A.03,
 Gaussian 16:  ES64L-G16RevA.03 25-Dec-2016

 ------------------
 #p CCSD(T)/CEP-31G
 ------------------

 ------------
 H2O_H2O_3458
 ------------
 Symbolic Z-matrix:
 Charge =  0 Multiplicity = 1

                         Standard orientation:
 ---------------------------------------------------------------------
 Center     Atomic      Atomic             Coordinates (Angstroms)
 Number     Number       Type             X           Y           Z
 ---------------------------------------------------------------------
      1          8           0        0.028564   -2.630152    0.000000
      2          1           0       -0.771539   -3.200538    0.000000
      3          1           0        0.827602   -3.202029    0.000000
      4          8           0        0.028564    2.645402    0.000000
      5          1           0        0.436281    3.539423    0.000000
      6          1           0       -0.949363    2.741143    0.000000
 ---------------------------------------------------------------------

 SCF Done:  E(RHF) =  -33.6500845877     A.U. after   11 cycles
 E2 =    -0.2284818172D+00 EUMP2 =    -0.33878566404933D+02
 CCSD(T)
 CCSD(T)= -0.33895615900D+02

 The electronic state is 1-A'.
 Alpha  occ. eigenvalues --   -1.34880  -1.34714  -0.70507  -0.70335  -0.54519
 Alpha  occ. eigenvalues --   -0.54352  -0.49426  -0.49261
 Alpha virt. eigenvalues --    0.20793   0.20970   0.31028   0.31188   0.81126
 Alpha virt. eigenvalues --    0.81291   0.84119   0.84678   0.87358   0.87582
 Alpha virt. eigenvalues --    1.17949   1.18113   1.22422   1.22586   2.58007

 Mulliken charges:
               1
     1  O   -0.735139
     2  H    0.366341
     3  H    0.368798
     4  O   -0.734772
     5  H    0.365652
     6  H    0.369120
 Sum of Mulliken charges =   0.00000

 Dipole moment (field-independent basis, Debye):
    X=             -1.3151    Y=             -0.3592    Z=              0.0000  Tot=              1.3633
 Quadrupole moment (field-independent basis, Debye-Ang):
   XX=             -8.5758   YY=             14.5220   ZZ=            -14.9864
   XY=             -2.7430   XZ=              0.0000   YZ=              0.0000

 MP4DQ=-33.8899582\MP4SDQ=-33.8919906\CCSD=-33.8930487\CCSD(T)=-33.8956
 Normal termination of Gaussian 16 at Sun Dec 10 06:42:07 2023.
