 Gaussian 16, Revision A.03,
 Gaussian 16:  ES64L-G16RevA.03 25-Dec-2016

 ------------------
 #p CCSD(T)/CEP-31G
 ------------------

 ------------
 H2O_H2O_2612
 ------------
 Symbolic Z-matrix:
 Charge =  0 Multiplicity = 1

                         Standard orientation:
 ---------------------------------------------------------------------
 Center     Atomic      Atomic             Coordinates (Angstroms)
 Number     Number       Type             X           Y           Z
 ---------------------------------------------------------------------
      1          8           0        0.040412   -2.168272    0.000000
      2          1           0       -0.760067   -2.738132    0.000000
      3          1           0        0.839073   -2.740676    0.000000
      4          8           0        0.040412    2.201600    0.000000
      5          1           0        0.203485    3.170576    0.000000
      6          1           0       -0.929078    2.041611    0.000000
 ---------------------------------------------------------------------

 SCF Done:  E(RHF) =  -33.6495907971     A.U. after   11 cycles
 E2 =    -0.2285604334D+00 EUMP2 =    -0.33878151230528D+02
 CCSD(T)
 CCSD(T)= -0.33895216239D+02

 The electronic state is 1-A'.
 Alpha  occ. eigenvalues --   -1.34834  -1.34296  -0.70462  -0.69899  -0.54450
 Alpha  occ. eigenvalues --   -0.53891  -0.49373  -0.48838
 Alpha virt. eigenvalues --    0.20688   0.21477   0.31043   0.31569   0.81110
 Alpha virt. eigenvalues --    0.81771   0.81952   0.85901   0.87473   0.89858
 Alpha virt. eigenvalues --    1.17975   1.18520   1.22442   1.23003   2.58038

 Mulliken charges:
               1
     1  O   -0.733552
     2  H    0.363908
     3  H    0.369681
     4  O   -0.732001
     5  H    0.361738
     6  H    0.370225
 Sum of Mulliken charges =  -0.00000

 Dipole moment (field-independent basis, Debye):
    X=             -1.8515    Y=             -0.7956    Z=              0.0000  Tot=              2.0152
 Quadrupole moment (field-independent basis, Debye-Ang):
   XX=             -9.1089   YY=              8.5721   ZZ=            -14.9864
   XY=             -3.2920   XZ=              0.0000   YZ=              0.0000

 \MP4DQ=-33.8895514\MP4SDQ=-33.8915877\CCSD=-33.8926439\CCSD(T)=-33.895
 Normal termination of Gaussian 16 at Sun Dec 10 06:26:48 2023.
