 Gaussian 16, Revision A.03,
 Gaussian 16:  ES64L-G16RevA.03 25-Dec-2016

 ------------------
 #p CCSD(T)/CEP-31G
 ------------------

 ------------
 H2O_H2O_2496
 ------------
 Symbolic Z-matrix:
 Charge =  0 Multiplicity = 1

                         Standard orientation:
 ---------------------------------------------------------------------
 Center     Atomic      Atomic             Coordinates (Angstroms)
 Number     Number       Type             X           Y           Z
 ---------------------------------------------------------------------
      1          8           0        0.056120   -2.070099    0.000000
      2          1           0       -0.744750   -2.639407    0.000000
      3          1           0        0.854388   -2.643051    0.000000
      4          8           0        0.056120    2.161785    0.000000
      5          1           0       -0.346006    3.058334    0.000000
      6          1           0       -0.661558    1.490634    0.000000
 ---------------------------------------------------------------------

 SCF Done:  E(RHF) =  -33.6522100546     A.U. after   11 cycles
 E2 =    -0.2284874770D+00 EUMP2 =    -0.33880697531667D+02
 CCSD(T)
 CCSD(T)= -0.33897688904D+02

 The electronic state is 1-A'.
 Alpha  occ. eigenvalues --   -1.35681  -1.34064  -0.71318  -0.69644  -0.55441
 Alpha  occ. eigenvalues --   -0.53786  -0.50257  -0.48643
 Alpha virt. eigenvalues --    0.19770   0.22055   0.30301   0.32043   0.80256
 Alpha virt. eigenvalues --    0.81368   0.81919   0.85515   0.86341   0.90219
 Alpha virt. eigenvalues --    1.17232   1.19057   1.21621   1.23970   2.57066

 Mulliken charges:
               1
     1  O   -0.742433
     2  H    0.367204
     3  H    0.375554
     4  O   -0.740978
     5  H    0.361023
     6  H    0.379630
 Sum of Mulliken charges =  -0.00000

 Dipole moment (field-independent basis, Debye):
    X=             -2.5693    Y=             -2.2028    Z=              0.0000  Tot=              3.3843
 Quadrupole moment (field-independent basis, Debye-Ang):
   XX=            -10.0729   YY=              2.9761   ZZ=            -14.9906
   XY=             -5.4389   XZ=              0.0000   YZ=              0.0000

 MP4DQ=-33.8920368\MP4SDQ=-33.8940724\CCSD=-33.8951197\CCSD(T)=-33.8976
 Normal termination of Gaussian 16 at Sun Dec 10 07:12:18 2023.
