 Gaussian 16, Revision A.03,
 Gaussian 16:  ES64L-G16RevA.03 25-Dec-2016

 ------------------
 #p CCSD(T)/CEP-31G
 ------------------

 ------------
 H2O_H2O_4250
 ------------
 Symbolic Z-matrix:
 Charge =  0 Multiplicity = 1

                         Standard orientation:
 ---------------------------------------------------------------------
 Center     Atomic      Atomic             Coordinates (Angstroms)
 Number     Number       Type             X           Y           Z
 ---------------------------------------------------------------------
      1          8           0        0.000000   -0.000000    3.063904
      2          1           0        0.000000    0.799571    3.635036
      3          1           0       -0.000000   -0.799571    3.635036
      4          8           0        0.000000   -0.000000   -3.063904
      5          1           0       -0.000000   -0.799571   -3.635036
      6          1           0        0.000000    0.799571   -3.635036
 ---------------------------------------------------------------------

 SCF Done:  E(RHF) =  -33.6504776810     A.U. after   10 cycles
 E2 =    -0.2284481323D+00 EUMP2 =    -0.33878925813378D+02
 CCSD(T)
 CCSD(T)= -0.33895963855D+02

 The electronic state is 1-AG.
 Alpha  occ. eigenvalues --   -1.34952  -1.34952  -0.70579  -0.70579  -0.54614
 Alpha  occ. eigenvalues --   -0.54613  -0.49503  -0.49503
 Alpha virt. eigenvalues --    0.20746   0.20749   0.30978   0.30978   0.81050
 Alpha virt. eigenvalues --    0.81051   0.84186   0.84222   0.87263   0.87266
 Alpha virt. eigenvalues --    1.17894   1.17894   1.22363   1.22363   2.57941

 Mulliken charges:
               1
     1  O   -0.736459
     2  H    0.368230
     3  H    0.368230
     4  O   -0.736459
     5  H    0.368230
     6  H    0.368230
 Sum of Mulliken charges =  -0.00000

 Dipole moment (field-independent basis, Debye):
    X=             -0.0000    Y=              0.0000    Z=              0.0000  Tot=              0.0000
 Quadrupole moment (field-independent basis, Debye-Ang):
   XX=            -14.9866   YY=             -8.0403   ZZ=             20.4962
   XY=              0.0000   XZ=              0.0000   YZ=             -0.0000

 -33.8903095\MP4SDQ=-33.8923406\CCSD=-33.8933985\CCSD(T)=-33.8959639\RM
 Normal termination of Gaussian 16 at Sun Dec 10 06:56:35 2023.
