 Gaussian 16, Revision A.03,
 Gaussian 16:  ES64L-G16RevA.03 25-Dec-2016

 ------------------
 #p CCSD(T)/CEP-31G
 ------------------

 -----------
 H2O_H2O_726
 -----------
 Symbolic Z-matrix:
 Charge =  0 Multiplicity = 1

                         Standard orientation:
 ---------------------------------------------------------------------
 Center     Atomic      Atomic             Coordinates (Angstroms)
 Number     Number       Type             X           Y           Z
 ---------------------------------------------------------------------
      1          8           0        0.003735   -1.189048    0.000000
      2          1           0       -0.795990   -1.759964    0.000000
      3          1           0        0.803152   -1.760396    0.000000
      4          8           0        0.003735    1.189291    0.000000
      5          1           0        0.764410    1.811289    0.000000
      6          1           0       -0.831338    1.707132    0.000000
 ---------------------------------------------------------------------

 SCF Done:  E(RHF) =  -33.6250937836     A.U. after   11 cycles
 E2 =    -0.2303831378D+00 EUMP2 =    -0.33855476921355D+02
 CCSD(T)
 CCSD(T)= -0.33872876699D+02

 The electronic state is 1-A'.
 Alpha  occ. eigenvalues --   -1.32691  -1.31689  -0.68154  -0.67411  -0.55420
 Alpha  occ. eigenvalues --   -0.47461  -0.46410  -0.45589
 Alpha virt. eigenvalues --    0.21565   0.24541   0.32797   0.33078   0.78597
 Alpha virt. eigenvalues --    0.79659   0.89419   0.93189   1.03765   1.11364
 Alpha virt. eigenvalues --    1.19832   1.21838   1.24052   1.25886   2.53698

 Mulliken charges:
               1
     1  O   -0.698411
     2  H    0.347768
     3  H    0.350552
     4  O   -0.698043
     5  H    0.349177
     6  H    0.348957
 Sum of Mulliken charges =  -0.00000

 Dipole moment (field-independent basis, Debye):
    X=             -0.1562    Y=             -0.0057    Z=              0.0000  Tot=              0.1563
 Quadrupole moment (field-independent basis, Debye-Ang):
   XX=             -8.2743   YY=             -0.7876   ZZ=            -15.0021
   XY=             -0.1068   XZ=              0.0000   YZ=              0.0000

 4DQ=-33.8669078\MP4SDQ=-33.8690296\CCSD=-33.8701157\CCSD(T)=-33.872876
 Normal termination of Gaussian 16 at Sun Dec 10 06:38:18 2023.
