 Gaussian 16, Revision A.03,
 Gaussian 16:  ES64L-G16RevA.03 25-Dec-2016

 ------------------
 #p CCSD(T)/CEP-31G
 ------------------

 -----------
 H2O_H2O_116
 -----------
 Symbolic Z-matrix:
 Charge =  0 Multiplicity = 1

                         Standard orientation:
 ---------------------------------------------------------------------
 Center     Atomic      Atomic             Coordinates (Angstroms)
 Number     Number       Type             X           Y           Z
 ---------------------------------------------------------------------
      1          8           0        0.049603   -0.826025    0.000000
      2          1           0       -0.752804   -1.393165    0.000000
      3          1           0        0.846318   -1.401135    0.000000
      4          8           0        0.049603    0.882644    0.000000
      5          1           0       -0.040350    1.861121    0.000000
      6          1           0       -0.846814    0.480224    0.000000
 ---------------------------------------------------------------------

 SCF Done:  E(RHF) =  -33.5133153534     A.U. after   11 cycles
 E2 =    -0.2359603391D+00 EUMP2 =    -0.33749275692481D+02
 CCSD(T)
 CCSD(T)= -0.33766138590D+02

 The electronic state is 1-A'.
 Alpha  occ. eigenvalues --   -1.39069  -1.29005  -0.74871  -0.70160  -0.55709
 Alpha  occ. eigenvalues --   -0.52788  -0.43235  -0.39480
 Alpha virt. eigenvalues --    0.19760   0.29154   0.30418   0.33718   0.80496
 Alpha virt. eigenvalues --    0.83890   0.89319   0.95630   0.96895   1.18876
 Alpha virt. eigenvalues --    1.21693   1.26017   1.28107   1.37839   2.62447

 Mulliken charges:
               1
     1  O   -0.774351
     2  H    0.344091
     3  H    0.406263
     4  O   -0.633849
     5  H    0.303510
     6  H    0.354335
 Sum of Mulliken charges =  -0.00000

 Dipole moment (field-independent basis, Debye):
    X=             -1.7885    Y=             -1.4743    Z=              0.0000  Tot=              2.3178
 Quadrupole moment (field-independent basis, Debye-Ang):
   XX=             -9.7168   YY=             -7.3987   ZZ=            -14.9410
   XY=             -1.4518   XZ=              0.0000   YZ=              0.0000

 P4DQ=-33.7593961\MP4SDQ=-33.7620683\CCSD=-33.7627346\CCSD(T)=-33.76613
 Normal termination of Gaussian 16 at Sun Dec 10 06:26:54 2023.
