 Gaussian 16, Revision A.03,
 Gaussian 16:  ES64L-G16RevA.03 25-Dec-2016

 ------------------
 #p CCSD(T)/CEP-31G
 ------------------

 ------------
 H2O_H2O_1170
 ------------
 Symbolic Z-matrix:
 Charge =  0 Multiplicity = 1

                         Standard orientation:
 ---------------------------------------------------------------------
 Center     Atomic      Atomic             Coordinates (Angstroms)
 Number     Number       Type             X           Y           Z
 ---------------------------------------------------------------------
      1          8           0        0.055309   -1.369429    0.000000
      2          1           0       -0.746179   -1.937868    0.000000
      3          1           0        0.852954   -1.943248    0.000000
      4          8           0        0.055309    1.453720    0.000000
      5          1           0       -0.286320    2.375021    0.000000
      6          1           0       -0.705403    0.831769    0.000000
 ---------------------------------------------------------------------

 SCF Done:  E(RHF) =  -33.6501518835     A.U. after   11 cycles
 E2 =    -0.2295192093D+00 EUMP2 =    -0.33879671092806D+02
 CCSD(T)
 CCSD(T)= -0.33896781979D+02

 The electronic state is 1-A'.
 Alpha  occ. eigenvalues --   -1.35728  -1.32306  -0.71383  -0.68071  -0.55321
 Alpha  occ. eigenvalues --   -0.51953  -0.50309  -0.46869
 Alpha virt. eigenvalues --    0.19361   0.25134   0.30281   0.34090   0.77913
 Alpha virt. eigenvalues --    0.78539   0.86423   0.87145   0.91462   1.14465
 Alpha virt. eigenvalues --    1.17690   1.20430   1.22336   1.29053   2.58709

 Mulliken charges:
               1
     1  O   -0.748498
     2  H    0.361005
     3  H    0.387562
     4  O   -0.727440
     5  H    0.342303
     6  H    0.385068
 Sum of Mulliken charges =  -0.00000

 Dipole moment (field-independent basis, Debye):
    X=             -2.4350    Y=             -2.1456    Z=              0.0000  Tot=              3.2454
 Quadrupole moment (field-independent basis, Debye-Ang):
   XX=             -9.9991   YY=             -1.4644   ZZ=            -14.9963
   XY=             -3.4831   XZ=              0.0000   YZ=              0.0000

 P4DQ=-33.8909463\MP4SDQ=-33.8930746\CCSD=-33.8941059\CCSD(T)=-33.89678
 Normal termination of Gaussian 16 at Sun Dec 10 06:46:37 2023.
