 Gaussian 16, Revision A.03,
 Gaussian 16:  ES64L-G16RevA.03 25-Dec-2016

 ------------------
 #p CCSD(T)/CEP-31G
 ------------------

 ------------
 H2O_H2O_1926
 ------------
 Symbolic Z-matrix:
 Charge =  0 Multiplicity = 1

                         Standard orientation:
 ---------------------------------------------------------------------
 Center     Atomic      Atomic             Coordinates (Angstroms)
 Number     Number       Type             X           Y           Z
 ---------------------------------------------------------------------
      1          8           0        0.003735   -1.827252    0.000000
      2          1           0       -0.795936   -2.398243    0.000000
      3          1           0        0.803206   -2.398524    0.000000
      4          8           0        0.003735    1.827495    0.000000
      5          1           0        0.764351    2.449564    0.000000
      6          1           0       -0.831387    2.345256    0.000000
 ---------------------------------------------------------------------

 SCF Done:  E(RHF) =  -33.6456825198     A.U. after   10 cycles
 E2 =    -0.2288145795D+00 EUMP2 =    -0.33874497099316D+02
 CCSD(T)
 CCSD(T)= -0.33891685521D+02

 The electronic state is 1-A'.
 Alpha  occ. eigenvalues --   -1.33897  -1.33866  -0.69517  -0.69483  -0.53681
 Alpha  occ. eigenvalues --   -0.52807  -0.48432  -0.48300
 Alpha virt. eigenvalues --    0.21103   0.22033   0.31657   0.31940   0.77668
 Alpha virt. eigenvalues --    0.81119   0.83235   0.86119   0.91129   0.96829
 Alpha virt. eigenvalues --    1.18762   1.18796   1.23100   1.23539   2.58222

 Mulliken charges:
               1
     1  O   -0.720514
     2  H    0.359823
     3  H    0.360693
     4  O   -0.720481
     5  H    0.359735
     6  H    0.360744
 Sum of Mulliken charges =  -0.00000

 Dipole moment (field-independent basis, Debye):
    X=             -0.1700    Y=             -0.0060    Z=              0.0000  Tot=              0.1701
 Quadrupole moment (field-independent basis, Debye-Ang):
   XX=             -8.1246   YY=              7.0891   ZZ=            -14.9835
   XY=             -0.2083   XZ=              0.0000   YZ=              0.0000

 \MP4DQ=-33.8859693\MP4SDQ=-33.8880286\CCSD=-33.8890891\CCSD(T)=-33.891
 Normal termination of Gaussian 16 at Sun Dec 10 07:00:57 2023.
