 Gaussian 16, Revision A.03,
 Gaussian 16:  ES64L-G16RevA.03 25-Dec-2016

 ------------------
 #p CCSD(T)/CEP-31G
 ------------------

 ------------
 H2O_H2O_1694
 ------------
 Symbolic Z-matrix:
 Charge =  0 Multiplicity = 1

                         Standard orientation:
 ---------------------------------------------------------------------
 Center     Atomic      Atomic             Coordinates (Angstroms)
 Number     Number       Type             X           Y           Z
 ---------------------------------------------------------------------
      1          8           0        0.054189   -1.652489    0.000000
      2          1           0       -0.746952   -2.221418    0.000000
      3          1           0        0.852184   -2.225820    0.000000
      4          8           0        0.054189    1.729701    0.000000
      5          1           0       -0.227029    2.671201    0.000000
      6          1           0       -0.745223    1.158345    0.000000
 ---------------------------------------------------------------------

 SCF Done:  E(RHF) =  -33.6511625111     A.U. after   11 cycles
 E2 =    -0.2288820999D+00 EUMP2 =    -0.33880044611030D+02
 CCSD(T)
 CCSD(T)= -0.33897110727D+02

 The electronic state is 1-A'.
 Alpha  occ. eigenvalues --   -1.35468  -1.33277  -0.71109  -0.68831  -0.55179
 Alpha  occ. eigenvalues --   -0.52928  -0.50033  -0.47849
 Alpha virt. eigenvalues --    0.19539   0.23408   0.30423   0.32847   0.75989
 Alpha virt. eigenvalues --    0.79532   0.83709   0.86081   0.87528   1.04018
 Alpha virt. eigenvalues --    1.17334   1.20485   1.21901   1.26136   2.55645

 Mulliken charges:
               1
     1  O   -0.739476
     2  H    0.362586
     3  H    0.377902
     4  O   -0.733888
     5  H    0.352308
     6  H    0.380568
 Sum of Mulliken charges =  -0.00000

 Dipole moment (field-independent basis, Debye):
    X=             -2.4463    Y=             -1.9137    Z=              0.0000  Tot=              3.1059
 Quadrupole moment (field-independent basis, Debye-Ang):
   XX=             -9.9304   YY=              1.1742   ZZ=            -14.9911
   XY=             -3.9721   XZ=              0.0000   YZ=              0.0000

 MP4DQ=-33.8913931\MP4SDQ=-33.893467\CCSD=-33.8945067\CCSD(T)=-33.89711
 Normal termination of Gaussian 16 at Sun Dec 10 06:56:22 2023.
