 Gaussian 16, Revision A.03,
 Gaussian 16:  ES64L-G16RevA.03 25-Dec-2016

 ------------------
 #p CCSD(T)/CEP-31G
 ------------------

 ------------
 H2O_H2O_4821
 ------------
 Symbolic Z-matrix:
 Charge =  0 Multiplicity = 1

                         Standard orientation:
 ---------------------------------------------------------------------
 Center     Atomic      Atomic             Coordinates (Angstroms)
 Number     Number       Type             X           Y           Z
 ---------------------------------------------------------------------
      1          8           0        0.056082   -3.306569    0.000000
      2          1           0       -0.744310   -3.876550    0.000000
      3          1           0        0.854831   -3.878851    0.000000
      4          8           0        0.056082    3.398350    0.000000
      5          1           0       -0.346798    4.294560    0.000000
      6          1           0       -0.661032    2.726596    0.000000
 ---------------------------------------------------------------------

 SCF Done:  E(RHF) =  -33.6518381866     A.U. after   11 cycles
 E2 =    -0.2283798878D+00 EUMP2 =    -0.33880218074361D+02
 CCSD(T)
 CCSD(T)= -0.33897216788D+02

 The electronic state is 1-A'.
 Alpha  occ. eigenvalues --   -1.35610  -1.35009  -0.71243  -0.70632  -0.55347
 Alpha  occ. eigenvalues --   -0.54739  -0.50182  -0.49581
 Alpha virt. eigenvalues --    0.20165   0.20781   0.30405   0.31015   0.80369
 Alpha virt. eigenvalues --    0.80962   0.83390   0.83997   0.86503   0.87147
 Alpha virt. eigenvalues --    1.17294   1.17892   1.21752   1.22360   2.57310

 Mulliken charges:
               1
     1  O   -0.741308
     2  H    0.369502
     3  H    0.371806
     4  O   -0.741130
     5  H    0.368005
     6  H    0.373125
 Sum of Mulliken charges =  -0.00000

 Dipole moment (field-independent basis, Debye):
    X=             -2.5894    Y=             -2.1435    Z=              0.0000  Tot=              3.3615
 Quadrupole moment (field-independent basis, Debye-Ang):
   XX=            -10.0834   YY=             10.9470   ZZ=            -14.9888
   XY=             -8.5990   XZ=              0.0000   YZ=              0.0000

 3\MP4DQ=-33.8915731\MP4SDQ=-33.8936006\CCSD=-33.8946558\CCSD(T)=-33.89
 Normal termination of Gaussian 16 at Sun Dec 10 07:08:31 2023.
