 Gaussian 16, Revision A.03,
 Gaussian 16:  ES64L-G16RevA.03 25-Dec-2016

 ------------------
 #p CCSD(T)/CEP-31G
 ------------------

 ------------
 H2O_H2O_1975
 ------------
 Symbolic Z-matrix:
 Charge =  0 Multiplicity = 1

                         Standard orientation:
 ---------------------------------------------------------------------
 Center     Atomic      Atomic             Coordinates (Angstroms)
 Number     Number       Type             X           Y           Z
 ---------------------------------------------------------------------
      1          8           0        0.000000    0.000000   -1.853976
      2          1           0        0.000000    0.799571   -2.425108
      3          1           0       -0.000000   -0.799571   -2.425108
      4          8           0       -0.000000    0.000000    1.853976
      5          1           0       -0.000000   -0.799571    2.425108
      6          1           0       -0.000000    0.799571    2.425108
 ---------------------------------------------------------------------

 SCF Done:  E(RHF) =  -33.6459317490     A.U. after   10 cycles
 E2 =    -0.2287920849D+00 EUMP2 =    -0.33874723833967D+02
 CCSD(T)
 CCSD(T)= -0.33891902896D+02

 The electronic state is 1-AG.
 Alpha  occ. eigenvalues --   -1.33937  -1.33911  -0.69557  -0.69528  -0.53698
 Alpha  occ. eigenvalues --   -0.52904  -0.48470  -0.48352
 Alpha virt. eigenvalues --    0.21100   0.21973   0.31633   0.31903   0.77991
 Alpha virt. eigenvalues --    0.81180   0.83083   0.86322   0.90832   0.95919
 Alpha virt. eigenvalues --    1.18732   1.18757   1.23070   1.23487   2.58216

 Mulliken charges:
               1
     1  O   -0.721268
     2  H    0.360634
     3  H    0.360634
     4  O   -0.721268
     5  H    0.360634
     6  H    0.360634
 Sum of Mulliken charges =  -0.00000

 Dipole moment (field-independent basis, Debye):
    X=             -0.0000    Y=             -0.0000    Z=              0.0000  Tot=              0.0000
 Quadrupole moment (field-independent basis, Debye-Ang):
   XX=            -14.9835   YY=             -8.1120   ZZ=              7.3979
   XY=             -0.0000   XZ=              0.0000   YZ=             -0.0000

 33.8861916\MP4SDQ=-33.8882486\CCSD=-33.8893088\CCSD(T)=-33.8919029\RMS
 Normal termination of Gaussian 16 at Sun Dec 10 07:02:42 2023.
