 Gaussian 16, Revision A.03,
 Gaussian 16:  ES64L-G16RevA.03 25-Dec-2016

 ------------------
 #p CCSD(T)/CEP-31G
 ------------------

 ------------
 H2O_H2O_3667
 ------------
 Symbolic Z-matrix:
 Charge =  0 Multiplicity = 1

                         Standard orientation:
 ---------------------------------------------------------------------
 Center     Atomic      Atomic             Coordinates (Angstroms)
 Number     Number       Type             X           Y           Z
 ---------------------------------------------------------------------
      1          8           0        0.051274   -2.710293    0.000000
      2          1           0       -0.749214   -3.280138    0.000000
      3          1           0        0.849926   -3.282710    0.000000
      4          8           0        0.051274    2.773833    0.000000
      5          1           0       -0.105757    3.743806    0.000000
      6          1           0       -0.815345    2.310718    0.000000
 ---------------------------------------------------------------------

 SCF Done:  E(RHF) =  -33.6513001765     A.U. after   11 cycles
 E2 =    -0.2284248548D+00 EUMP2 =    -0.33879725031312D+02
 CCSD(T)
 CCSD(T)= -0.33896739346D+02

 The electronic state is 1-A'.
 Alpha  occ. eigenvalues --   -1.35370  -1.34730  -0.71001  -0.70344  -0.55078
 Alpha  occ. eigenvalues --   -0.54431  -0.49934  -0.49295
 Alpha virt. eigenvalues --    0.20371   0.21033   0.30612   0.31250   0.80619
 Alpha virt. eigenvalues --    0.81247   0.83664   0.84346   0.86782   0.87521
 Alpha virt. eigenvalues --    1.17511   1.18146   1.21973   1.22618   2.57538

 Mulliken charges:
               1
     1  O   -0.739431
     2  H    0.367795
     3  H    0.371638
     4  O   -0.738780
     5  H    0.365808
     6  H    0.372971
 Sum of Mulliken charges =  -0.00000

 Dipole moment (field-independent basis, Debye):
    X=             -2.3623    Y=             -1.4943    Z=              0.0000  Tot=              2.7953
 Quadrupole moment (field-independent basis, Debye-Ang):
   XX=             -9.7439   YY=             10.4017   ZZ=            -14.9882
   XY=             -5.9613   XZ=              0.0000   YZ=              0.0000

 MP4DQ=-33.8910912\MP4SDQ=-33.8931204\CCSD=-33.894176\CCSD(T)=-33.89673
 Normal termination of Gaussian 16 at Sun Dec 10 06:45:56 2023.
