 Gaussian 16, Revision A.03,
 Gaussian 16:  ES64L-G16RevA.03 25-Dec-2016

 ------------------
 #p CCSD(T)/CEP-31G
 ------------------

 ------------
 H2O_H2O_1389
 ------------
 Symbolic Z-matrix:
 Charge =  0 Multiplicity = 1

                         Standard orientation:
 ---------------------------------------------------------------------
 Center     Atomic      Atomic             Coordinates (Angstroms)
 Number     Number       Type             X           Y           Z
 ---------------------------------------------------------------------
      1          8           0        0.045368   -1.510726    0.000000
      2          1           0       -0.755654   -2.079822    0.000000
      3          1           0        0.843483   -2.083891    0.000000
      4          8           0        0.045368    1.555185    0.000000
      5          1           0        0.081505    2.537122    0.000000
      6          1           0       -0.895217    1.270917    0.000000
 ---------------------------------------------------------------------

 SCF Done:  E(RHF) =  -33.6464749540     A.U. after   11 cycles
 E2 =    -0.2292191508D+00 EUMP2 =    -0.33875694104858D+02
 CCSD(T)
 CCSD(T)= -0.33892924627D+02

 The electronic state is 1-A'.
 Alpha  occ. eigenvalues --   -1.34514  -1.33046  -0.70147  -0.68614  -0.54312
 Alpha  occ. eigenvalues --   -0.52140  -0.49044  -0.47540
 Alpha virt. eigenvalues --    0.20190   0.23521   0.31231   0.32579   0.76344
 Alpha virt. eigenvalues --    0.79374   0.84621   0.85288   0.90866   1.12181
 Alpha virt. eigenvalues --    1.18131   1.21536   1.22758   1.25100   2.59215

 Mulliken charges:
               1
     1  O   -0.727295
     2  H    0.355377
     3  H    0.371820
     4  O   -0.716913
     5  H    0.348048
     6  H    0.368964
 Sum of Mulliken charges =   0.00000

 Dipole moment (field-independent basis, Debye):
    X=             -2.0236    Y=             -1.1097    Z=              0.0000  Tot=              2.3079
 Quadrupole moment (field-independent basis, Debye-Ang):
   XX=             -9.4036   YY=              1.7669   ZZ=            -14.9877
   XY=             -2.5553   XZ=              0.0000   YZ=              0.0000

 P4DQ=-33.8871431\MP4SDQ=-33.889242\CCSD=-33.8902965\CCSD(T)=-33.892924
 Normal termination of Gaussian 16 at Sun Dec 10 06:50:43 2023.
