 Gaussian 16, Revision A.03,
 Gaussian 16:  ES64L-G16RevA.03 25-Dec-2016

 ------------------
 #p CCSD(T)/CEP-31G
 ------------------

 -----------
 H2O_H2O_393
 -----------
 Symbolic Z-matrix:
 Charge =  0 Multiplicity = 1

                         Standard orientation:
 ---------------------------------------------------------------------
 Center     Atomic      Atomic             Coordinates (Angstroms)
 Number     Number       Type             X           Y           Z
 ---------------------------------------------------------------------
      1          8           0        0.052925   -0.964996    0.000000
      2          1           0       -0.749232   -1.532490    0.000000
      3          1           0        0.849894   -1.539754    0.000000
      4          8           0        0.052925    1.035030    0.000000
      5          1           0       -0.164398    1.993297    0.000000
      6          1           0       -0.783069    0.518677    0.000000
 ---------------------------------------------------------------------

 SCF Done:  E(RHF) =  -33.6000402174     A.U. after   11 cycles
 E2 =    -0.2324782486D+00 EUMP2 =    -0.33832518466003D+02
 CCSD(T)
 CCSD(T)= -0.33849520465D+02

 The electronic state is 1-A'.
 Alpha  occ. eigenvalues --   -1.36471  -1.30256  -0.72441  -0.68952  -0.54008
 Alpha  occ. eigenvalues --   -0.50891  -0.46925  -0.44532
 Alpha virt. eigenvalues --    0.19625   0.27888   0.30341   0.34473   0.78792
 Alpha virt. eigenvalues --    0.84681   0.89925   0.95871   0.99515   1.15368
 Alpha virt. eigenvalues --    1.19468   1.24071   1.27282   1.32478   2.62601

 Mulliken charges:
               1
     1  O   -0.781065
     2  H    0.355495
     3  H    0.406271
     4  O   -0.665733
     5  H    0.319591
     6  H    0.365441
 Sum of Mulliken charges =   0.00000

 Dipole moment (field-independent basis, Debye):
    X=             -2.0777    Y=             -1.7963    Z=              0.0000  Tot=              2.7466
 Quadrupole moment (field-independent basis, Debye-Ang):
   XX=             -9.8673   YY=             -5.1447   ZZ=            -14.9889
   XY=             -2.0843   XZ=              0.0000   YZ=              0.0000

 MP4DQ=-33.8432384\MP4SDQ=-33.845591\CCSD=-33.8464969\CCSD(T)=-33.84952
 Normal termination of Gaussian 16 at Sun Dec 10 06:32:07 2023.
