 Gaussian 16, Revision A.03,
 Gaussian 16:  ES64L-G16RevA.03 25-Dec-2016

 ------------------
 #p CCSD(T)/CEP-31G
 ------------------

 ------------
 H2O_H2O_1298
 ------------
 Symbolic Z-matrix:
 Charge =  0 Multiplicity = 1

                         Standard orientation:
 ---------------------------------------------------------------------
 Center     Atomic      Atomic             Coordinates (Angstroms)
 Number     Number       Type             X           Y           Z
 ---------------------------------------------------------------------
      1          8           0        0.057168   -1.423915    0.000000
      2          1           0       -0.744296   -1.992389    0.000000
      3          1           0        0.854838   -1.997700    0.000000
      4          8           0        0.057168    1.530292    0.000000
      5          1           0       -0.457670    2.367219    0.000000
      6          1           0       -0.567559    0.771857    0.000000
 ---------------------------------------------------------------------

 SCF Done:  E(RHF) =  -33.6541067766     A.U. after   11 cycles
 E2 =    -0.2292552036D+00 EUMP2 =    -0.33883361980193D+02
 CCSD(T)
 CCSD(T)= -0.33900342994D+02

 The electronic state is 1-A'.
 Alpha  occ. eigenvalues --   -1.36434  -1.32318  -0.72086  -0.68111  -0.56208
 Alpha  occ. eigenvalues --   -0.52126  -0.51047  -0.46923
 Alpha virt. eigenvalues --    0.18951   0.25237   0.29718   0.35248   0.77023
 Alpha virt. eigenvalues --    0.77727   0.85658   0.86820   0.91709   1.10167
 Alpha virt. eigenvalues --    1.16651   1.20081   1.21982   1.29979   2.54395

 Mulliken charges:
               1
     1  O   -0.758062
     2  H    0.367097
     3  H    0.392723
     4  O   -0.743917
     5  H    0.345150
     6  H    0.397008
 Sum of Mulliken charges =  -0.00000

 Dipole moment (field-independent basis, Debye):
    X=             -2.5403    Y=             -2.7194    Z=              0.0000  Tot=              3.7214
 Quadrupole moment (field-independent basis, Debye-Ang):
   XX=            -10.1217   YY=             -2.3802   ZZ=            -15.0003
   XY=             -4.1599   XZ=              0.0000   YZ=              0.0000

 \MP4DQ=-33.8945409\MP4SDQ=-33.896653\CCSD=-33.8976719\CCSD(T)=-33.9003
 Normal termination of Gaussian 16 at Sun Dec 10 06:49:01 2023.
