 Gaussian 16, Revision A.03,
 Gaussian 16:  ES64L-G16RevA.03 25-Dec-2016

 ------------------
 #p CCSD(T)/CEP-31G
 ------------------

 ------------
 H2O_H2O_1600
 ------------
 Symbolic Z-matrix:
 Charge =  0 Multiplicity = 1

                         Standard orientation:
 ---------------------------------------------------------------------
 Center     Atomic      Atomic             Coordinates (Angstroms)
 Number     Number       Type             X           Y           Z
 ---------------------------------------------------------------------
      1          8           0        0.000000   -0.000000    1.654537
      2          1           0        0.000000    0.799571    2.225669
      3          1           0       -0.000000   -0.799571    2.225669
      4          8           0        0.000000   -0.000000   -1.654537
      5          1           0       -0.000000   -0.799571   -2.225669
      6          1           0        0.000000    0.799571   -2.225669
 ---------------------------------------------------------------------

 SCF Done:  E(RHF) =  -33.6434165429     A.U. after   10 cycles
 E2 =    -0.2289927997D+00 EUMP2 =    -0.33872409342626D+02
 CCSD(T)
 CCSD(T)= -0.33889681903D+02

 The electronic state is 1-AG.
 Alpha  occ. eigenvalues --   -1.33585  -1.33506  -0.69200  -0.69124  -0.53607
 Alpha  occ. eigenvalues --   -0.51963  -0.48138  -0.47864
 Alpha virt. eigenvalues --    0.21180   0.22477   0.31845   0.32227   0.76728
 Alpha virt. eigenvalues --    0.80592   0.84405   0.84518   0.94042   1.02810
 Alpha virt. eigenvalues --    1.18998   1.19131   1.23365   1.23941   2.58886

 Mulliken charges:
               1
     1  O   -0.714249
     2  H    0.357125
     3  H    0.357125
     4  O   -0.714249
     5  H    0.357125
     6  H    0.357125
 Sum of Mulliken charges =   0.00000

 Dipole moment (field-independent basis, Debye):
    X=             -0.0000    Y=              0.0000    Z=              0.0000  Tot=              0.0000
 Quadrupole moment (field-independent basis, Debye-Ang):
   XX=            -14.9833   YY=             -8.1472   ZZ=              5.1450
   XY=              0.0000   XZ=              0.0000   YZ=             -0.0000

 -33.8839238\MP4SDQ=-33.8859994\CCSD=-33.8870663\CCSD(T)=-33.8896819\RM
 Normal termination of Gaussian 16 at Sun Dec 10 06:54:38 2023.
