 Gaussian 16, Revision A.03,
 Gaussian 16:  ES64L-G16RevA.03 25-Dec-2016

 ------------------
 #p CCSD(T)/CEP-31G
 ------------------

 ------------
 H2O_H2O_1269
 ------------
 Symbolic Z-matrix:
 Charge =  0 Multiplicity = 1

                         Standard orientation:
 ---------------------------------------------------------------------
 Center     Atomic      Atomic             Coordinates (Angstroms)
 Number     Number       Type             X           Y           Z
 ---------------------------------------------------------------------
      1          8           0        0.054205   -1.426483    0.000000
      2          1           0       -0.747177   -1.995071    0.000000
      3          1           0        0.851957   -2.000153    0.000000
      4          8           0        0.054205    1.503648    0.000000
      5          1           0       -0.226613    2.445268    0.000000
      6          1           0       -0.745449    0.932632    0.000000
 ---------------------------------------------------------------------

 SCF Done:  E(RHF) =  -33.6498593128     A.U. after   11 cycles
 E2 =    -0.2293665825D+00 EUMP2 =    -0.33879225895381D+02
 CCSD(T)
 CCSD(T)= -0.33896364779D+02

 The electronic state is 1-A'.
 Alpha  occ. eigenvalues --   -1.35467  -1.32584  -0.71117  -0.68228  -0.55132
 Alpha  occ. eigenvalues --   -0.52158  -0.50036  -0.47141
 Alpha virt. eigenvalues --    0.19502   0.24623   0.30473   0.33543   0.77534
 Alpha virt. eigenvalues --    0.78361   0.85841   0.86609   0.90124   1.13629
 Alpha virt. eigenvalues --    1.17382   1.20910   1.22296   1.28183   2.57771

 Mulliken charges:
               1
     1  O   -0.742511
     2  H    0.359864
     3  H    0.382895
     4  O   -0.726494
     5  H    0.344705
     6  H    0.381541
 Sum of Mulliken charges =   0.00000

 Dipole moment (field-independent basis, Debye):
    X=             -2.4020    Y=             -1.9491    Z=              0.0000  Tot=              3.0933
 Quadrupole moment (field-independent basis, Debye-Ang):
   XX=             -9.9291   YY=             -0.6113   ZZ=            -14.9936
   XY=             -3.4264   XZ=              0.0000   YZ=              0.0000

 \MP4DQ=-33.8905587\MP4SDQ=-33.8926739\CCSD=-33.8937124\CCSD(T)=-33.896
 Normal termination of Gaussian 16 at Sun Dec 10 06:48:29 2023.
