 Gaussian 16, Revision A.03,
 Gaussian 16:  ES64L-G16RevA.03 25-Dec-2016

 ------------------
 #p CCSD(T)/CEP-31G
 ------------------

 ------------
 H2O_H2O_1503
 ------------
 Symbolic Z-matrix:
 Charge =  0 Multiplicity = 1

                         Standard orientation:
 ---------------------------------------------------------------------
 Center     Atomic      Atomic             Coordinates (Angstroms)
 Number     Number       Type             X           Y           Z
 ---------------------------------------------------------------------
      1          8           0        0.011143   -1.600169    0.000000
      2          1           0       -0.788770   -2.170822    0.000000
      3          1           0        0.810372   -2.171779    0.000000
      4          8           0        0.011143    1.602350    0.000000
      5          1           0        0.684357    2.318093    0.000000
      6          1           0       -0.884245    2.007055    0.000000
 ---------------------------------------------------------------------

 SCF Done:  E(RHF) =  -33.6427325618     A.U. after   11 cycles
 E2 =    -0.2290666976D+00 EUMP2 =    -0.33871799259307D+02
 CCSD(T)
 CCSD(T)= -0.33889098738D+02

 The electronic state is 1-A'.
 Alpha  occ. eigenvalues --   -1.33511  -1.33386  -0.69123  -0.69002  -0.53640
 Alpha  occ. eigenvalues --   -0.51677  -0.48071  -0.47723
 Alpha virt. eigenvalues --    0.21171   0.22654   0.31931   0.32283   0.76871
 Alpha virt. eigenvalues --    0.80358   0.83767   0.84987   0.94796   1.05247
 Alpha virt. eigenvalues --    1.19047   1.19313   1.23509   1.24004   2.59546

 Mulliken charges:
               1
     1  O   -0.712888
     2  H    0.354595
     3  H    0.358282
     4  O   -0.712283
     5  H    0.354316
     6  H    0.357978
 Sum of Mulliken charges =   0.00000

 Dipole moment (field-independent basis, Debye):
    X=             -0.5017    Y=             -0.0544    Z=              0.0000  Tot=              0.5047
 Quadrupole moment (field-independent basis, Debye-Ang):
   XX=             -8.2332   YY=              4.4352   ZZ=            -14.9836
   XY=             -0.5225   XZ=              0.0000   YZ=              0.0000

 \MP4DQ=-33.8833254\MP4SDQ=-33.8854064\CCSD=-33.886476\CCSD(T)=-33.8890
 Normal termination of Gaussian 16 at Sun Dec 10 06:52:50 2023.
