 Gaussian 16, Revision A.03,
 Gaussian 16:  ES64L-G16RevA.03 25-Dec-2016

 ------------------
 #p CCSD(T)/CEP-31G
 ------------------

 ------------
 H2O_H2O_2675
 ------------
 Symbolic Z-matrix:
 Charge =  0 Multiplicity = 1

                         Standard orientation:
 ---------------------------------------------------------------------
 Center     Atomic      Atomic             Coordinates (Angstroms)
 Number     Number       Type             X           Y           Z
 ---------------------------------------------------------------------
      1          8           0        0.000000   -0.000000    2.226261
      2          1           0        0.000000    0.799571    2.797393
      3          1           0       -0.000000   -0.799571    2.797393
      4          8           0        0.000000   -0.000000   -2.226261
      5          1           0       -0.000000   -0.799571   -2.797393
      6          1           0        0.000000    0.799571   -2.797393
 ---------------------------------------------------------------------

 SCF Done:  E(RHF) =  -33.6483798847     A.U. after   10 cycles
 E2 =    -0.2285841886D+00 EUMP2 =    -0.33876964073272D+02
 CCSD(T)
 CCSD(T)= -0.33894063015D+02

 The electronic state is 1-AG.
 Alpha  occ. eigenvalues --   -1.34400  -1.34397  -0.70023  -0.70019  -0.54023
 Alpha  occ. eigenvalues --   -0.53842  -0.48930  -0.48910
 Alpha virt. eigenvalues --    0.21044   0.21329   0.31378   0.31451   0.81468
 Alpha virt. eigenvalues --    0.81790   0.82574   0.87573   0.87606   0.88320
 Alpha virt. eigenvalues --    1.18361   1.18361   1.22801   1.22901   2.58370

 Mulliken charges:
               1
     1  O   -0.729274
     2  H    0.364637
     3  H    0.364637
     4  O   -0.729274
     5  H    0.364637
     6  H    0.364637
 Sum of Mulliken charges =   0.00000

 Dipole moment (field-independent basis, Debye):
    X=             -0.0000    Y=              0.0000    Z=             -0.0000  Tot=              0.0000
 Quadrupole moment (field-independent basis, Debye-Ang):
   XX=            -14.9848   YY=             -8.0734   ZZ=             11.4764
   XY=              0.0000   XZ=              0.0000   YZ=             -0.0000

 3.8883898\MP4SDQ=-33.8904281\CCSD=-33.8914882\CCSD(T)=-33.894063\RMSD=
 Normal termination of Gaussian 16 at Sun Dec 10 06:28:00 2023.
