 Gaussian 16, Revision A.03,
 Gaussian 16:  ES64L-G16RevA.03 25-Dec-2016

 ------------------
 #p CCSD(T)/CEP-31G
 ------------------

 -----------
 H2O_H2O_355
 -----------
 Symbolic Z-matrix:
 Charge =  0 Multiplicity = 1

                         Standard orientation:
 ---------------------------------------------------------------------
 Center     Atomic      Atomic             Coordinates (Angstroms)
 Number     Number       Type             X           Y           Z
 ---------------------------------------------------------------------
      1          8           0        0.018363   -0.986480    0.000000
      2          1           0       -0.782119   -1.556334    0.000000
      3          1           0        0.817021   -1.558889    0.000000
      4          8           0        0.018363    0.992483    0.000000
      5          1           0        0.593191    1.789402    0.000000
      6          1           0       -0.921904    1.277795    0.000000
 ---------------------------------------------------------------------

 SCF Done:  E(RHF) =  -33.5884045684     A.U. after   11 cycles
 E2 =    -0.2326802135D+00 EUMP2 =    -0.33821084781894D+02
 CCSD(T)
 CCSD(T)= -0.33838211665D+02

 The electronic state is 1-A'.
 Alpha  occ. eigenvalues --   -1.33509  -1.30322  -0.68616  -0.66443  -0.59095
 Alpha  occ. eigenvalues --   -0.48458  -0.43951  -0.40825
 Alpha virt. eigenvalues --    0.21363   0.26340   0.32607   0.33432   0.79531
 Alpha virt. eigenvalues --    0.80905   0.90187   0.95041   1.03455   1.19939
 Alpha virt. eigenvalues --    1.20529   1.23114   1.26707   1.28389   2.48714

 Mulliken charges:
               1
     1  O   -0.707866
     2  H    0.341320
     3  H    0.362193
     4  O   -0.691333
     5  H    0.351477
     6  H    0.344209
 Sum of Mulliken charges =  -0.00000

 Dipole moment (field-independent basis, Debye):
    X=             -0.7087    Y=             -0.1430    Z=              0.0000  Tot=              0.7229
 Quadrupole moment (field-independent basis, Debye-Ang):
   XX=             -8.5439   YY=             -4.0829   ZZ=            -15.0233
   XY=             -0.4218   XZ=              0.0000   YZ=              0.0000

 P4DQ=-33.8319541\MP4SDQ=-33.834253\CCSD=-33.8352224\CCSD(T)=-33.838211
 Normal termination of Gaussian 16 at Sun Dec 10 06:31:25 2023.
