 Gaussian 16, Revision A.03,
 Gaussian 16:  ES64L-G16RevA.03 25-Dec-2016

 ------------------
 #p CCSD(T)/CEP-31G
 ------------------

 ------------
 H2O_H2O_2999
 ------------
 Symbolic Z-matrix:
 Charge =  0 Multiplicity = 1

                         Standard orientation:
 ---------------------------------------------------------------------
 Center     Atomic      Atomic             Coordinates (Angstroms)
 Number     Number       Type             X           Y           Z
 ---------------------------------------------------------------------
      1          8           0        0.057231   -2.323905    0.000000
      2          1           0       -0.743518   -2.893385    0.000000
      3          1           0        0.855621   -2.896687    0.000000
      4          8           0        0.057231    2.437896    0.000000
      5          1           0       -0.512249    3.238645    0.000000
      6          1           0       -0.515551    1.639506    0.000000
 ---------------------------------------------------------------------

 SCF Done:  E(RHF) =  -33.6527594118     A.U. after   11 cycles
 E2 =    -0.2283867742D+00 EUMP2 =    -0.33881146185984D+02
 CCSD(T)
 CCSD(T)= -0.33898118129D+02

 The electronic state is 1-A'.
 Alpha  occ. eigenvalues --   -1.35896  -1.34352  -0.71534  -0.69950  -0.55690
 Alpha  occ. eigenvalues --   -0.54102  -0.50481  -0.48936
 Alpha virt. eigenvalues --    0.19788   0.21633   0.30157   0.31782   0.80076
 Alpha virt. eigenvalues --    0.81581   0.82754   0.84845   0.86122   0.87942
 Alpha virt. eigenvalues --    1.17046   1.18644   1.21475   1.23340   2.57044

 Mulliken charges:
               1
     1  O   -0.744462
     2  H    0.369359
     3  H    0.375229
     4  O   -0.744102
     5  H    0.364107
     6  H    0.379870
 Sum of Mulliken charges =  -0.00000

 Dipole moment (field-independent basis, Debye):
    X=             -2.6289    Y=             -2.7084    Z=              0.0000  Tot=              3.7745
 Quadrupole moment (field-independent basis, Debye-Ang):
   XX=            -10.1604   YY=              2.2325   ZZ=            -14.9910
   XY=             -6.6406   XZ=              0.0000   YZ=              0.0000

 \MP4DQ=-33.8924776\MP4SDQ=-33.8945061\CCSD=-33.895556\CCSD(T)=-33.8981
 Normal termination of Gaussian 16 at Sun Dec 10 06:33:56 2023.
