 Gaussian 16, Revision A.03,
 Gaussian 16:  ES64L-G16RevA.03 25-Dec-2016

 ------------------
 #p CCSD(T)/CEP-31G
 ------------------

 ------------
 H2O_H2O_3424
 ------------
 Symbolic Z-matrix:
 Charge =  0 Multiplicity = 1

                         Standard orientation:
 ---------------------------------------------------------------------
 Center     Atomic      Atomic             Coordinates (Angstroms)
 Number     Number       Type             X           Y           Z
 ---------------------------------------------------------------------
      1          8           0        0.057221   -2.549925    0.000000
      2          1           0       -0.743426   -3.119548    0.000000
      3          1           0        0.855713   -3.122564    0.000000
      4          8           0        0.057221    2.663936    0.000000
      5          1           0       -0.512402    3.464584    0.000000
      6          1           0       -0.515418    1.865444    0.000000
 ---------------------------------------------------------------------

 SCF Done:  E(RHF) =  -33.6524734523     A.U. after   11 cycles
 E2 =    -0.2283703047D+00 EUMP2 =    -0.33880843757025D+02
 CCSD(T)
 CCSD(T)= -0.33897823776D+02

 The electronic state is 1-A'.
 Alpha  occ. eigenvalues --   -1.35834  -1.34569  -0.71470  -0.70177  -0.55610
 Alpha  occ. eigenvalues --   -0.54315  -0.50415  -0.49149
 Alpha virt. eigenvalues --    0.19940   0.21312   0.30215   0.31532   0.80140
 Alpha virt. eigenvalues --    0.81376   0.83033   0.84445   0.86231   0.87612
 Alpha virt. eigenvalues --    1.17097   1.18364   1.21545   1.22889   2.57083

 Mulliken charges:
               1
     1  O   -0.743552
     2  H    0.369509
     3  H    0.374066
     4  O   -0.743298
     5  H    0.365588
     6  H    0.377688
 Sum of Mulliken charges =   0.00000

 Dipole moment (field-independent basis, Debye):
    X=             -2.6333    Y=             -2.6905    Z=              0.0000  Tot=              3.7647
 Quadrupole moment (field-independent basis, Debye-Ang):
   XX=            -10.1629   YY=              3.4559   ZZ=            -14.9903
   XY=             -7.2295   XZ=              0.0000   YZ=              0.0000

 \MP4DQ=-33.892184\MP4SDQ=-33.8942106\CCSD=-33.8952633\CCSD(T)=-33.8978
 Normal termination of Gaussian 16 at Sun Dec 10 06:41:30 2023.
