 Gaussian 16, Revision A.03,
 Gaussian 16:  ES64L-G16RevA.03 25-Dec-2016

 ------------------
 #p CCSD(T)/CEP-31G
 ------------------

 ------------
 H2O_H2O_2204
 ------------
 Symbolic Z-matrix:
 Charge =  0 Multiplicity = 1

                         Standard orientation:
 ---------------------------------------------------------------------
 Center     Atomic      Atomic             Coordinates (Angstroms)
 Number     Number       Type             X           Y           Z
 ---------------------------------------------------------------------
      1          8           0        0.014783   -1.971535    0.000000
      2          1           0       -0.785156   -2.542152    0.000000
      3          1           0        0.813986   -2.543183    0.000000
      4          8           0        0.014783    1.975408    0.000000
      5          1           0        0.639779    2.733621    0.000000
      6          1           0       -0.905141    2.320729    0.000000
 ---------------------------------------------------------------------

 SCF Done:  E(RHF) =  -33.6471600241     A.U. after   11 cycles
 E2 =    -0.2287021417D+00 EUMP2 =    -0.33875862165849D+02
 CCSD(T)
 CCSD(T)= -0.33892999921D+02

 The electronic state is 1-A'.
 Alpha  occ. eigenvalues --   -1.34171  -1.34093  -0.69792  -0.69709  -0.53834
 Alpha  occ. eigenvalues --   -0.53338  -0.48688  -0.48585
 Alpha virt. eigenvalues --    0.21038   0.21732   0.31536   0.31699   0.79512
 Alpha virt. eigenvalues --    0.81336   0.82479   0.86821   0.89313   0.92931
 Alpha virt. eigenvalues --    1.18541   1.18620   1.22977   1.23212   2.58268

 Mulliken charges:
               1
     1  O   -0.725227
     2  H    0.361223
     3  H    0.364024
     4  O   -0.724851
     5  H    0.360715
     6  H    0.364118
 Sum of Mulliken charges =  -0.00000

 Dipole moment (field-independent basis, Debye):
    X=             -0.6751    Y=             -0.0938    Z=              0.0000  Tot=              0.6816
 Quadrupole moment (field-independent basis, Debye-Ang):
   XX=             -8.2326   YY=              8.4871   ZZ=            -14.9842
   XY=             -0.9320   XZ=              0.0000   YZ=              0.0000

 4DQ=-33.887308\MP4SDQ=-33.889356\CCSD=-33.890415\CCSD(T)=-33.8929999\R
 Normal termination of Gaussian 16 at Sun Dec 10 07:07:04 2023.
