 Gaussian 16, Revision A.03,
 Gaussian 16:  ES64L-G16RevA.03 25-Dec-2016

 ------------------
 #p CCSD(T)/CEP-31G
 ------------------

 ------------
 H2O_H2O_2427
 ------------
 Symbolic Z-matrix:
 Charge =  0 Multiplicity = 1

                         Standard orientation:
 ---------------------------------------------------------------------
 Center     Atomic      Atomic             Coordinates (Angstroms)
 Number     Number       Type             X           Y           Z
 ---------------------------------------------------------------------
      1          8           0        0.007455   -2.092774    0.000000
      2          1           0       -0.792291   -2.663661    0.000000
      3          1           0        0.806851   -2.664151    0.000000
      4          8           0        0.007455    2.093746    0.000000
      5          1           0        0.725843    2.764137    0.000000
      6          1           0       -0.859682    2.555893    0.000000
 ---------------------------------------------------------------------

 SCF Done:  E(RHF) =  -33.6477573786     A.U. after   11 cycles
 E2 =    -0.2286372418D+00 EUMP2 =    -0.33876394620366D+02
 CCSD(T)
 CCSD(T)= -0.33893512382D+02

 The electronic state is 1-A'.
 Alpha  occ. eigenvalues --   -1.34270  -1.34252  -0.69892  -0.69872  -0.53911
 Alpha  occ. eigenvalues --   -0.53597  -0.48795  -0.48752
 Alpha virt. eigenvalues --    0.21059   0.21520   0.31459   0.31580   0.81173
 Alpha virt. eigenvalues --    0.81451   0.82095   0.87312   0.88752   0.89911
 Alpha virt. eigenvalues --    1.18465   1.18482   1.22887   1.23059   2.58349

 Mulliken charges:
               1
     1  O   -0.727181
     2  H    0.362988
     3  H    0.364195
     4  O   -0.727106
     5  H    0.362815
     6  H    0.364288
 Sum of Mulliken charges =   0.00000

 Dipole moment (field-independent basis, Debye):
    X=             -0.3413    Y=             -0.0234    Z=              0.0000  Tot=              0.3421
 Quadrupole moment (field-independent basis, Debye-Ang):
   XX=             -8.1190   YY=              9.9658   ZZ=            -14.9844
   XY=             -0.5020   XZ=              0.0000   YZ=              0.0000

 P4DQ=-33.8878311\MP4SDQ=-33.8898733\CCSD=-33.8909332\CCSD(T)=-33.89351
 Normal termination of Gaussian 16 at Sun Dec 10 07:11:04 2023.
