 Gaussian 16, Revision A.03,
 Gaussian 16:  ES64L-G16RevA.03 25-Dec-2016

 ------------------
 #p CCSD(T)/CEP-31G
 ------------------

 ------------
 H2O_H2O_3930
 ------------
 Symbolic Z-matrix:
 Charge =  0 Multiplicity = 1

                         Standard orientation:
 ---------------------------------------------------------------------
 Center     Atomic      Atomic             Coordinates (Angstroms)
 Number     Number       Type             X           Y           Z
 ---------------------------------------------------------------------
      1          8           0        0.018360   -2.887775    0.000000
      2          1           0       -0.781523   -3.458470    0.000000
      3          1           0        0.817619   -3.459344    0.000000
      4          8           0        0.018360    2.893817    0.000000
      5          1           0        0.592350    3.691339    0.000000
      6          1           0       -0.922207    3.178140    0.000000
 ---------------------------------------------------------------------

 SCF Done:  E(RHF) =  -33.6503310337     A.U. after   11 cycles
 E2 =    -0.2284595639D+00 EUMP2 =    -0.33878790597662D+02
 CCSD(T)
 CCSD(T)= -0.33895832859D+02

 The electronic state is 1-A'.
 Alpha  occ. eigenvalues --   -1.34922  -1.34868  -0.70549  -0.70493  -0.54575
 Alpha  occ. eigenvalues --   -0.54520  -0.49472  -0.49417
 Alpha virt. eigenvalues --    0.20768   0.20824   0.30999   0.31052   0.81082
 Alpha virt. eigenvalues --    0.81136   0.84214   0.84342   0.87303   0.87370
 Alpha virt. eigenvalues --    1.17918   1.17971   1.22388   1.22442   2.57970

 Mulliken charges:
               1
     1  O   -0.735961
     2  H    0.367365
     3  H    0.368596
     4  O   -0.735856
     5  H    0.367073
     6  H    0.368783
 Sum of Mulliken charges =   0.00000

 Dipole moment (field-independent basis, Debye):
    X=             -0.8466    Y=             -0.1417    Z=              0.0000  Tot=              0.8584
 Quadrupole moment (field-independent basis, Debye-Ang):
   XX=             -8.2618   YY=             18.0244   ZZ=            -14.9865
   XY=             -1.9190   XZ=              0.0000   YZ=              0.0000

 4DQ=-33.8901773\MP4SDQ=-33.8922089\CCSD=-33.8932669\CCSD(T)=-33.895832
 Normal termination of Gaussian 16 at Sun Dec 10 06:50:49 2023.
