 Gaussian 16, Revision A.03,
 Gaussian 16:  ES64L-G16RevA.03 25-Dec-2016

 ------------------
 #p CCSD(T)/CEP-31G
 ------------------

 ------------
 H2O_H2O_2672
 ------------
 Symbolic Z-matrix:
 Charge =  0 Multiplicity = 1

                         Standard orientation:
 ---------------------------------------------------------------------
 Center     Atomic      Atomic             Coordinates (Angstroms)
 Number     Number       Type             X           Y           Z
 ---------------------------------------------------------------------
      1          8           0        0.056734   -2.159163    0.000000
      2          1           0       -0.744095   -2.728529    0.000000
      3          1           0        0.855043   -2.732058    0.000000
      4          8           0        0.056734    2.258229    0.000000
      5          1           0       -0.403232    3.126525    0.000000
      6          1           0       -0.615460    1.541528    0.000000
 ---------------------------------------------------------------------

 SCF Done:  E(RHF) =  -33.6524482076     A.U. after   11 cycles
 E2 =    -0.2284442733D+00 EUMP2 =    -0.33880892480919D+02
 CCSD(T)
 CCSD(T)= -0.33897875052D+02

 The electronic state is 1-A'.
 Alpha  occ. eigenvalues --   -1.35765  -1.34175  -0.71401  -0.69761  -0.55539
 Alpha  occ. eigenvalues --   -0.53909  -0.50345  -0.48756
 Alpha virt. eigenvalues --    0.19782   0.21887   0.30248   0.31940   0.80199
 Alpha virt. eigenvalues --    0.81776   0.82160   0.85316   0.86233   0.88950
 Alpha virt. eigenvalues --    1.17162   1.18887   1.21567   1.23729   2.57116

 Mulliken charges:
               1
     1  O   -0.743304
     2  H    0.368069
     3  H    0.375475
     4  O   -0.742305
     5  H    0.362241
     6  H    0.379824
 Sum of Mulliken charges =   0.00000

 Dipole moment (field-independent basis, Debye):
    X=             -2.6012    Y=             -2.3697    Z=              0.0000  Tot=              3.5188
 Quadrupole moment (field-independent basis, Debye-Ang):
   XX=            -10.1197   YY=              2.8433   ZZ=            -14.9908
   XY=             -5.8694   XZ=              0.0000   YZ=              0.0000

 MP4DQ=-33.8922283\MP4SDQ=-33.8942606\CCSD=-33.895309\CCSD(T)=-33.89787
 Normal termination of Gaussian 16 at Sun Dec 10 06:27:56 2023.
