 Gaussian 16, Revision A.03,
 Gaussian 16:  ES64L-G16RevA.03 25-Dec-2016

 ------------------
 #p CCSD(T)/CEP-31G
 ------------------

 ------------
 H2O_H2O_2065
 ------------
 Symbolic Z-matrix:
 Charge =  0 Multiplicity = 1

                         Standard orientation:
 ---------------------------------------------------------------------
 Center     Atomic      Atomic             Coordinates (Angstroms)
 Number     Number       Type             X           Y           Z
 ---------------------------------------------------------------------
      1          8           0        0.047543   -1.866403    0.000000
      2          1           0       -0.753261   -2.435806    0.000000
      3          1           0        0.845878   -2.439261    0.000000
      4          8           0        0.047543    1.916963    0.000000
      5          1           0        0.019004    2.899150    0.000000
      6          1           0       -0.872303    1.571435    0.000000
 ---------------------------------------------------------------------

 SCF Done:  E(RHF) =  -33.6496012346     A.U. after   11 cycles
 E2 =    -0.2287004140D+00 EUMP2 =    -0.33878301648642D+02
 CCSD(T)
 CCSD(T)= -0.33895376803D+02

 The electronic state is 1-A'.
 Alpha  occ. eigenvalues --   -1.34951  -1.33833  -0.70582  -0.69408  -0.54582
 Alpha  occ. eigenvalues --   -0.53399  -0.49492  -0.48379
 Alpha virt. eigenvalues --    0.20224   0.22267   0.30883   0.32052   0.77676
 Alpha virt. eigenvalues --    0.80622   0.82595   0.85866   0.87632   0.97036
 Alpha virt. eigenvalues --    1.17849   1.19281   1.22252   1.23724   2.57461

 Mulliken charges:
               1
     1  O   -0.733628
     2  H    0.362007
     3  H    0.371957
     4  O   -0.730156
     5  H    0.357077
     6  H    0.372744
 Sum of Mulliken charges =  -0.00000

 Dipole moment (field-independent basis, Debye):
    X=             -2.1634    Y=             -1.2294    Z=              0.0000  Tot=              2.4883
 Quadrupole moment (field-independent basis, Debye-Ang):
   XX=             -9.5104   YY=              4.6576   ZZ=            -14.9875
   XY=             -3.5118   XZ=              0.0000   YZ=              0.0000

 MP4DQ=-33.8896938\MP4SDQ=-33.8917438\CCSD=-33.892793\CCSD(T)=-33.89537
 Normal termination of Gaussian 16 at Sun Dec 10 07:04:34 2023.
