 Gaussian 16, Revision A.03,
 Gaussian 16:  ES64L-G16RevA.03 25-Dec-2016

 ------------------
 #p CCSD(T)/CEP-31G
 ------------------

 ------------
 H2O_H2O_3231
 ------------
 Symbolic Z-matrix:
 Charge =  0 Multiplicity = 1

                         Standard orientation:
 ---------------------------------------------------------------------
 Center     Atomic      Atomic             Coordinates (Angstroms)
 Number     Number       Type             X           Y           Z
 ---------------------------------------------------------------------
      1          8           0        0.021859   -2.514067    0.000000
      2          1           0       -0.778138   -3.084601    0.000000
      3          1           0        0.821004   -3.085796    0.000000
      4          8           0        0.021859    2.522729    0.000000
      5          1           0        0.542627    3.355980    0.000000
      6          1           0       -0.935245    2.745119    0.000000
 ---------------------------------------------------------------------

 SCF Done:  E(RHF) =  -33.6496520615     A.U. after   11 cycles
 E2 =    -0.2285055701D+00 EUMP2 =    -0.33878157631579D+02
 CCSD(T)
 CCSD(T)= -0.33895219637D+02

 The electronic state is 1-A'.
 Alpha  occ. eigenvalues --   -1.34742  -1.34638  -0.70367  -0.70259  -0.54358
 Alpha  occ. eigenvalues --   -0.54247  -0.49282  -0.49179
 Alpha virt. eigenvalues --    0.20895   0.21033   0.31141   0.31241   0.81263
 Alpha virt. eigenvalues --    0.81380   0.83996   0.85110   0.87513   0.87707
 Alpha virt. eigenvalues --    1.18070   1.18172   1.22546   1.22649   2.58138

 Mulliken charges:
               1
     1  O   -0.733640
     2  H    0.365750
     3  H    0.367890
     4  O   -0.733364
     5  H    0.365241
     6  H    0.368122
 Sum of Mulliken charges =   0.00000

 Dipole moment (field-independent basis, Debye):
    X=             -1.0056    Y=             -0.2046    Z=              0.0000  Tot=              1.0262
 Quadrupole moment (field-independent basis, Debye-Ang):
   XX=             -8.3626   YY=             13.8986   ZZ=            -14.9859
   XY=             -1.9359   XZ=              0.0000   YZ=              0.0000

 \MP4DQ=-33.8895583\MP4SDQ=-33.891592\CCSD=-33.8926507\CCSD(T)=-33.8952
 Normal termination of Gaussian 16 at Sun Dec 10 06:38:02 2023.
