 Gaussian 16, Revision A.03,
 Gaussian 16:  ES64L-G16RevA.03 25-Dec-2016

 ------------------
 #p CCSD(T)/CEP-31G
 ------------------

 ------------
 H2O_H2O_4430
 ------------
 Symbolic Z-matrix:
 Charge =  0 Multiplicity = 1

                         Standard orientation:
 ---------------------------------------------------------------------
 Center     Atomic      Atomic             Coordinates (Angstroms)
 Number     Number       Type             X           Y           Z
 ---------------------------------------------------------------------
      1          8           0        0.018360   -3.153693    0.000000
      2          1           0       -0.781497   -3.724424    0.000000
      3          1           0        0.817645   -3.725225    0.000000
      4          8           0        0.018360    3.159736    0.000000
      5          1           0        0.592313    3.957285    0.000000
      6          1           0       -0.922220    3.444015    0.000000
 ---------------------------------------------------------------------

 SCF Done:  E(RHF) =  -33.6506762277     A.U. after   11 cycles
 E2 =    -0.2284383172D+00 EUMP2 =    -0.33879114544902D+02
 CCSD(T)
 CCSD(T)= -0.33896146908D+02

 The electronic state is 1-A'.
 Alpha  occ. eigenvalues --   -1.35031  -1.34986  -0.70659  -0.70612  -0.54704
 Alpha  occ. eigenvalues --   -0.54659  -0.49586  -0.49541
 Alpha virt. eigenvalues --    0.20678   0.20725   0.30910   0.30955   0.80968
 Alpha virt. eigenvalues --    0.81013   0.84099   0.84146   0.87170   0.87224
 Alpha virt. eigenvalues --    1.17823   1.17868   1.22290   1.22335   2.57867

 Mulliken charges:
               1
     1  O   -0.737160
     2  H    0.368098
     3  H    0.369062
     4  O   -0.737091
     5  H    0.367858
     6  H    0.369233
 Sum of Mulliken charges =  -0.00000

 Dipole moment (field-independent basis, Debye):
    X=             -0.8475    Y=             -0.1414    Z=              0.0000  Tot=              0.8592
 Quadrupole moment (field-independent basis, Debye-Ang):
   XX=             -8.2569   YY=             20.7961   ZZ=            -14.9868
   XY=             -2.1408   XZ=              0.0000   YZ=              0.0000

 MP4DQ=-33.8904941\MP4SDQ=-33.8925247\CCSD=-33.8935822\CCSD(T)=-33.8961
 Normal termination of Gaussian 16 at Sun Dec 10 06:59:45 2023.
