 Gaussian 16, Revision A.03,
 Gaussian 16:  ES64L-G16RevA.03 25-Dec-2016

 ------------------
 #p CCSD(T)/CEP-31G
 ------------------

 ------------
 H2O_H2O_1265
 ------------
 Symbolic Z-matrix:
 Charge =  0 Multiplicity = 1

                         Standard orientation:
 ---------------------------------------------------------------------
 Center     Atomic      Atomic             Coordinates (Angstroms)
 Number     Number       Type             X           Y           Z
 ---------------------------------------------------------------------
      1          8           0        0.047558   -1.440965    0.000000
      2          1           0       -0.753602   -2.009865    0.000000
      3          1           0        0.845534   -2.014324    0.000000
      4          8           0        0.047558    1.491466    0.000000
      5          1           0        0.019636    2.473670    0.000000
      6          1           0       -0.872504    1.146513    0.000000
 ---------------------------------------------------------------------

 SCF Done:  E(RHF) =  -33.6462735146     A.U. after   11 cycles
 E2 =    -0.2293807791D+00 EUMP2 =    -0.33875654293652D+02
 CCSD(T)
 CCSD(T)= -0.33892901832D+02

 The electronic state is 1-A'.
 Alpha  occ. eigenvalues --   -1.34618  -1.32806  -0.70256  -0.68391  -0.54453
 Alpha  occ. eigenvalues --   -0.51871  -0.49159  -0.47297
 Alpha virt. eigenvalues --    0.20064   0.23977   0.31153   0.32791   0.77739
 Alpha virt. eigenvalues --    0.78939   0.84817   0.85962   0.91232   1.14350
 Alpha virt. eigenvalues --    1.18043   1.22009   1.22704   1.26379   2.60539

 Mulliken charges:
               1
     1  O   -0.729913
     2  H    0.354975
     3  H    0.374286
     4  O   -0.715224
     5  H    0.345814
     6  H    0.370063
 Sum of Mulliken charges =  -0.00000

 Dipole moment (field-independent basis, Debye):
    X=             -2.1069    Y=             -1.2647    Z=              0.0000  Tot=              2.4574
 Quadrupole moment (field-independent basis, Debye-Ang):
   XX=             -9.5296   YY=              0.8241   ZZ=            -14.9891
   XY=             -2.6269   XZ=              0.0000   YZ=              0.0000

 \MP4DQ=-33.8870932\MP4SDQ=-33.8892046\CCSD=-33.8902594\CCSD(T)=-33.892
 Normal termination of Gaussian 16 at Sun Dec 10 06:48:24 2023.
