 Gaussian 16, Revision A.03,
 Gaussian 16:  ES64L-G16RevA.03 25-Dec-2016

 ------------------
 #p CCSD(T)/CEP-31G
 ------------------

 ------------
 H2O_H2O_2987
 ------------
 Symbolic Z-matrix:
 Charge =  0 Multiplicity = 1

                         Standard orientation:
 ---------------------------------------------------------------------
 Center     Atomic      Atomic             Coordinates (Angstroms)
 Number     Number       Type             X           Y           Z
 ---------------------------------------------------------------------
      1          8           0        0.040409   -2.367705    0.000000
      2          1           0       -0.759993   -2.937671    0.000000
      3          1           0        0.839147   -2.940003    0.000000
      4          8           0        0.040409    2.401044    0.000000
      5          1           0        0.203354    3.370041    0.000000
      6          1           0       -0.929059    2.240926    0.000000
 ---------------------------------------------------------------------

 SCF Done:  E(RHF) =  -33.6500765571     A.U. after   11 cycles
 E2 =    -0.2285056834D+00 EUMP2 =    -0.33878582240553D+02
 CCSD(T)
 CCSD(T)= -0.33895632446D+02

 The electronic state is 1-A'.
 Alpha  occ. eigenvalues --   -1.34946  -1.34497  -0.70573  -0.70107  -0.54584
 Alpha  occ. eigenvalues --   -0.54131  -0.49492  -0.49045
 Alpha virt. eigenvalues --    0.20695   0.21220   0.30963   0.31398   0.81052
 Alpha virt. eigenvalues --    0.81508   0.83413   0.85260   0.87294   0.88168
 Alpha virt. eigenvalues --    1.17884   1.18328   1.22355   1.22805   2.57943

 Mulliken charges:
               1
     1  O   -0.735191
     2  H    0.365324
     3  H    0.369874
     4  O   -0.734148
     5  H    0.363637
     6  H    0.370504
 Sum of Mulliken charges =  -0.00000

 Dipole moment (field-independent basis, Debye):
    X=             -1.8563    Y=             -0.7900    Z=              0.0000  Tot=              2.0174
 Quadrupole moment (field-independent basis, Debye-Ang):
   XX=             -9.1046   YY=             10.4232   ZZ=            -14.9867
   XY=             -3.6526   XZ=              0.0000   YZ=              0.0000

 MP4DQ=-33.8899739\MP4SDQ=-33.892007\CCSD=-33.893064\CCSD(T)=-33.895632
 Normal termination of Gaussian 16 at Sun Dec 10 06:33:43 2023.
