 Gaussian 16, Revision A.03,
 Gaussian 16:  ES64L-G16RevA.03 25-Dec-2016

 ------------------
 #p CCSD(T)/CEP-31G
 ------------------

 ------------
 H2O_H2O_2436
 ------------
 Symbolic Z-matrix:
 Charge =  0 Multiplicity = 1

                         Standard orientation:
 ---------------------------------------------------------------------
 Center     Atomic      Atomic             Coordinates (Angstroms)
 Number     Number       Type             X           Y           Z
 ---------------------------------------------------------------------
      1          8           0        0.037679   -2.077970    0.000000
      2          1           0       -0.762776   -2.647862    0.000000
      3          1           0        0.836364   -2.650340    0.000000
      4          8           0        0.037679    2.106199    0.000000
      5          1           0        0.263737    3.062444    0.000000
      6          1           0       -0.940195    2.009920    0.000000
 ---------------------------------------------------------------------

 SCF Done:  E(RHF) =  -33.6490562605     A.U. after   11 cycles
 E2 =    -0.2286066698D+00 EUMP2 =    -0.33877662930301D+02
 CCSD(T)
 CCSD(T)= -0.33894744267D+02

 The electronic state is 1-A'.
 Alpha  occ. eigenvalues --   -1.34695  -1.34195  -0.70321  -0.69797  -0.54294
 Alpha  occ. eigenvalues --   -0.53741  -0.49227  -0.48730
 Alpha virt. eigenvalues --    0.20732   0.21608   0.31154   0.31637   0.80862
 Alpha virt. eigenvalues --    0.81162   0.81973   0.86167   0.87749   0.91374
 Alpha virt. eigenvalues --    1.18093   1.18607   1.22567   1.23091   2.58111

 Mulliken charges:
               1
     1  O   -0.731718
     2  H    0.362857
     3  H    0.368922
     4  O   -0.730031
     5  H    0.360719
     6  H    0.369252
 Sum of Mulliken charges =   0.00000

 Dipole moment (field-independent basis, Debye):
    X=             -1.7235    Y=             -0.6771    Z=              0.0000  Tot=              1.8517
 Quadrupole moment (field-independent basis, Debye-Ang):
   XX=             -8.9770   YY=              8.0808   ZZ=            -14.9860
   XY=             -2.8538   XZ=              0.0000   YZ=              0.0000

 \MP4DQ=-33.8890727\MP4SDQ=-33.8911123\CCSD=-33.8921684\CCSD(T)=-33.894
 Normal termination of Gaussian 16 at Sun Dec 10 07:11:14 2023.
