 Gaussian 16, Revision A.03,
 Gaussian 16:  ES64L-G16RevA.03 25-Dec-2016

 ------------------
 #p CCSD(T)/CEP-31G
 ------------------

 ------------
 H2O_H2O_1961
 ------------
 Symbolic Z-matrix:
 Charge =  0 Multiplicity = 1

                         Standard orientation:
 ---------------------------------------------------------------------
 Center     Atomic      Atomic             Coordinates (Angstroms)
 Number     Number       Type             X           Y           Z
 ---------------------------------------------------------------------
      1          8           0        0.037682   -1.825356    0.000000
      2          1           0       -0.762894   -2.395078    0.000000
      3          1           0        0.836246   -2.397896    0.000000
      4          8           0        0.037682    1.853570    0.000000
      5          1           0        0.263944    2.809766    0.000000
      6          1           0       -0.940212    1.757498    0.000000
 ---------------------------------------------------------------------

 SCF Done:  E(RHF) =  -33.6477903669     A.U. after   11 cycles
 E2 =    -0.2287842027D+00 EUMP2 =    -0.33876574569607D+02
 CCSD(T)
 CCSD(T)= -0.33893705315D+02

 The electronic state is 1-A'.
 Alpha  occ. eigenvalues --   -1.34470  -1.33816  -0.70096  -0.69405  -0.54094
 Alpha  occ. eigenvalues --   -0.53179  -0.48990  -0.48332
 Alpha virt. eigenvalues --    0.20617   0.22184   0.31310   0.31941   0.77025
 Alpha virt. eigenvalues --    0.80818   0.82952   0.85787   0.88933   0.98844
 Alpha virt. eigenvalues --    1.18263   1.19087   1.22755   1.23485   2.57938

 Mulliken charges:
               1
     1  O   -0.727609
     2  H    0.359632
     3  H    0.368187
     4  O   -0.724654
     5  H    0.356474
     6  H    0.367971
 Sum of Mulliken charges =  -0.00000

 Dipole moment (field-independent basis, Debye):
    X=             -1.7122    Y=             -0.6893    Z=              0.0000  Tot=              1.8457
 Quadrupole moment (field-independent basis, Debye-Ang):
   XX=             -8.9907   YY=              5.6373   ZZ=            -14.9856
   XY=             -2.4369   XZ=              0.0000   YZ=              0.0000

 P4DQ=-33.8880041\MP4SDQ=-33.8900609\CCSD=-33.8911142\CCSD(T)=-33.89370
 Normal termination of Gaussian 16 at Sun Dec 10 07:01:57 2023.
