 Gaussian 16, Revision A.03,
 Gaussian 16:  ES64L-G16RevA.03 25-Dec-2016

 ------------------
 #p CCSD(T)/CEP-31G
 ------------------

 ------------
 H2O_H2O_3139
 ------------
 Symbolic Z-matrix:
 Charge =  0 Multiplicity = 1

                         Standard orientation:
 ---------------------------------------------------------------------
 Center     Atomic      Atomic             Coordinates (Angstroms)
 Number     Number       Type             X           Y           Z
 ---------------------------------------------------------------------
      1          8           0        0.045346   -2.441394    0.000000
      2          1           0       -0.755128   -3.011259    0.000000
      3          1           0        0.844012   -3.013791    0.000000
      4          8           0        0.045346    2.485940    0.000000
      5          1           0        0.080540    3.467912    0.000000
      6          1           0       -0.894964    2.200770    0.000000
 ---------------------------------------------------------------------

 SCF Done:  E(RHF) =  -33.6505638876     A.U. after   11 cycles
 E2 =    -0.2284774397D+00 EUMP2 =    -0.33879041327251D+02
 CCSD(T)
 CCSD(T)= -0.33896077325D+02

 The electronic state is 1-A'.
 Alpha  occ. eigenvalues --   -1.35110  -1.34549  -0.70739  -0.70158  -0.54776
 Alpha  occ. eigenvalues --   -0.54211  -0.49663  -0.49104
 Alpha virt. eigenvalues --    0.20570   0.21186   0.30826   0.31377   0.80888
 Alpha virt. eigenvalues --    0.81441   0.83603   0.84887   0.87093   0.87922
 Alpha virt. eigenvalues --    1.17740   1.18296   1.22206   1.22771   2.57784

 Mulliken charges:
               1
     1  O   -0.736885
     2  H    0.366124
     3  H    0.370766
     4  O   -0.735852
     5  H    0.364148
     6  H    0.371699
 Sum of Mulliken charges =  -0.00000

 Dipole moment (field-independent basis, Debye):
    X=             -2.0848    Y=             -1.0534    Z=              0.0000  Tot=              2.3358
 Quadrupole moment (field-independent basis, Debye-Ang):
   XX=             -9.3747   YY=             10.1057   ZZ=            -14.9873
   XY=             -4.4229   XZ=              0.0000   YZ=              0.0000

 \MP4DQ=-33.8904229\MP4SDQ=-33.8924545\CCSD=-33.8935108\CCSD(T)=-33.896
 Normal termination of Gaussian 16 at Sun Dec 10 06:36:23 2023.
