 Gaussian 16, Revision A.03,
 Gaussian 16:  ES64L-G16RevA.03 25-Dec-2016

 ------------------
 #p CCSD(T)/CEP-31G
 ------------------

 ------------
 H2O_H2O_1745
 ------------
 Symbolic Z-matrix:
 Charge =  0 Multiplicity = 1

                         Standard orientation:
 ---------------------------------------------------------------------
 Center     Atomic      Atomic             Coordinates (Angstroms)
 Number     Number       Type             X           Y           Z
 ---------------------------------------------------------------------
      1          8           0        0.055284   -1.675201    0.000000
      2          1           0       -0.745863   -2.244119    0.000000
      3          1           0        0.853273   -2.248541    0.000000
      4          8           0        0.055284    1.759558    0.000000
      5          1           0       -0.286897    2.680654    0.000000
      6          1           0       -0.705055    1.137151    0.000000
 ---------------------------------------------------------------------

 SCF Done:  E(RHF) =  -33.6518916046     A.U. after   11 cycles
 E2 =    -0.2288288313D+00 EUMP2 =    -0.33880720435892D+02
 CCSD(T)
 CCSD(T)= -0.33897761760D+02

 The electronic state is 1-A'.
 Alpha  occ. eigenvalues --   -1.35637  -1.33303  -0.71278  -0.68857  -0.55380
 Alpha  occ. eigenvalues --   -0.52994  -0.50210  -0.47883
 Alpha virt. eigenvalues --    0.19422   0.23410   0.30287   0.32947   0.76429
 Alpha virt. eigenvalues --    0.79514   0.83504   0.86146   0.87210   1.02368
 Alpha virt. eigenvalues --    1.17196   1.20369   1.21757   1.26460   2.55270

 Mulliken charges:
               1
     1  O   -0.741698
     2  H    0.363932
     3  H    0.378889
     4  O   -0.737083
     5  H    0.353152
     6  H    0.382807
 Sum of Mulliken charges =   0.00000

 Dipole moment (field-independent basis, Debye):
    X=             -2.5001    Y=             -2.0883    Z=              0.0000  Tot=              3.2575
 Quadrupole moment (field-independent basis, Debye-Ang):
   XX=            -10.0045   YY=              0.8623   ZZ=            -14.9919
   XY=             -4.2411   XZ=              0.0000   YZ=              0.0000

 6\MP4DQ=-33.8920522\MP4SDQ=-33.8941224\CCSD=-33.8951606\CCSD(T)=-33.89
 Normal termination of Gaussian 16 at Sun Dec 10 06:57:19 2023.
