 Gaussian 16, Revision A.03,
 Gaussian 16:  ES64L-G16RevA.03 25-Dec-2016

 ------------------
 #p CCSD(T)/CEP-31G
 ------------------

 -----------
 H2O_H2O_473
 -----------
 Symbolic Z-matrix:
 Charge =  0 Multiplicity = 1

                         Standard orientation:
 ---------------------------------------------------------------------
 Center     Atomic      Atomic             Coordinates (Angstroms)
 Number     Number       Type             X           Y           Z
 ---------------------------------------------------------------------
      1          8           0        0.057243   -0.985234    0.000000
      2          1           0       -0.745018   -1.552582    0.000000
      3          1           0        0.854106   -1.560138    0.000000
      4          8           0        0.057243    1.091450    0.000000
      5          1           0       -0.456420    1.929099    0.000000
      6          1           0       -0.568548    0.333892    0.000000
 ---------------------------------------------------------------------

 SCF Done:  E(RHF) =  -33.6086435462     A.U. after   11 cycles
 E2 =    -0.2315804696D+00 EUMP2 =    -0.33840224015739D+02
 CCSD(T)
 CCSD(T)= -0.33856380141D+02

 The electronic state is 1-A'.
 Alpha  occ. eigenvalues --   -1.38955  -1.29466  -0.75049  -0.70682  -0.53063
 Alpha  occ. eigenvalues --   -0.51531  -0.49742  -0.43896
 Alpha virt. eigenvalues --    0.18669   0.28436   0.28752   0.38088   0.76948
 Alpha virt. eigenvalues --    0.84840   0.90201   0.93698   0.98873   1.14625
 Alpha virt. eigenvalues --    1.18602   1.20593   1.29245   1.31777   2.82928

 Mulliken charges:
               1
     1  O   -0.798327
     2  H    0.371966
     3  H    0.436508
     4  O   -0.701885
     5  H    0.310099
     6  H    0.381639
 Sum of Mulliken charges =   0.00000

 Dipole moment (field-independent basis, Debye):
    X=             -2.2741    Y=             -2.9853    Z=              0.0000  Tot=              3.7528
 Quadrupole moment (field-independent basis, Debye-Ang):
   XX=            -10.0977   YY=             -6.1028   ZZ=            -14.9894
   XY=             -2.9296   XZ=              0.0000   YZ=              0.0000

 MP4DQ=-33.8501323\MP4SDQ=-33.8524766\CCSD=-33.8532932\CCSD(T)=-33.8563
 Normal termination of Gaussian 16 at Sun Dec 10 06:33:36 2023.
