 Gaussian 16, Revision A.03,
 Gaussian 16:  ES64L-G16RevA.03 25-Dec-2016

 ------------------
 #p CCSD(T)/CEP-31G
 ------------------

 -----------
 H2O_H2O_745
 -----------
 Symbolic Z-matrix:
 Charge =  0 Multiplicity = 1

                         Standard orientation:
 ---------------------------------------------------------------------
 Center     Atomic      Atomic             Coordinates (Angstroms)
 Number     Number       Type             X           Y           Z
 ---------------------------------------------------------------------
      1          8           0        0.055336   -1.143436    0.000000
      2          1           0       -0.746516   -1.711360    0.000000
      3          1           0        0.852613   -1.717766    0.000000
      4          8           0        0.055336    1.227655    0.000000
      5          1           0       -0.285702    2.149176    0.000000
      6          1           0       -0.705774    0.606192    0.000000
 ---------------------------------------------------------------------

 SCF Done:  E(RHF) =  -33.6394583646     A.U. after   11 cycles
 E2 =    -0.2305950309D+00 EUMP2 =    -0.33870053395509D+02
 CCSD(T)
 CCSD(T)= -0.33887076825D+02

 The electronic state is 1-A'.
 Alpha  occ. eigenvalues --   -1.36066  -1.31220  -0.71778  -0.68186  -0.54478
 Alpha  occ. eigenvalues --   -0.50695  -0.50641  -0.45698
 Alpha virt. eigenvalues --    0.19329   0.26699   0.30102   0.35043   0.77349
 Alpha virt. eigenvalues --    0.83796   0.88915   0.91657   0.96778   1.13940
 Alpha virt. eigenvalues --    1.19350   1.20459   1.24721   1.30832   2.70937

 Mulliken charges:
               1
     1  O   -0.767019
     2  H    0.360647
     3  H    0.401286
     4  O   -0.705378
     5  H    0.330053
     6  H    0.380411
 Sum of Mulliken charges =  -0.00000

 Dipole moment (field-independent basis, Debye):
    X=             -2.3262    Y=             -2.1859    Z=              0.0000  Tot=              3.1921
 Quadrupole moment (field-independent basis, Debye-Ang):
   XX=             -9.9990   YY=             -3.4910   ZZ=            -15.0011
   XY=             -2.9016   XZ=              0.0000   YZ=              0.0000

 \MP4DQ=-33.8810611\MP4SDQ=-33.8832711\CCSD=-33.8842597\CCSD(T)=-33.887
 Normal termination of Gaussian 16 at Sun Dec 10 06:38:40 2023.
