 Gaussian 16, Revision A.03,
 Gaussian 16:  ES64L-G16RevA.03 25-Dec-2016

 ------------------
 #p CCSD(T)/CEP-31G
 ------------------

 ------------
 H2O_H2O_3321
 ------------
 Symbolic Z-matrix:
 Charge =  0 Multiplicity = 1

                         Standard orientation:
 ---------------------------------------------------------------------
 Center     Atomic      Atomic             Coordinates (Angstroms)
 Number     Number       Type             X           Y           Z
 ---------------------------------------------------------------------
      1          8           0        0.056102   -2.508841    0.000000
      2          1           0       -0.744545   -3.078463    0.000000
      3          1           0        0.854594   -3.081481    0.000000
      4          8           0        0.056102    2.600571    0.000000
      5          1           0       -0.346375    3.496963    0.000000
      6          1           0       -0.661313    1.929138    0.000000
 ---------------------------------------------------------------------

 SCF Done:  E(RHF) =  -33.6519451298     A.U. after   11 cycles
 E2 =    -0.2284037822D+00 EUMP2 =    -0.33880348912039D+02
 CCSD(T)
 CCSD(T)= -0.33897344467D+02

 The electronic state is 1-A'.
 Alpha  occ. eigenvalues --   -1.35626  -1.34557  -0.71260  -0.70163  -0.55372
 Alpha  occ. eigenvalues --   -0.54282  -0.50200  -0.49131
 Alpha virt. eigenvalues --    0.20120   0.21285   0.30390   0.31487   0.80355
 Alpha virt. eigenvalues --    0.81400   0.83253   0.84529   0.86474   0.87702
 Alpha virt. eigenvalues --    1.17282   1.18351   1.21733   1.22856   2.57284

 Mulliken charges:
               1
     1  O   -0.741714
     2  H    0.368391
     3  H    0.373338
     4  O   -0.741043
     5  H    0.364969
     6  H    0.376058
 Sum of Mulliken charges =   0.00000

 Dipole moment (field-independent basis, Debye):
    X=             -2.5816    Y=             -2.1666    Z=              0.0000  Tot=              3.3702
 Quadrupole moment (field-independent basis, Debye-Ang):
   XX=            -10.0789   YY=              5.8231   ZZ=            -14.9894
   XY=             -6.5531   XZ=              0.0000   YZ=              0.0000

 P4DQ=-33.8917007\MP4SDQ=-33.8937287\CCSD=-33.8947823\CCSD(T)=-33.89734
 Normal termination of Gaussian 16 at Sun Dec 10 06:39:38 2023.
