 Gaussian 16, Revision A.03,
 Gaussian 16:  ES64L-G16RevA.03 25-Dec-2016

 ------------------
 #p CCSD(T)/CEP-31G
 ------------------

 -----------
 H2O_H2O_338
 -----------
 Symbolic Z-matrix:
 Charge =  0 Multiplicity = 1

                         Standard orientation:
 ---------------------------------------------------------------------
 Center     Atomic      Atomic             Coordinates (Angstroms)
 Number     Number       Type             X           Y           Z
 ---------------------------------------------------------------------
      1          8           0        0.043013   -0.955485    0.000000
      2          1           0       -0.758718   -1.523581    0.000000
      3          1           0        0.840413   -1.529645    0.000000
      4          8           0        0.043013    0.994071    0.000000
      5          1           0        0.144514    1.971416    0.000000
      6          1           0       -0.914425    0.773124    0.000000
 ---------------------------------------------------------------------

 SCF Done:  E(RHF) =  -33.5912743258     A.U. after   11 cycles
 E2 =    -0.2328127329D+00 EUMP2 =    -0.33824087058746D+02
 CCSD(T)
 CCSD(T)= -0.33841299015D+02

 The electronic state is 1-A'.
 Alpha  occ. eigenvalues --   -1.34985  -1.30359  -0.70567  -0.67761  -0.56980
 Alpha  occ. eigenvalues --   -0.49714  -0.44306  -0.43297
 Alpha virt. eigenvalues --    0.20392   0.27209   0.31543   0.33446   0.80099
 Alpha virt. eigenvalues --    0.84506   0.89937   0.97103   0.98664   1.17382
 Alpha virt. eigenvalues --    1.19402   1.24912   1.26018   1.32292   2.53654

 Mulliken charges:
               1
     1  O   -0.754437
     2  H    0.345373
     3  H    0.387129
     4  O   -0.663611
     5  H    0.336468
     6  H    0.349079
 Sum of Mulliken charges =   0.00000

 Dipole moment (field-independent basis, Debye):
    X=             -1.6692    Y=             -0.9435    Z=              0.0000  Tot=              1.9174
 Quadrupole moment (field-independent basis, Debye-Ang):
   XX=             -9.3729   YY=             -4.7232   ZZ=            -14.9952
   XY=             -1.3229   XZ=              0.0000   YZ=              0.0000

 P4DQ=-33.8350004\MP4SDQ=-33.8373563\CCSD=-33.8382929\CCSD(T)=-33.84129
 Normal termination of Gaussian 16 at Sun Dec 10 06:31:05 2023.
