 Gaussian 16, Revision A.03,
 Gaussian 16:  ES64L-G16RevA.03 25-Dec-2016

 ------------------
 #p CCSD(T)/CEP-31G
 ------------------

 ------------
 H2O_H2O_4639
 ------------
 Symbolic Z-matrix:
 Charge =  0 Multiplicity = 1

                         Standard orientation:
 ---------------------------------------------------------------------
 Center     Atomic      Atomic             Coordinates (Angstroms)
 Number     Number       Type             X           Y           Z
 ---------------------------------------------------------------------
      1          8           0        0.045338   -3.239130    0.000000
      2          1           0       -0.754916   -3.809306    0.000000
      3          1           0        0.844225   -3.811218    0.000000
      4          8           0        0.045338    3.283711    0.000000
      5          1           0        0.080151    4.265697    0.000000
      6          1           0       -0.894863    2.998177    0.000000
 ---------------------------------------------------------------------

 SCF Done:  E(RHF) =  -33.6512640837     A.U. after   11 cycles
 E2 =    -0.2284113348D+00 EUMP2 =    -0.33879675418488D+02
 CCSD(T)
 CCSD(T)= -0.33896690833D+02

 The electronic state is 1-A'.
 Alpha  occ. eigenvalues --   -1.35316  -1.35003  -0.70946  -0.70626  -0.55022
 Alpha  occ. eigenvalues --   -0.54707  -0.49880  -0.49567
 Alpha virt. eigenvalues --    0.20426   0.20745   0.30663   0.30974   0.80673
 Alpha virt. eigenvalues --    0.80982   0.83748   0.84058   0.86841   0.87193
 Alpha virt. eigenvalues --    1.17563   1.17874   1.22026   1.22339   2.57593

 Mulliken charges:
               1
     1  O   -0.739258
     2  H    0.368567
     3  H    0.370691
     4  O   -0.738983
     5  H    0.367665
     6  H    0.371318
 Sum of Mulliken charges =  -0.00000

 Dipole moment (field-independent basis, Debye):
    X=             -2.0932    Y=             -1.0418    Z=              0.0000  Tot=              2.3382
 Quadrupole moment (field-independent basis, Debye-Ang):
   XX=             -9.3719   YY=             17.0034   ZZ=            -14.9878
   XY=             -6.0684   XZ=              0.0000   YZ=              0.0000

 MP4DQ=-33.8910426\MP4SDQ=-33.8930717\CCSD=-33.894128\CCSD(T)=-33.89669
 Normal termination of Gaussian 16 at Sun Dec 10 07:05:09 2023.
