 Gaussian 16, Revision A.03,
 Gaussian 16:  ES64L-G16RevA.03 25-Dec-2016

 ------------------
 #p CCSD(T)/CEP-31G
 ------------------

 ------------
 H2O_H2O_2514
 ------------
 Symbolic Z-matrix:
 Charge =  0 Multiplicity = 1

                         Standard orientation:
 ---------------------------------------------------------------------
 Center     Atomic      Atomic             Coordinates (Angstroms)
 Number     Number       Type             X           Y           Z
 ---------------------------------------------------------------------
      1          8           0        0.045352   -2.109008    0.000000
      2          1           0       -0.755263   -2.678676    0.000000
      3          1           0        0.843876   -2.681602    0.000000
      4          8           0        0.045352    2.153532    0.000000
      5          1           0        0.080788    3.135494    0.000000
      6          1           0       -0.895029    1.868593    0.000000
 ---------------------------------------------------------------------

 SCF Done:  E(RHF) =  -33.6499473088     A.U. after   11 cycles
 E2 =    -0.2285639133D+00 EUMP2 =    -0.33878511222084D+02
 CCSD(T)
 CCSD(T)= -0.33895566574D+02

 The electronic state is 1-A'.
 Alpha  occ. eigenvalues --   -1.34969  -1.34208  -0.70598  -0.69803  -0.54603
 Alpha  occ. eigenvalues --   -0.53823  -0.49513  -0.48756
 Alpha virt. eigenvalues --    0.20514   0.21638   0.30918   0.31684   0.80955
 Alpha virt. eigenvalues --    0.81279   0.81865   0.85810   0.87311   0.90753
 Alpha virt. eigenvalues --    1.17855   1.18651   1.22298   1.23139   2.57891

 Mulliken charges:
               1
     1  O   -0.734804
     2  H    0.363990
     3  H    0.370891
     4  O   -0.732801
     5  H    0.360961
     6  H    0.371764
 Sum of Mulliken charges =  -0.00000

 Dipole moment (field-independent basis, Debye):
    X=             -2.0759    Y=             -1.0657    Z=              0.0000  Tot=              2.3334
 Quadrupole moment (field-independent basis, Debye-Ang):
   XX=             -9.3783   YY=              7.1981   ZZ=            -14.9871
   XY=             -3.7463   XZ=              0.0000   YZ=              0.0000

 4DQ=-33.8899029\MP4SDQ=-33.8919396\CCSD=-33.892994\CCSD(T)=-33.8955666
 Normal termination of Gaussian 16 at Sun Dec 10 06:24:59 2023.
