 Gaussian 16, Revision A.03,
 Gaussian 16:  ES64L-G16RevA.03 25-Dec-2016

 ------------------
 #p CCSD(T)/CEP-31G
 ------------------

 ------------
 H2O_H2O_3002
 ------------
 Symbolic Z-matrix:
 Charge =  0 Multiplicity = 1

                         Standard orientation:
 ---------------------------------------------------------------------
 Center     Atomic      Atomic             Coordinates (Angstroms)
 Number     Number       Type             X           Y           Z
 ---------------------------------------------------------------------
      1          8           0        0.007455   -2.398579    0.000000
      2          1           0       -0.792269   -2.969498    0.000000
      3          1           0        0.806873   -2.969925    0.000000
      4          8           0        0.007455    2.399553    0.000000
      5          1           0        0.725817    3.069972    0.000000
      6          1           0       -0.859701    2.861666    0.000000
 ---------------------------------------------------------------------

 SCF Done:  E(RHF) =  -33.6490798510     A.U. after   11 cycles
 E2 =    -0.2285356082D+00 EUMP2 =    -0.33877615459150D+02
 CCSD(T)
 CCSD(T)= -0.33894693958D+02

 The electronic state is 1-A'.
 Alpha  occ. eigenvalues --   -1.34568  -1.34555  -0.70191  -0.70178  -0.54180
 Alpha  occ. eigenvalues --   -0.54098  -0.49100  -0.49085
 Alpha virt. eigenvalues --    0.20991   0.21134   0.31273   0.31306   0.81399
 Alpha virt. eigenvalues --    0.81519   0.83662   0.85887   0.87620   0.87888
 Alpha virt. eigenvalues --    1.18221   1.18233   1.22689   1.22729   2.58300

 Mulliken charges:
               1
     1  O   -0.731658
     2  H    0.365412
     3  H    0.366246
     4  O   -0.731617
     5  H    0.365275
     6  H    0.366341
 Sum of Mulliken charges =   0.00000

 Dipole moment (field-independent basis, Debye):
    X=             -0.3426    Y=             -0.0231    Z=              0.0000  Tot=              0.3434
 Quadrupole moment (field-independent basis, Debye-Ang):
   XX=             -8.0982   YY=             13.2727   ZZ=            -14.9853
   XY=             -0.6023   XZ=              0.0000   YZ=              0.0000

 DQ=-33.8890278\MP4SDQ=-33.8910632\CCSD=-33.8921228\CCSD(T)=-33.894694\
 Normal termination of Gaussian 16 at Sun Dec 10 06:33:59 2023.
