 Gaussian 16, Revision A.03,
 Gaussian 16:  ES64L-G16RevA.03 25-Dec-2016

 ------------------
 #p CCSD(T)/CEP-31G
 ------------------

 -----------
 H2O_H2O_539
 -----------
 Symbolic Z-matrix:
 Charge =  0 Multiplicity = 1

                         Standard orientation:
 ---------------------------------------------------------------------
 Center     Atomic      Atomic             Coordinates (Angstroms)
 Number     Number       Type             X           Y           Z
 ---------------------------------------------------------------------
      1          8           0        0.045391   -1.058715    0.000000
      2          1           0       -0.756235   -1.626958    0.000000
      3          1           0        0.842896   -1.632729    0.000000
      4          8           0        0.045391    1.103078    0.000000
      5          1           0        0.082574    2.084976    0.000000
      6          1           0       -0.895495    0.819811    0.000000
 ---------------------------------------------------------------------

 SCF Done:  E(RHF) =  -33.6204779897     A.U. after   11 cycles
 E2 =    -0.2313758565D+00 EUMP2 =    -0.33851853846249D+02
 CCSD(T)
 CCSD(T)= -0.33869169371D+02

 The electronic state is 1-A'.
 Alpha  occ. eigenvalues --   -1.34397  -1.31158  -0.70024  -0.67700  -0.55645
 Alpha  occ. eigenvalues --   -0.49126  -0.46904  -0.45271
 Alpha virt. eigenvalues --    0.20282   0.26349   0.31534   0.33414   0.79036
 Alpha virt. eigenvalues --    0.84181   0.89732   0.96105   0.99059   1.14332
 Alpha virt. eigenvalues --    1.18981   1.22814   1.24622   1.31638   2.55705

 Mulliken charges:
               1
     1  O   -0.749333
     2  H    0.348481
     3  H    0.384288
     4  O   -0.676682
     5  H    0.337560
     6  H    0.355686
 Sum of Mulliken charges =  -0.00000

 Dipole moment (field-independent basis, Debye):
    X=             -1.8470    Y=             -1.0886    Z=              0.0000  Tot=              2.1440
 Quadrupole moment (field-independent basis, Debye-Ang):
   XX=             -9.4614   YY=             -3.2440   ZZ=            -14.9971
   XY=             -1.6659   XZ=              0.0000   YZ=              0.0000

 P4DQ=-33.8630594\MP4SDQ=-33.8652992\CCSD=-33.8663163\CCSD(T)=-33.86916
 Normal termination of Gaussian 16 at Sun Dec 10 06:34:50 2023.
