 Gaussian 16, Revision A.03,
 Gaussian 16:  ES64L-G16RevA.03 25-Dec-2016

 ------------------
 #p CCSD(T)/CEP-31G
 ------------------

 -----------
 H2O_H2O_589
 -----------
 Symbolic Z-matrix:
 Charge =  0 Multiplicity = 1

                         Standard orientation:
 ---------------------------------------------------------------------
 Center     Atomic      Atomic             Coordinates (Angstroms)
 Number     Number       Type             X           Y           Z
 ---------------------------------------------------------------------
      1          8           0        0.045389   -1.085303    0.000000
      2          1           0       -0.756188   -1.653616    0.000000
      3          1           0        0.842944   -1.659248    0.000000
      4          8           0        0.045389    1.129674    0.000000
      5          1           0        0.082487    2.111574    0.000000
      6          1           0       -0.895472    0.846325    0.000000
 ---------------------------------------------------------------------

 SCF Done:  E(RHF) =  -33.6248804358     A.U. after   11 cycles
 E2 =    -0.2311204948D+00 EUMP2 =    -0.33856000930556D+02
 CCSD(T)
 CCSD(T)= -0.33873332112D+02

 The electronic state is 1-A'.
 Alpha  occ. eigenvalues --   -1.34302  -1.31326  -0.69926  -0.67686  -0.55467
 Alpha  occ. eigenvalues --   -0.49019  -0.47490  -0.45473
 Alpha virt. eigenvalues --    0.20283   0.26127   0.31552   0.33371   0.78873
 Alpha virt. eigenvalues --    0.84030   0.89595   0.95420   0.98487   1.14273
 Alpha virt. eigenvalues --    1.18957   1.22528   1.24346   1.31442   2.56149

 Mulliken charges:
               1
     1  O   -0.746393
     2  H    0.348747
     3  H    0.382894
     4  O   -0.680263
     5  H    0.338241
     6  H    0.356774
 Sum of Mulliken charges =  -0.00000

 Dipole moment (field-independent basis, Debye):
    X=             -1.8650    Y=             -1.0906    Z=              0.0000  Tot=              2.1605
 Quadrupole moment (field-independent basis, Debye-Ang):
   XX=             -9.4563   YY=             -2.8862   ZZ=            -14.9968
   XY=             -1.7189   XZ=              0.0000   YZ=              0.0000

 Q=-33.8672575\MP4SDQ=-33.869478\CCSD=-33.8705076\CCSD(T)=-33.8733321\R
 Normal termination of Gaussian 16 at Sun Dec 10 06:35:45 2023.
