 Gaussian 16, Revision A.03,
 Gaussian 16:  ES64L-G16RevA.03 25-Dec-2016

 ------------------
 #p CCSD(T)/CEP-31G
 ------------------

 ------------
 H2O_H2O_3386
 ------------
 Symbolic Z-matrix:
 Charge =  0 Multiplicity = 1

                         Standard orientation:
 ---------------------------------------------------------------------
 Center     Atomic      Atomic             Coordinates (Angstroms)
 Number     Number       Type             X           Y           Z
 ---------------------------------------------------------------------
      1          8           0        0.037675   -2.583202    0.000000
      2          1           0       -0.762608   -3.153336    0.000000
      3          1           0        0.836533   -3.155332    0.000000
      4          8           0        0.037675    2.611455    0.000000
      5          1           0        0.263445    3.567768    0.000000
      6          1           0       -0.940170    2.514881    0.000000
 ---------------------------------------------------------------------

 SCF Done:  E(RHF) =  -33.6503289875     A.U. after   11 cycles
 E2 =    -0.2284757177D+00 EUMP2 =    -0.33878804705179D+02
 CCSD(T)
 CCSD(T)= -0.33895847255D+02

 The electronic state is 1-A'.
 Alpha  occ. eigenvalues --   -1.34991  -1.34673  -0.70618  -0.70289  -0.54643
 Alpha  occ. eigenvalues --   -0.54324  -0.49540  -0.49223
 Alpha virt. eigenvalues --    0.20694   0.21029   0.30933   0.31241   0.81012
 Alpha virt. eigenvalues --    0.81325   0.83979   0.84670   0.87231   0.87653
 Alpha virt. eigenvalues --    1.17849   1.18163   1.22320   1.22636   2.57900

 Mulliken charges:
               1
     1  O   -0.736018
     2  H    0.366328
     3  H    0.369691
     4  O   -0.735386
     5  H    0.365166
     6  H    0.370220
 Sum of Mulliken charges =   0.00000

 Dipole moment (field-independent basis, Debye):
    X=             -1.7341    Y=             -0.6660    Z=              0.0000  Tot=              1.8576
 Quadrupole moment (field-independent basis, Debye-Ang):
   XX=             -8.9643   YY=             12.8858   ZZ=            -14.9868
   XY=             -3.7057   XZ=              0.0000   YZ=              0.0000

 P4DQ=-33.8901914\MP4SDQ=-33.8922233\CCSD=-33.8932806\CCSD(T)=-33.89584
 Normal termination of Gaussian 16 at Sun Dec 10 06:40:49 2023.
