 Gaussian 16, Revision A.03,
 Gaussian 16:  ES64L-G16RevA.03 25-Dec-2016

 ------------------
 #p CCSD(T)/CEP-31G
 ------------------

 -----------
 H2O_H2O_450
 -----------
 Symbolic Z-matrix:
 Charge =  0 Multiplicity = 1

                         Standard orientation:
 ---------------------------------------------------------------------
 Center     Atomic      Atomic             Coordinates (Angstroms)
 Number     Number       Type             X           Y           Z
 ---------------------------------------------------------------------
      1          8           0       -0.000000    0.000000    1.042925
      2          1           0       -0.000000   -0.799571    1.614057
      3          1           0        0.000000    0.799571    1.614057
      4          8           0        0.000000   -0.000000   -1.042925
      5          1           0        0.000000    0.799571   -1.614057
      6          1           0        0.000000   -0.799571   -1.614057
 ---------------------------------------------------------------------

 SCF Done:  E(RHF) =  -33.6017652063     A.U. after   10 cycles
 E2 =    -0.2318516336D+00 EUMP2 =    -0.33833616839942D+02
 CCSD(T)
 CCSD(T)= -0.33850832746D+02

 The electronic state is 1-AG.
 Alpha  occ. eigenvalues --   -1.32939  -1.30678  -0.68139  -0.66548  -0.57986
 Alpha  occ. eigenvalues --   -0.47862  -0.44340  -0.42318
 Alpha virt. eigenvalues --    0.21600   0.25702   0.32905   0.33387   0.78114
 Alpha virt. eigenvalues --    0.80570   0.90230   0.96607   1.02815   1.20176
 Alpha virt. eigenvalues --    1.20460   1.23008   1.23176   1.27278   2.49206

 Mulliken charges:
               1
     1  O   -0.697460
     2  H    0.348730
     3  H    0.348730
     4  O   -0.697460
     5  H    0.348730
     6  H    0.348730
 Sum of Mulliken charges =  -0.00000

 Dipole moment (field-independent basis, Debye):
    X=              0.0000    Y=             -0.0000    Z=              0.0000  Tot=              0.0000
 Quadrupole moment (field-independent basis, Debye-Ang):
   XX=            -15.0224   YY=             -8.3217   ZZ=             -3.1093
   XY=             -0.0000   XZ=             -0.0000   YZ=             -0.0000

 3.844682\MP4SDQ=-33.8469\CCSD=-33.8479201\CCSD(T)=-33.8508327\RMSD=2.5
 Normal termination of Gaussian 16 at Sun Dec 10 06:33:11 2023.
