 Gaussian 16, Revision A.03,
 Gaussian 16:  ES64L-G16RevA.03 25-Dec-2016

 ------------------
 #p CCSD(T)/CEP-31G
 ------------------

 -----------
 H2O_H2O_796
 -----------
 Symbolic Z-matrix:
 Charge =  0 Multiplicity = 1

                         Standard orientation:
 ---------------------------------------------------------------------
 Center     Atomic      Atomic             Coordinates (Angstroms)
 Number     Number       Type             X           Y           Z
 ---------------------------------------------------------------------
      1          8           0        0.056198   -1.166076    0.000000
      2          1           0       -0.745639   -1.734022    0.000000
      3          1           0        0.853490   -1.740386    0.000000
      4          8           0        0.056198    1.257572    0.000000
      5          1           0       -0.344404    2.154804    0.000000
      6          1           0       -0.662620    0.587642    0.000000
 ---------------------------------------------------------------------

 SCF Done:  E(RHF) =  -33.6428343259     A.U. after   11 cycles
 E2 =    -0.2303935783D+00 EUMP2 =    -0.33873227904140D+02
 CCSD(T)
 CCSD(T)= -0.33890178819D+02

 The electronic state is 1-A'.
 Alpha  occ. eigenvalues --   -1.36373  -1.31223  -0.72073  -0.68211  -0.54746
 Alpha  occ. eigenvalues --   -0.50967  -0.50949  -0.45738
 Alpha virt. eigenvalues --    0.19168   0.26713   0.29852   0.35533   0.77090
 Alpha virt. eigenvalues --    0.83188   0.88671   0.90223   0.96977   1.13454
 Alpha virt. eigenvalues --    1.19545   1.19857   1.24629   1.30792   2.70922

 Mulliken charges:
               1
     1  O   -0.769247
     2  H    0.363108
     3  H    0.403955
     4  O   -0.713717
     5  H    0.330676
     6  H    0.385224
 Sum of Mulliken charges =  -0.00000

 Dipole moment (field-independent basis, Debye):
    X=             -2.3783    Y=             -2.3930    Z=              0.0000  Tot=              3.3739
 Quadrupole moment (field-independent basis, Debye-Ang):
   XX=            -10.0513   YY=             -3.5919   ZZ=            -15.0030
   XY=             -3.1369   XZ=              0.0000   YZ=              0.0000

 \MP4DQ=-33.8841867\MP4SDQ=-33.8863872\CCSD=-33.8873702\CCSD(T)=-33.890
 Normal termination of Gaussian 16 at Sun Dec 10 06:39:37 2023.
