 Gaussian 16, Revision A.03,
 Gaussian 16:  ES64L-G16RevA.03 25-Dec-2016

 ------------------
 #p CCSD(T)/CEP-31G
 ------------------

 -----------
 H2O_H2O_623
 -----------
 Symbolic Z-matrix:
 Charge =  0 Multiplicity = 1

                         Standard orientation:
 ---------------------------------------------------------------------
 Center     Atomic      Atomic             Coordinates (Angstroms)
 Number     Number       Type             X           Y           Z
 ---------------------------------------------------------------------
      1          8           0        0.057225   -1.064989    0.000000
      2          1           0       -0.744845   -1.632608    0.000000
      3          1           0        0.854282   -1.639624    0.000000
      4          8           0        0.057225    1.171244    0.000000
      5          1           0       -0.456721    2.008720    0.000000
      6          1           0       -0.568310    0.413475    0.000000
 ---------------------------------------------------------------------

 SCF Done:  E(RHF) =  -33.6313086626     A.U. after   11 cycles
 E2 =    -0.2308621649D+00 EUMP2 =    -0.33862170827483D+02
 CCSD(T)
 CCSD(T)= -0.33878624324D+02

 The electronic state is 1-A'.
 Alpha  occ. eigenvalues --   -1.37910  -1.30180  -0.73711  -0.69552  -0.53628
 Alpha  occ. eigenvalues --   -0.52332  -0.50267  -0.44667
 Alpha virt. eigenvalues --    0.18744   0.27941   0.28883   0.37695   0.76629
 Alpha virt. eigenvalues --    0.84347   0.89638   0.92008   0.98464   1.13396
 Alpha virt. eigenvalues --    1.18807   1.19734   1.27331   1.31316   2.77826

 Mulliken charges:
               1
     1  O   -0.790788
     2  H    0.370749
     3  H    0.425357
     4  O   -0.712474
     5  H    0.320047
     6  H    0.387109
 Sum of Mulliken charges =   0.00000

 Dipole moment (field-independent basis, Debye):
    X=             -2.3481    Y=             -2.9087    Z=              0.0000  Tot=              3.7381
 Quadrupole moment (field-independent basis, Debye-Ang):
   XX=            -10.1044   YY=             -5.2578   ZZ=            -15.0029
   XY=             -3.1726   XZ=              0.0000   YZ=              0.0000

 \MP4DQ=-33.8725135\MP4SDQ=-33.8747803\CCSD=-33.8756701\CCSD(T)=-33.878
 Normal termination of Gaussian 16 at Sun Dec 10 06:36:23 2023.
