 Gaussian 16, Revision A.03,
 Gaussian 16:  ES64L-G16RevA.03 25-Dec-2016

 ------------------
 #p CCSD(T)/CEP-31G
 ------------------

 -----------
 H2O_H2O_750
 -----------
 Symbolic Z-matrix:
 Charge =  0 Multiplicity = 1

                         Standard orientation:
 ---------------------------------------------------------------------
 Center     Atomic      Atomic             Coordinates (Angstroms)
 Number     Number       Type             X           Y           Z
 ---------------------------------------------------------------------
      1          8           0       -0.000000   -0.000000   -1.202476
      2          1           0        0.000000   -0.799571   -1.773608
      3          1           0        0.000000    0.799571   -1.773608
      4          8           0       -0.000000    0.000000    1.202476
      5          1           0        0.000000    0.799571    1.773608
      6          1           0       -0.000000   -0.799571    1.773608
 ---------------------------------------------------------------------

 SCF Done:  E(RHF) =  -33.6262821991     A.U. after   10 cycles
 E2 =    -0.2302972559D+00 EUMP2 =    -0.33856579455032D+02
 CCSD(T)
 CCSD(T)= -0.33873986795D+02

 The electronic state is 1-AG.
 Alpha  occ. eigenvalues --   -1.32693  -1.31764  -0.68169  -0.67477  -0.55267
 Alpha  occ. eigenvalues --   -0.47451  -0.46681  -0.45682
 Alpha virt. eigenvalues --    0.21566   0.24449   0.32777   0.33055   0.78663
 Alpha virt. eigenvalues --    0.79623   0.89307   0.92338   1.04364   1.10582
 Alpha virt. eigenvalues --    1.19803   1.21695   1.24108   1.25765   2.54111

 Mulliken charges:
               1
     1  O   -0.698333
     2  H    0.349167
     3  H    0.349167
     4  O   -0.698333
     5  H    0.349167
     6  H    0.349167
 Sum of Mulliken charges =  -0.00000

 Dipole moment (field-independent basis, Debye):
    X=              0.0000    Y=             -0.0000    Z=              0.0000  Tot=              0.0000
 Quadrupole moment (field-independent basis, Debye-Ang):
   XX=            -15.0007   YY=             -8.2620   ZZ=             -0.5897
   XY=              0.0000   XZ=             -0.0000   YZ=              0.0000

 33.8680288\MP4SDQ=-33.8701462\CCSD=-33.8712347\CCSD(T)=-33.8739868\RMS
 Normal termination of Gaussian 16 at Sun Dec 10 06:38:46 2023.
