 Gaussian 16, Revision A.03,
 Gaussian 16:  ES64L-G16RevA.03 25-Dec-2016

 ------------------
 #p CCSD(T)/CEP-31G
 ------------------

 ------------
 H2O_H2O_1479
 ------------
 Symbolic Z-matrix:
 Charge =  0 Multiplicity = 1

                         Standard orientation:
 ---------------------------------------------------------------------
 Center     Atomic      Atomic             Coordinates (Angstroms)
 Number     Number       Type             X           Y           Z
 ---------------------------------------------------------------------
      1          8           0        0.014784   -1.585956    0.000000
      2          1           0       -0.785245   -2.156447    0.000000
      3          1           0        0.813897   -2.157729    0.000000
      4          8           0        0.014784    1.589825    0.000000
      5          1           0        0.639898    2.347940    0.000000
      6          1           0       -0.905087    1.935289    0.000000
 ---------------------------------------------------------------------

 SCF Done:  E(RHF) =  -33.6426734342     A.U. after   11 cycles
 E2 =    -0.2290892465D+00 EUMP2 =    -0.33871762680618D+02
 CCSD(T)
 CCSD(T)= -0.33889066675D+02

 The electronic state is 1-A'.
 Alpha  occ. eigenvalues --   -1.33518  -1.33354  -0.69131  -0.68967  -0.53665
 Alpha  occ. eigenvalues --   -0.51628  -0.48075  -0.47695
 Alpha virt. eigenvalues --    0.21142   0.22711   0.31954   0.32281   0.76888
 Alpha virt. eigenvalues --    0.80280   0.83632   0.85099   0.94783   1.06164
 Alpha virt. eigenvalues --    1.19037   1.19400   1.23551   1.23985   2.59768

 Mulliken charges:
               1
     1  O   -0.712999
     2  H    0.353988
     3  H    0.358984
     4  O   -0.711888
     5  H    0.353497
     6  H    0.358418
 Sum of Mulliken charges =   0.00000

 Dipole moment (field-independent basis, Debye):
    X=             -0.6649    Y=             -0.0965    Z=              0.0000  Tot=              0.6718
 Quadrupole moment (field-independent basis, Debye-Ang):
   XX=             -8.2927   YY=              4.2101   ZZ=            -14.9838
   XY=             -0.6920   XZ=              0.0000   YZ=              0.0000

 \MP4DQ=-33.8832895\MP4SDQ=-33.8853723\CCSD=-33.8864422\CCSD(T)=-33.889
 Normal termination of Gaussian 16 at Sun Dec 10 06:52:23 2023.
