 Gaussian 16, Revision A.03,
 Gaussian 16:  ES64L-G16RevA.03 25-Dec-2016

 ------------------
 #p CCSD(T)/CEP-31G
 ------------------

 ------------
 H2O_H2O_1300
 ------------
 Symbolic Z-matrix:
 Charge =  0 Multiplicity = 1

                         Standard orientation:
 ---------------------------------------------------------------------
 Center     Atomic      Atomic             Coordinates (Angstroms)
 Number     Number       Type             X           Y           Z
 ---------------------------------------------------------------------
      1          8           0        0.000000   -0.000000    1.494986
      2          1           0        0.000000    0.799571    2.066118
      3          1           0       -0.000000   -0.799571    2.066118
      4          8           0        0.000000   -0.000000   -1.494986
      5          1           0       -0.000000   -0.799571   -2.066118
      6          1           0        0.000000    0.799571   -2.066118
 ---------------------------------------------------------------------

 SCF Done:  E(RHF) =  -33.6402054974     A.U. after   10 cycles
 E2 =    -0.2292391758D+00 EUMP2 =    -0.33869444673147D+02
 CCSD(T)
 CCSD(T)= -0.33886812164D+02

 The electronic state is 1-AG.
 Alpha  occ. eigenvalues --   -1.33246  -1.33055  -0.68844  -0.68683  -0.53712
 Alpha  occ. eigenvalues --   -0.50787  -0.47834  -0.47306
 Alpha virt. eigenvalues --    0.21311   0.23002   0.32110   0.32510   0.78732
 Alpha virt. eigenvalues --    0.79973   0.82251   0.86117   0.98163   1.07378
 Alpha virt. eigenvalues --    1.19251   1.19705   1.23853   1.24284   2.59640

 Mulliken charges:
               1
     1  O   -0.707607
     2  H    0.353803
     3  H    0.353803
     4  O   -0.707607
     5  H    0.353803
     6  H    0.353803
 Sum of Mulliken charges =  -0.00000

 Dipole moment (field-independent basis, Debye):
    X=             -0.0000    Y=              0.0000    Z=             -0.0000  Tot=              0.0000
 Quadrupole moment (field-independent basis, Debye-Ang):
   XX=            -14.9847   YY=             -8.1833   ZZ=              3.2586
   XY=              0.0000   XZ=             -0.0000   YZ=             -0.0000

 -33.8810027\MP4SDQ=-33.8830902\CCSD=-33.8841709\CCSD(T)=-33.8868122\RM
 Normal termination of Gaussian 16 at Sun Dec 10 06:49:03 2023.
