 Gaussian 16, Revision A.03,
 Gaussian 16:  ES64L-G16RevA.03 25-Dec-2016

 ------------------
 #p CCSD(T)/CEP-31G
 ------------------

 ------------
 H2O_H2O_2404
 ------------
 Symbolic Z-matrix:
 Charge =  0 Multiplicity = 1

                         Standard orientation:
 ---------------------------------------------------------------------
 Center     Atomic      Atomic             Coordinates (Angstroms)
 Number     Number       Type             X           Y           Z
 ---------------------------------------------------------------------
      1          8           0        0.014783   -2.077902    0.000000
      2          1           0       -0.785137   -2.648545    0.000000
      3          1           0        0.814005   -2.649523    0.000000
      4          8           0        0.014783    2.081776    0.000000
      5          1           0        0.639754    2.840010    0.000000
      6          1           0       -0.905153    2.427066    0.000000
 ---------------------------------------------------------------------

 SCF Done:  E(RHF) =  -33.6478217938     A.U. after   11 cycles
 E2 =    -0.2286413489D+00 EUMP2 =    -0.33876463142670D+02
 CCSD(T)
 CCSD(T)= -0.33893579365D+02

 The electronic state is 1-A'.
 Alpha  occ. eigenvalues --   -1.34300  -1.34231  -0.69922  -0.69849  -0.53927
 Alpha  occ. eigenvalues --   -0.53597  -0.48819  -0.48739
 Alpha virt. eigenvalues --    0.21034   0.21541   0.31457   0.31577   0.80968
 Alpha virt. eigenvalues --    0.81421   0.82113   0.87106   0.88603   0.90510
 Alpha virt. eigenvalues --    1.18438   1.18506   1.22891   1.23054   2.58331

 Mulliken charges:
               1
     1  O   -0.727417
     2  H    0.362497
     3  H    0.364930
     4  O   -0.727116
     5  H    0.362051
     6  H    0.365054
 Sum of Mulliken charges =   0.00000

 Dipole moment (field-independent basis, Debye):
    X=             -0.6765    Y=             -0.0931    Z=              0.0000  Tot=              0.6829
 Quadrupole moment (field-independent basis, Debye-Ang):
   XX=             -8.2225   YY=              9.6328   ZZ=            -14.9845
   XY=             -0.9999   XZ=              0.0000   YZ=              0.0000

 P4DQ=-33.887898\MP4SDQ=-33.8899405\CCSD=-33.891\CCSD(T)=-33.8935794\RM
 Normal termination of Gaussian 16 at Sun Dec 10 07:10:40 2023.
