 Gaussian 16, Revision A.03,
 Gaussian 16:  ES64L-G16RevA.03 25-Dec-2016

 ------------------
 #p CCSD(T)/CEP-31G
 ------------------

 -----------
 H2O_H2O_769
 -----------
 Symbolic Z-matrix:
 Charge =  0 Multiplicity = 1

                         Standard orientation:
 ---------------------------------------------------------------------
 Center     Atomic      Atomic             Coordinates (Angstroms)
 Number     Number       Type             X           Y           Z
 ---------------------------------------------------------------------
      1          8           0        0.054232   -1.160605    0.000000
      2          1           0       -0.747550   -1.728628    0.000000
      3          1           0        0.851580   -1.734836    0.000000
      4          8           0        0.054232    1.237694    0.000000
      5          1           0       -0.225922    2.179511    0.000000
      6          1           0       -0.745824    0.667241    0.000000
 ---------------------------------------------------------------------

 SCF Done:  E(RHF) =  -33.6398720057     A.U. after   11 cycles
 E2 =    -0.2305210339D+00 EUMP2 =    -0.33870393039614D+02
 CCSD(T)
 CCSD(T)= -0.33887514840D+02

 The electronic state is 1-A'.
 Alpha  occ. eigenvalues --   -1.35655  -1.31426  -0.71350  -0.68024  -0.54586
 Alpha  occ. eigenvalues --   -0.50610  -0.50244  -0.45884
 Alpha virt. eigenvalues --    0.19497   0.26381   0.30404   0.34501   0.77571
 Alpha virt. eigenvalues --    0.83757   0.88784   0.91772   0.95751   1.14502
 Alpha virt. eigenvalues --    1.19357   1.20830   1.24082   1.30676   2.67746

 Mulliken charges:
               1
     1  O   -0.760448
     2  H    0.358267
     3  H    0.395830
     4  O   -0.703007
     5  H    0.332285
     6  H    0.377073
 Sum of Mulliken charges =   0.00000

 Dipole moment (field-independent basis, Debye):
    X=             -2.2896    Y=             -1.9793    Z=              0.0000  Tot=              3.0265
 Quadrupole moment (field-independent basis, Debye-Ang):
   XX=             -9.9322   YY=             -3.0251   ZZ=            -14.9992
   XY=             -2.7683   XZ=              0.0000   YZ=              0.0000

 DQ=-33.8815178\MP4SDQ=-33.8837164\CCSD=-33.8847237\CCSD(T)=-33.8875148
 Normal termination of Gaussian 16 at Sun Dec 10 06:39:07 2023.
