 Gaussian 16, Revision A.03,
 Gaussian 16:  ES64L-G16RevA.03 25-Dec-2016

 ------------------
 #p CCSD(T)/CEP-31G
 ------------------

 ------------
 H2O_H2O_1227
 ------------
 Symbolic Z-matrix:
 Charge =  0 Multiplicity = 1

                         Standard orientation:
 ---------------------------------------------------------------------
 Center     Atomic      Atomic             Coordinates (Angstroms)
 Number     Number       Type             X           Y           Z
 ---------------------------------------------------------------------
      1          8           0        0.007455   -1.454571    0.000000
      2          1           0       -0.792368   -2.025351    0.000000
      3          1           0        0.806774   -2.026056    0.000000
      4          8           0        0.007455    1.455542    0.000000
      5          1           0        0.725934    2.125836    0.000000
      6          1           0       -0.859620    1.917805    0.000000
 ---------------------------------------------------------------------

 SCF Done:  E(RHF) =  -33.6392767454     A.U. after   11 cycles
 E2 =    -0.2293260193D+00 EUMP2 =    -0.33868602764682D+02
 CCSD(T)
 CCSD(T)= -0.33885989981D+02

 The electronic state is 1-A'.
 Alpha  occ. eigenvalues --   -1.33171  -1.32931  -0.68763  -0.68562  -0.53798
 Alpha  occ. eigenvalues --   -0.50439  -0.47773  -0.47151
 Alpha virt. eigenvalues --    0.21324   0.23166   0.32194   0.32565   0.79718
 Alpha virt. eigenvalues --    0.79813   0.81748   0.86552   0.99093   1.08511
 Alpha virt. eigenvalues --    1.19307   1.19964   1.24023   1.24310   2.59274

 Mulliken charges:
               1
     1  O   -0.706483
     2  H    0.351612
     3  H    0.354815
     4  O   -0.705995
     5  H    0.351904
     6  H    0.354147
 Sum of Mulliken charges =   0.00000

 Dipole moment (field-independent basis, Debye):
    X=             -0.3310    Y=             -0.0241    Z=              0.0000  Tot=              0.3319
 Quadrupole moment (field-independent basis, Debye-Ang):
   XX=             -8.2261   YY=              2.7368   ZZ=            -14.9856
   XY=             -0.3011   XZ=              0.0000   YZ=              0.0000

 DQ=-33.8801658\MP4SDQ=-33.8822563\CCSD=-33.8833405\CCSD(T)=-33.88599\R
 Normal termination of Gaussian 16 at Sun Dec 10 06:47:42 2023.
