 Gaussian 16, Revision A.03,
 Gaussian 16:  ES64L-G16RevA.03 25-Dec-2016

 ------------------
 #p CCSD(T)/CEP-31G
 ------------------

 ----------
 H2O_H2O_37
 ----------
 Symbolic Z-matrix:
 Charge =  0 Multiplicity = 1

                         Standard orientation:
 ---------------------------------------------------------------------
 Center     Atomic      Atomic             Coordinates (Angstroms)
 Number     Number       Type             X           Y           Z
 ---------------------------------------------------------------------
      1          8           0        0.040456   -0.798907    0.000000
      2          1           0       -0.761542   -1.366625    0.000000
      3          1           0        0.837585   -1.373442    0.000000
      4          8           0        0.040456    0.832018    0.000000
      5          1           0        0.206118    1.800554    0.000000
      6          1           0       -0.929458    0.674621    0.000000
 ---------------------------------------------------------------------

 SCF Done:  E(RHF) =  -33.4802349098     A.U. after   12 cycles
 E2 =    -0.2381866583D+00 EUMP2 =    -0.33718421568116D+02
 CCSD(T)
 CCSD(T)= -0.33735061585D+02

 The electronic state is 1-A'.
 Alpha  occ. eigenvalues --   -1.39236  -1.28744  -0.74090  -0.69789  -0.59526
 Alpha  occ. eigenvalues --   -0.53154  -0.42747  -0.34367
 Alpha virt. eigenvalues --    0.20129   0.28881   0.31127   0.33483   0.81415
 Alpha virt. eigenvalues --    0.84456   0.88792   0.92828   0.97544   1.20139
 Alpha virt. eigenvalues --    1.21368   1.25299   1.26167   1.40122   2.58299

 Mulliken charges:
               1
     1  O   -0.736961
     2  H    0.331321
     3  H    0.390635
     4  O   -0.645681
     5  H    0.314365
     6  H    0.346321
 Sum of Mulliken charges =  -0.00000

 Dipole moment (field-independent basis, Debye):
    X=             -1.4364    Y=             -0.9059    Z=              0.0000  Tot=              1.6982
 Quadrupole moment (field-independent basis, Debye-Ang):
   XX=             -9.3269   YY=             -8.0874   ZZ=            -14.9434
   XY=             -1.0337   XZ=              0.0000   YZ=              0.0000

 4DQ=-33.7281273\MP4SDQ=-33.7309546\CCSD=-33.7314782\CCSD(T)=-33.735061
 Normal termination of Gaussian 16 at Sun Dec 10 06:25:25 2023.
