 Gaussian 16, Revision A.03,
 Gaussian 16:  ES64L-G16RevA.03 25-Dec-2016

 ------------------
 #p CCSD(T)/CEP-31G
 ------------------

 -----------
 H2O_H2O_992
 -----------
 Symbolic Z-matrix:
 Charge =  0 Multiplicity = 1

                         Standard orientation:
 ---------------------------------------------------------------------
 Center     Atomic      Atomic             Coordinates (Angstroms)
 Number     Number       Type             X           Y           Z
 ---------------------------------------------------------------------
      1          8           0        0.051329   -1.287724    0.000000
      2          1           0       -0.750146   -1.856180    0.000000
      3          1           0        0.848987   -1.861525    0.000000
      4          8           0        0.051329    1.351086    0.000000
      5          1           0       -0.104020    2.321330    0.000000
      6          1           0       -0.816092    0.889474    0.000000
 ---------------------------------------------------------------------

 SCF Done:  E(RHF) =  -33.6446849811     A.U. after   11 cycles
 E2 =    -0.2298885204D+00 EUMP2 =    -0.33874573501497D+02
 CCSD(T)
 CCSD(T)= -0.33891822236D+02

 The electronic state is 1-A'.
 Alpha  occ. eigenvalues --   -1.34956  -1.32168  -0.70609  -0.67966  -0.54727
 Alpha  occ. eigenvalues --   -0.51179  -0.49533  -0.46641
 Alpha virt. eigenvalues --    0.19806   0.25157   0.30910   0.33463   0.78082
 Alpha virt. eigenvalues --    0.81847   0.87388   0.87555   0.92658   1.16260
 Alpha virt. eigenvalues --    1.18873   1.21651   1.22621   1.29257   2.63816

 Mulliken charges:
               1
     1  O   -0.741308
     2  H    0.355250
     3  H    0.382661
     4  O   -0.709593
     5  H    0.339975
     6  H    0.373015
 Sum of Mulliken charges =  -0.00000

 Dipole moment (field-independent basis, Debye):
    X=             -2.2267    Y=             -1.6002    Z=              0.0000  Tot=              2.7420
 Quadrupole moment (field-independent basis, Debye-Ang):
   XX=             -9.7551   YY=             -1.2033   ZZ=            -14.9936
   XY=             -2.6993   XZ=              0.0000   YZ=              0.0000

 P4DQ=-33.8859311\MP4SDQ=-33.8880787\CCSD=-33.8891249\CCSD(T)=-33.89182
 Normal termination of Gaussian 16 at Sun Dec 10 06:43:18 2023.
