 Gaussian 16, Revision A.03,
 Gaussian 16:  ES64L-G16RevA.03 25-Dec-2016

 ------------------
 #p CCSD(T)/CEP-31G
 ------------------

 ------------
 H2O_H2O_1251
 ------------
 Symbolic Z-matrix:
 Charge =  0 Multiplicity = 1

                         Standard orientation:
 ---------------------------------------------------------------------
 Center     Atomic      Atomic             Coordinates (Angstroms)
 Number     Number       Type             X           Y           Z
 ---------------------------------------------------------------------
      1          8           0        0.003735   -1.468263    0.000000
      2          1           0       -0.795961   -2.039219    0.000000
      3          1           0        0.803181   -2.039570    0.000000
      4          8           0        0.003735    1.468506    0.000000
      5          1           0        0.764378    2.090542    0.000000
      6          1           0       -0.831364    1.986302    0.000000
 ---------------------------------------------------------------------

 SCF Done:  E(RHF) =  -33.6395436826     A.U. after   11 cycles
 E2 =    -0.2292945316D+00 EUMP2 =    -0.33868838214179D+02
 CCSD(T)
 CCSD(T)= -0.33886219773D+02

 The electronic state is 1-A'.
 Alpha  occ. eigenvalues --   -1.33189  -1.32969  -0.68784  -0.68599  -0.53762
 Alpha  occ. eigenvalues --   -0.50546  -0.47786  -0.47198
 Alpha virt. eigenvalues --    0.21330   0.23106   0.32165   0.32554   0.79403
 Alpha virt. eigenvalues --    0.79872   0.81884   0.86410   0.98923   1.07957
 Alpha virt. eigenvalues --    1.19294   1.19853   1.23966   1.24318   2.59419

 Mulliken charges:
               1
     1  O   -0.706632
     2  H    0.352526
     3  H    0.354093
     4  O   -0.706516
     5  H    0.352695
     6  H    0.353833
 Sum of Mulliken charges =  -0.00000

 Dipole moment (field-independent basis, Debye):
    X=             -0.1661    Y=             -0.0060    Z=              0.0000  Tot=              0.1662
 Quadrupole moment (field-independent basis, Debye-Ang):
   XX=             -8.1981   YY=              2.9251   ZZ=            -14.9853
   XY=             -0.1522   XZ=              0.0000   YZ=              0.0000

 \MP4DQ=-33.8804006\MP4SDQ=-33.8824898\CCSD=-33.8835731\CCSD(T)=-33.886
 Normal termination of Gaussian 16 at Sun Dec 10 06:48:08 2023.
