 Gaussian 16, Revision A.03,
 Gaussian 16:  ES64L-G16RevA.03 25-Dec-2016

 ------------------
 #p CCSD(T)/CEP-31G
 ------------------

 ------------
 H2O_H2O_3987
 ------------
 Symbolic Z-matrix:
 Charge =  0 Multiplicity = 1

                         Standard orientation:
 ---------------------------------------------------------------------
 Center     Atomic      Atomic             Coordinates (Angstroms)
 Number     Number       Type             X           Y           Z
 ---------------------------------------------------------------------
      1          8           0        0.040405   -2.899531    0.000000
      2          1           0       -0.759846   -3.469709    0.000000
      3          1           0        0.839295   -3.471615    0.000000
      4          8           0        0.040405    2.932890    0.000000
      5          1           0        0.203091    3.901931    0.000000
      6          1           0       -0.929021    2.772515    0.000000
 ---------------------------------------------------------------------

 SCF Done:  E(RHF) =  -33.6508493708     A.U. after   11 cycles
 E2 =    -0.2284386892D+00 EUMP2 =    -0.33879288059984D+02
 CCSD(T)
 CCSD(T)= -0.33896315424D+02

 The electronic state is 1-A'.
 Alpha  occ. eigenvalues --   -1.35155  -1.34859  -0.70784  -0.70479  -0.54837
 Alpha  occ. eigenvalues --   -0.54540  -0.49712  -0.49417
 Alpha virt. eigenvalues --    0.20565   0.20866   0.30799   0.31090   0.80841
 Alpha virt. eigenvalues --    0.81132   0.83952   0.84253   0.87032   0.87380
 Alpha virt. eigenvalues --    1.17707   1.18000   1.22173   1.22468   2.57747

 Mulliken charges:
               1
     1  O   -0.737808
     2  H    0.367599
     3  H    0.370209
     4  O   -0.737400
     5  H    0.366625
     6  H    0.370775
 Sum of Mulliken charges =  -0.00000

 Dipole moment (field-independent basis, Debye):
    X=             -1.8632    Y=             -0.7824    Z=              0.0000  Tot=              2.0208
 Quadrupole moment (field-independent basis, Debye-Ang):
   XX=             -9.0985   YY=             15.3179   ZZ=            -14.9873
   XY=             -4.6249   XZ=              0.0000   YZ=              0.0000

 MP4DQ=-33.8906639\MP4SDQ=-33.8926942\CCSD=-33.893751\CCSD(T)=-33.89631
 Normal termination of Gaussian 16 at Sun Dec 10 06:51:51 2023.
