 Gaussian 16, Revision A.03,
 Gaussian 16:  ES64L-G16RevA.03 25-Dec-2016

 ------------------
 #p CCSD(T)/CEP-31G
 ------------------

 ------------
 H2O_H2O_3977
 ------------
 Symbolic Z-matrix:
 Charge =  0 Multiplicity = 1

                         Standard orientation:
 ---------------------------------------------------------------------
 Center     Atomic      Atomic             Coordinates (Angstroms)
 Number     Number       Type             X           Y           Z
 ---------------------------------------------------------------------
      1          8           0        0.007455   -2.917120    0.000000
      2          1           0       -0.792242   -3.488076    0.000000
      3          1           0        0.806900   -3.488427    0.000000
      4          8           0        0.007455    2.918094    0.000000
      5          1           0        0.725785    3.588547    0.000000
      6          1           0       -0.859723    3.380165    0.000000
 ---------------------------------------------------------------------

 SCF Done:  E(RHF) =  -33.6502827313     A.U. after   11 cycles
 E2 =    -0.2284601676D+00 EUMP2 =    -0.33878742898875D+02
 CCSD(T)
 CCSD(T)= -0.33895786532D+02

 The electronic state is 1-A'.
 Alpha  occ. eigenvalues --   -1.34893  -1.34885  -0.70520  -0.70511  -0.54544
 Alpha  occ. eigenvalues --   -0.54534  -0.49442  -0.49433
 Alpha virt. eigenvalues --    0.20793   0.20806   0.31025   0.31034   0.81111
 Alpha virt. eigenvalues --    0.81121   0.84240   0.84341   0.87335   0.87348
 Alpha virt. eigenvalues --    1.17944   1.17953   1.22415   1.22423   2.57997

 Mulliken charges:
               1
     1  O   -0.735784
     2  H    0.367648
     3  H    0.368136
     4  O   -0.735767
     5  H    0.367551
     6  H    0.368216
 Sum of Mulliken charges =  -0.00000

 Dipole moment (field-independent basis, Debye):
    X=             -0.3438    Y=             -0.0228    Z=              0.0000  Tot=              0.3446
 Quadrupole moment (field-independent basis, Debye-Ang):
   XX=             -8.0795   YY=             18.8296   ZZ=            -14.9864
   XY=             -0.7761   XZ=              0.0000   YZ=              0.0000

 4DQ=-33.8901306\MP4SDQ=-33.8921623\CCSD=-33.8932204\CCSD(T)=-33.895786
 Normal termination of Gaussian 16 at Sun Dec 10 06:51:40 2023.
