 Gaussian 16, Revision A.03,
 Gaussian 16:  ES64L-G16RevA.03 25-Dec-2016

 ------------------
 #p CCSD(T)/CEP-31G
 ------------------

 ------------
 H2O_H2O_2592
 ------------
 Symbolic Z-matrix:
 Charge =  0 Multiplicity = 1

                         Standard orientation:
 ---------------------------------------------------------------------
 Center     Atomic      Atomic             Coordinates (Angstroms)
 Number     Number       Type             X           Y           Z
 ---------------------------------------------------------------------
      1          8           0        0.051288   -2.138591    0.000000
      2          1           0       -0.749442   -2.708098    0.000000
      3          1           0        0.849697   -2.711347    0.000000
      4          8           0        0.051288    2.202088    0.000000
      5          1           0       -0.105333    3.172128    0.000000
      6          1           0       -0.815528    1.739341    0.000000
 ---------------------------------------------------------------------

 SCF Done:  E(RHF) =  -33.6508799221     A.U. after   11 cycles
 E2 =    -0.2285170226D+00 EUMP2 =    -0.33879396944737D+02
 CCSD(T)
 CCSD(T)= -0.33896425036D+02

 The electronic state is 1-A'.
 Alpha  occ. eigenvalues --   -1.35263  -1.34213  -0.70895  -0.69803  -0.54947
 Alpha  occ. eigenvalues --   -0.53881  -0.49820  -0.48774
 Alpha virt. eigenvalues --    0.20261   0.21699   0.30667   0.31752   0.80692
 Alpha virt. eigenvalues --    0.81703   0.81798   0.85536   0.86898   0.89994
 Alpha virt. eigenvalues --    1.17599   1.18714   1.22019   1.23250   2.57623

 Mulliken charges:
               1
     1  O   -0.738017
     2  H    0.365388
     3  H    0.372732
     4  O   -0.736073
     5  H    0.361406
     6  H    0.374565
 Sum of Mulliken charges =  -0.00000

 Dipole moment (field-independent basis, Debye):
    X=             -2.3495    Y=             -1.5179    Z=              0.0000  Tot=              2.7972
 Quadrupole moment (field-independent basis, Debye-Ang):
   XX=             -9.7423   YY=              5.9348   ZZ=            -14.9884
   XY=             -4.6352   XZ=              0.0000   YZ=              0.0000

 MP4DQ=-33.8907689\MP4SDQ=-33.892803\CCSD=-33.8938556\CCSD(T)=-33.89642
 Normal termination of Gaussian 16 at Sun Dec 10 06:26:26 2023.
