 Gaussian 16, Revision A.03,
 Gaussian 16:  ES64L-G16RevA.03 25-Dec-2016

 ------------------
 #p CCSD(T)/CEP-31G
 ------------------

 ------------
 H2O_H2O_1006
 ------------
 Symbolic Z-matrix:
 Charge =  0 Multiplicity = 1

                         Standard orientation:
 ---------------------------------------------------------------------
 Center     Atomic      Atomic             Coordinates (Angstroms)
 Number     Number       Type             X           Y           Z
 ---------------------------------------------------------------------
      1          8           0        0.021862   -1.330746    0.000000
      2          1           0       -0.778513   -1.900750    0.000000
      3          1           0        0.820628   -1.903004    0.000000
      4          8           0        0.021862    1.339379    0.000000
      5          1           0        0.543182    2.172285    0.000000
      6          1           0       -0.935094    1.562403    0.000000
 ---------------------------------------------------------------------

 SCF Done:  E(RHF) =  -33.6363612417     A.U. after   11 cycles
 E2 =    -0.2296862878D+00 EUMP2 =    -0.33866047529495D+02
 CCSD(T)
 CCSD(T)= -0.33883469930D+02

 The electronic state is 1-A'.
 Alpha  occ. eigenvalues --   -1.33090  -1.32516  -0.68667  -0.68155  -0.54279
 Alpha  occ. eigenvalues --   -0.49342  -0.47739  -0.46663
 Alpha virt. eigenvalues --    0.21212   0.23816   0.32369   0.32699   0.79355
 Alpha virt. eigenvalues --    0.80666   0.84030   0.87834   1.00156   1.12400
 Alpha virt. eigenvalues --    1.19379   1.21675   1.24153   1.24810   2.57424

 Mulliken charges:
               1
     1  O   -0.707755
     2  H    0.347450
     3  H    0.359072
     4  O   -0.700907
     5  H    0.348414
     6  H    0.353725
 Sum of Mulliken charges =  -0.00000

 Dipole moment (field-independent basis, Debye):
    X=             -0.9514    Y=             -0.2120    Z=              0.0000  Tot=              0.9748
 Quadrupole moment (field-independent basis, Debye-Ang):
   XX=             -8.5047   YY=              1.0088   ZZ=            -14.9897
   XY=             -0.8190   XZ=              0.0000   YZ=              0.0000

 MP4DQ=-33.8775926\MP4SDQ=-33.8796997\CCSD=-33.8807894\CCSD(T)=-33.8834
 Normal termination of Gaussian 16 at Sun Dec 10 06:43:34 2023.
