 Gaussian 16, Revision A.03,
 Gaussian 16:  ES64L-G16RevA.03 25-Dec-2016

 ------------------
 #p CCSD(T)/CEP-31G
 ------------------

 ------------
 H2O_H2O_1288
 ------------
 Symbolic Z-matrix:
 Charge =  0 Multiplicity = 1

                         Standard orientation:
 ---------------------------------------------------------------------
 Center     Atomic      Atomic             Coordinates (Angstroms)
 Number     Number       Type             X           Y           Z
 ---------------------------------------------------------------------
      1          8           0        0.042988   -1.460672    0.000000
      2          1           0       -0.758007   -2.029805    0.000000
      3          1           0        0.841131   -2.033799    0.000000
      4          8           0        0.042988    1.499369    0.000000
      5          1           0        0.143224    2.476844    0.000000
      6          1           0       -0.914163    1.277183    0.000000
 ---------------------------------------------------------------------

 SCF Done:  E(RHF) =  -33.6449516153     A.U. after   11 cycles
 E2 =    -0.2293390773D+00 EUMP2 =    -0.33874290692600D+02
 CCSD(T)
 CCSD(T)= -0.33891569902D+02

 The electronic state is 1-A'.
 Alpha  occ. eigenvalues --   -1.34276  -1.32924  -0.69906  -0.68501  -0.54231
 Alpha  occ. eigenvalues --   -0.51721  -0.48808  -0.47382
 Alpha virt. eigenvalues --    0.20336   0.23656   0.31431   0.32600   0.77506
 Alpha virt. eigenvalues --    0.79233   0.84050   0.85896   0.92161   1.13833
 Alpha virt. eigenvalues --    1.18337   1.21996   1.22997   1.25249   2.60314

 Mulliken charges:
               1
     1  O   -0.724690
     2  H    0.353517
     3  H    0.370511
     4  O   -0.712529
     5  H    0.346961
     6  H    0.366229
 Sum of Mulliken charges =  -0.00000

 Dipole moment (field-independent basis, Debye):
    X=             -1.9079    Y=             -0.9666    Z=              0.0000  Tot=              2.1388
 Quadrupole moment (field-independent basis, Debye-Ang):
   XX=             -9.2833   YY=              1.5210   ZZ=            -14.9875
   XY=             -2.2502   XZ=              0.0000   YZ=              0.0000

 \MP4DQ=-33.8857643\MP4SDQ=-33.8878708\CCSD=-33.8889315\CCSD(T)=-33.891
 Normal termination of Gaussian 16 at Sun Dec 10 06:48:50 2023.
