 Gaussian 16, Revision A.03,
 Gaussian 16:  ES64L-G16RevA.03 25-Dec-2016

 ------------------
 #p CCSD(T)/CEP-31G
 ------------------

 ------------
 H2O_H2O_4052
 ------------
 Symbolic Z-matrix:
 Charge =  0 Multiplicity = 1

                         Standard orientation:
 ---------------------------------------------------------------------
 Center     Atomic      Atomic             Coordinates (Angstroms)
 Number     Number       Type             X           Y           Z
 ---------------------------------------------------------------------
      1          8           0        0.007455   -2.957007    0.000000
      2          1           0       -0.792240   -3.527966    0.000000
      3          1           0        0.806902   -3.528313    0.000000
      4          8           0        0.007455    2.957981    0.000000
      5          1           0        0.725783    3.628436    0.000000
      6          1           0       -0.859724    3.420050    0.000000
 ---------------------------------------------------------------------

 SCF Done:  E(RHF) =  -33.6503439082     A.U. after   11 cycles
 E2 =    -0.2284565091D+00 EUMP2 =    -0.33878800417315D+02
 CCSD(T)
 CCSD(T)= -0.33895842294D+02

 The electronic state is 1-A'.
 Alpha  occ. eigenvalues --   -1.34912  -1.34904  -0.70539  -0.70530  -0.54566
 Alpha  occ. eigenvalues --   -0.54557  -0.49462  -0.49453
 Alpha virt. eigenvalues --    0.20779   0.20789   0.31010   0.31018   0.81092
 Alpha virt. eigenvalues --    0.81101   0.84226   0.84303   0.87312   0.87324
 Alpha virt. eigenvalues --    1.17928   1.17936   1.22398   1.22406   2.57979

 Mulliken charges:
               1
     1  O   -0.735996
     2  H    0.367763
     3  H    0.368233
     4  O   -0.735980
     5  H    0.367668
     6  H    0.368312
 Sum of Mulliken charges =   0.00000

 Dipole moment (field-independent basis, Debye):
    X=             -0.3439    Y=             -0.0228    Z=              0.0000  Tot=              0.3446
 Quadrupole moment (field-independent basis, Debye-Ang):
   XX=             -8.0785   YY=             19.2552   ZZ=            -14.9864
   XY=             -0.7896   XZ=              0.0000   YZ=              0.0000

 P4DQ=-33.8901868\MP4SDQ=-33.8922184\CCSD=-33.8932764\CCSD(T)=-33.89584
 Normal termination of Gaussian 16 at Sun Dec 10 06:53:02 2023.
