 Gaussian 16, Revision A.03,
 Gaussian 16:  ES64L-G16RevA.03 25-Dec-2016

 ------------------
 #p CCSD(T)/CEP-31G
 ------------------

 ------------
 H2O_H2O_1342
 ------------
 Symbolic Z-matrix:
 Charge =  0 Multiplicity = 1

                         Standard orientation:
 ---------------------------------------------------------------------
 Center     Atomic      Atomic             Coordinates (Angstroms)
 Number     Number       Type             X           Y           Z
 ---------------------------------------------------------------------
      1          8           0        0.051316   -1.473844    0.000000
      2          1           0       -0.749924   -2.042632    0.000000
      3          1           0        0.849211   -2.047315    0.000000
      4          8           0        0.051316    1.537249    0.000000
      5          1           0       -0.104434    2.507428    0.000000
      6          1           0       -0.815914    1.075279    0.000000
 ---------------------------------------------------------------------

 SCF Done:  E(RHF) =  -33.6484860705     A.U. after   11 cycles
 E2 =    -0.2292739876D+00 EUMP2 =    -0.33877760058071D+02
 CCSD(T)
 CCSD(T)= -0.33894940822D+02

 The electronic state is 1-A'.
 Alpha  occ. eigenvalues --   -1.35045  -1.32837  -0.70687  -0.68420  -0.54751
 Alpha  occ. eigenvalues --   -0.52241  -0.49595  -0.47371
 Alpha virt. eigenvalues --    0.19778   0.24063   0.30800   0.32979   0.76811
 Alpha virt. eigenvalues --    0.78870   0.85461   0.85697   0.89853   1.12828
 Alpha virt. eigenvalues --    1.17659   1.21429   1.22413   1.26824   2.58176

 Mulliken charges:
               1
     1  O   -0.735196
     2  H    0.357781
     3  H    0.377534
     4  O   -0.722168
     5  H    0.346504
     6  H    0.375545
 Sum of Mulliken charges =   0.00000

 Dipole moment (field-independent basis, Debye):
    X=             -2.2830    Y=             -1.5902    Z=              0.0000  Tot=              2.7822
 Quadrupole moment (field-independent basis, Debye-Ang):
   XX=             -9.7482   YY=              0.5132   ZZ=            -14.9906
   XY=             -3.1213   XZ=              0.0000   YZ=              0.0000

 \MP4DQ=-33.8891528\MP4SDQ=-33.8912586\CCSD=-33.8923048\CCSD(T)=-33.894
 Normal termination of Gaussian 16 at Sun Dec 10 06:49:50 2023.
