 Gaussian 16, Revision A.03,
 Gaussian 16:  ES64L-G16RevA.03 25-Dec-2016

 ------------------
 #p CCSD(T)/CEP-31G
 ------------------

 ------------
 H2O_H2O_1760
 ------------
 Symbolic Z-matrix:
 Charge =  0 Multiplicity = 1

                         Standard orientation:
 ---------------------------------------------------------------------
 Center     Atomic      Atomic             Coordinates (Angstroms)
 Number     Number       Type             X           Y           Z
 ---------------------------------------------------------------------
      1          8           0        0.034789   -1.721557    0.000000
      2          1           0       -0.765767   -2.291307    0.000000
      3          1           0        0.833372   -2.294069    0.000000
      4          8           0        0.034789    1.745041    0.000000
      5          1           0        0.323071    2.684403    0.000000
      6          1           0       -0.947294    1.713099    0.000000
 ---------------------------------------------------------------------

 SCF Done:  E(RHF) =  -33.6465609463     A.U. after   11 cycles
 E2 =    -0.2289034461D+00 EUMP2 =    -0.33875464392324D+02
 CCSD(T)
 CCSD(T)= -0.33892644543D+02

 The electronic state is 1-A'.
 Alpha  occ. eigenvalues --   -1.34242  -1.33629  -0.69867  -0.69218  -0.53946
 Alpha  occ. eigenvalues --   -0.52772  -0.48754  -0.48121
 Alpha virt. eigenvalues --    0.20676   0.22444   0.31492   0.32058   0.75956
 Alpha virt. eigenvalues --    0.80565   0.83665   0.85235   0.90211   1.03009
 Alpha virt. eigenvalues --    1.18441   1.19349   1.22993   1.23630   2.58148

 Mulliken charges:
               1
     1  O   -0.723954
     2  H    0.357452
     3  H    0.366697
     4  O   -0.720510
     5  H    0.354335
     6  H    0.365980
 Sum of Mulliken charges =  -0.00000

 Dipole moment (field-independent basis, Debye):
    X=             -1.5743    Y=             -0.5792    Z=              0.0000  Tot=              1.6775
 Quadrupole moment (field-independent basis, Debye-Ang):
   XX=             -8.8710   YY=              4.8485   ZZ=            -14.9850
   XY=             -2.0409   XZ=              0.0000   YZ=              0.0000

 MP4DQ=-33.8869181\MP4SDQ=-33.8889872\CCSD=-33.8900422\CCSD(T)=-33.8926
 Normal termination of Gaussian 16 at Sun Dec 10 06:57:36 2023.
