 Gaussian 16, Revision A.03,
 Gaussian 16:  ES64L-G16RevA.03 25-Dec-2016

 ------------------
 #p CCSD(T)/CEP-31G
 ------------------

 ------------
 H2O_H2O_1708
 ------------
 Symbolic Z-matrix:
 Charge =  0 Multiplicity = 1

                         Standard orientation:
 ---------------------------------------------------------------------
 Center     Atomic      Atomic             Coordinates (Angstroms)
 Number     Number       Type             X           Y           Z
 ---------------------------------------------------------------------
      1          8           0        0.028568   -1.699453    0.000000
      2          1           0       -0.771825   -2.269433    0.000000
      3          1           0        0.827315   -2.271736    0.000000
      4          8           0        0.028568    1.714674    0.000000
      5          1           0        0.436739    2.608488    0.000000
      6          1           0       -0.949310    1.810912    0.000000
 ---------------------------------------------------------------------

 SCF Done:  E(RHF) =  -33.6455633575     A.U. after   11 cycles
 E2 =    -0.2289381320D+00 EUMP2 =    -0.33874501489525D+02
 CCSD(T)
 CCSD(T)= -0.33891712535D+02

 The electronic state is 1-A'.
 Alpha  occ. eigenvalues --   -1.34014  -1.33604  -0.69636  -0.69201  -0.53808
 Alpha  occ. eigenvalues --   -0.52540  -0.48525  -0.48068
 Alpha virt. eigenvalues --    0.20849   0.22441   0.31678   0.32047   0.76059
 Alpha virt. eigenvalues --    0.80584   0.83931   0.84997   0.91223   1.03446
 Alpha virt. eigenvalues --    1.18636   1.19250   1.23221   1.23617   2.58416

 Mulliken charges:
               1
     1  O   -0.720846
     2  H    0.356516
     3  H    0.364440
     4  O   -0.718221
     5  H    0.354363
     6  H    0.363747
 Sum of Mulliken charges =  -0.00000

 Dipole moment (field-independent basis, Debye):
    X=             -1.2921    Y=             -0.3766    Z=              0.0000  Tot=              1.3458
 Quadrupole moment (field-independent basis, Debye-Ang):
   XX=             -8.6334   YY=              5.0080   ZZ=            -14.9843
   XY=             -1.5740   XZ=              0.0000   YZ=              0.0000

 P4DQ=-33.8859753\MP4SDQ=-33.8880474\CCSD=-33.8891058\CCSD(T)=-33.89171
 Normal termination of Gaussian 16 at Sun Dec 10 06:56:38 2023.
