 Gaussian 16, Revision A.03,
 Gaussian 16:  ES64L-G16RevA.03 25-Dec-2016

 ------------------
 #p CCSD(T)/CEP-31G
 ------------------

 ------------
 H2O_H2O_1317
 ------------
 Symbolic Z-matrix:
 Charge =  0 Multiplicity = 1

                         Standard orientation:
 ---------------------------------------------------------------------
 Center     Atomic      Atomic             Coordinates (Angstroms)
 Number     Number       Type             X           Y           Z
 ---------------------------------------------------------------------
      1          8           0        0.051317   -1.460549    0.000000
      2          1           0       -0.749938   -2.029316    0.000000
      3          1           0        0.849197   -2.034042    0.000000
      4          8           0        0.051317    1.523952    0.000000
      5          1           0       -0.104408    2.494135    0.000000
      6          1           0       -0.815926    1.062004    0.000000
 ---------------------------------------------------------------------

 SCF Done:  E(RHF) =  -33.6483328887     A.U. after   11 cycles
 E2 =    -0.2293080902D+00 EUMP2 =    -0.33877640978862D+02
 CCSD(T)
 CCSD(T)= -0.33894827819D+02

 The electronic state is 1-A'.
 Alpha  occ. eigenvalues --   -1.35038  -1.32794  -0.70681  -0.68384  -0.54748
 Alpha  occ. eigenvalues --   -0.52181  -0.49589  -0.47326
 Alpha virt. eigenvalues --    0.19779   0.24135   0.30809   0.33011   0.77067
 Alpha virt. eigenvalues --    0.78802   0.85603   0.85719   0.90021   1.13312
 Alpha virt. eigenvalues --    1.17671   1.21475   1.22434   1.26979   2.58493

 Mulliken charges:
               1
     1  O   -0.735368
     2  H    0.357574
     3  H    0.377789
     4  O   -0.721505
     5  H    0.346059
     6  H    0.375450
 Sum of Mulliken charges =   0.00000

 Dipole moment (field-independent basis, Debye):
    X=             -2.2799    Y=             -1.5913    Z=              0.0000  Tot=              2.7803
 Quadrupole moment (field-independent basis, Debye-Ang):
   XX=             -9.7486   YY=              0.3960   ZZ=            -14.9907
   XY=             -3.0913   XZ=              0.0000   YZ=              0.0000

 MP4DQ=-33.8890338\MP4SDQ=-33.8911421\CCSD=-33.8921886\CCSD(T)=-33.8948
 Normal termination of Gaussian 16 at Sun Dec 10 06:49:22 2023.
