 Gaussian 16, Revision A.03,
 Gaussian 16:  ES64L-G16RevA.03 25-Dec-2016

 ------------------
 #p CCSD(T)/CEP-31G
 ------------------

 ------------
 H2O_H2O_1436
 ------------
 Symbolic Z-matrix:
 Charge =  0 Multiplicity = 1

                         Standard orientation:
 ---------------------------------------------------------------------
 Center     Atomic      Atomic             Coordinates (Angstroms)
 Number     Number       Type             X           Y           Z
 ---------------------------------------------------------------------
      1          8           0        0.037687   -1.546154    0.000000
      2          1           0       -0.763069   -2.115624    0.000000
      3          1           0        0.836069   -2.118946    0.000000
      4          8           0        0.037687    1.574344    0.000000
      5          1           0        0.264250    2.530469    0.000000
      6          1           0       -0.940238    1.478581    0.000000
 ---------------------------------------------------------------------

 SCF Done:  E(RHF) =  -33.6449504786     A.U. after   11 cycles
 E2 =    -0.2291614968D+00 EUMP2 =    -0.33874111975362D+02
 CCSD(T)
 CCSD(T)= -0.33891373492D+02

 The electronic state is 1-A'.
 Alpha  occ. eigenvalues --   -1.34100  -1.33205  -0.69725  -0.68783  -0.54010
 Alpha  occ. eigenvalues --   -0.52003  -0.48619  -0.47660
 Alpha virt. eigenvalues --    0.20572   0.23115   0.31582   0.32370   0.76167
 Alpha virt. eigenvalues --    0.79785   0.84062   0.85137   0.92070   1.10756
 Alpha virt. eigenvalues --    1.18513   1.20722   1.23154   1.24105   2.59673

 Mulliken charges:
               1
     1  O   -0.721393
     2  H    0.354087
     3  H    0.367191
     4  O   -0.714267
     5  H    0.349729
     6  H    0.364654
 Sum of Mulliken charges =   0.00000

 Dipole moment (field-independent basis, Debye):
    X=             -1.6864    Y=             -0.7024    Z=              0.0000  Tot=              1.8268
 Quadrupole moment (field-independent basis, Debye-Ang):
   XX=             -9.0186   YY=              2.8322   ZZ=            -14.9858
   XY=             -1.9854   XZ=              0.0000   YZ=              0.0000

 MP4DQ=-33.8855959\MP4SDQ=-33.8876883\CCSD=-33.8887488\CCSD(T)=-33.8913
 Normal termination of Gaussian 16 at Sun Dec 10 06:51:35 2023.
