 Gaussian 16, Revision A.03,
 Gaussian 16:  ES64L-G16RevA.03 25-Dec-2016

 ------------------
 #p CCSD(T)/CEP-31G
 ------------------

 ------------
 H2O_H2O_1907
 ------------
 Symbolic Z-matrix:
 Charge =  0 Multiplicity = 1

                         Standard orientation:
 ---------------------------------------------------------------------
 Center     Atomic      Atomic             Coordinates (Angstroms)
 Number     Number       Type             X           Y           Z
 ---------------------------------------------------------------------
      1          8           0        0.025268   -1.807723    0.000000
      2          1           0       -0.774988   -2.377896    0.000000
      3          1           0        0.824153   -2.379813    0.000000
      4          8           0        0.025268    1.819442    0.000000
      5          1           0        0.490813    2.684758    0.000000
      6          1           0       -0.944261    1.979196    0.000000
 ---------------------------------------------------------------------

 SCF Done:  E(RHF) =  -33.6463865736     A.U. after   11 cycles
 E2 =    -0.2288241132D+00 EUMP2 =    -0.33875210686825D+02
 CCSD(T)
 CCSD(T)= -0.33892382569D+02

 The electronic state is 1-A'.
 Alpha  occ. eigenvalues --   -1.34101  -1.33821  -0.69723  -0.69426  -0.53810
 Alpha  occ. eigenvalues --   -0.52928  -0.48611  -0.48304
 Alpha virt. eigenvalues --    0.20917   0.22119   0.31615   0.31882   0.77094
 Alpha virt. eigenvalues --    0.80957   0.83218   0.85793   0.90212   0.98814
 Alpha virt. eigenvalues --    1.18582   1.18916   1.23111   1.23430   2.58184

 Mulliken charges:
               1
     1  O   -0.722951
     2  H    0.358531
     3  H    0.364513
     4  O   -0.721405
     5  H    0.357011
     6  H    0.364301
 Sum of Mulliken charges =  -0.00000

 Dipole moment (field-independent basis, Debye):
    X=             -1.1482    Y=             -0.2875    Z=              0.0000  Tot=              1.1837
 Quadrupole moment (field-independent basis, Debye-Ang):
   XX=             -8.5108   YY=              6.3251   ZZ=            -14.9842
   XY=             -1.4800   XZ=              0.0000   YZ=              0.0000

 P4DQ=-33.8866686\MP4SDQ=-33.8887291\CCSD=-33.8897865\CCSD(T)=-33.89238
 Normal termination of Gaussian 16 at Sun Dec 10 07:00:32 2023.
