 Gaussian 16, Revision A.03,
 Gaussian 16:  ES64L-G16RevA.03 25-Dec-2016

 ------------------
 #p CCSD(T)/CEP-31G
 ------------------

 -----------
 H2O_H2O_962
 -----------
 Symbolic Z-matrix:
 Charge =  0 Multiplicity = 1

                         Standard orientation:
 ---------------------------------------------------------------------
 Center     Atomic      Atomic             Coordinates (Angstroms)
 Number     Number       Type             X           Y           Z
 ---------------------------------------------------------------------
      1          8           0        0.040429   -1.290788    0.000000
      2          1           0       -0.760657   -1.859791    0.000000
      3          1           0        0.838479   -1.864044    0.000000
      4          8           0        0.040429    1.324029    0.000000
      5          1           0        0.204537    2.292830    0.000000
      6          1           0       -0.929231    1.165076    0.000000
 ---------------------------------------------------------------------

 SCF Done:  E(RHF) =  -33.6394280661     A.U. after   11 cycles
 E2 =    -0.2298669091D+00 EUMP2 =    -0.33869294975168D+02
 CCSD(T)
 CCSD(T)= -0.33886674636D+02

 The electronic state is 1-A'.
 Alpha  occ. eigenvalues --   -1.33835  -1.32361  -0.69453  -0.68018  -0.54533
 Alpha  occ. eigenvalues --   -0.50023  -0.48436  -0.46670
 Alpha virt. eigenvalues --    0.20534   0.24453   0.31799   0.32831   0.78783
 Alpha virt. eigenvalues --    0.82752   0.84502   0.87891   0.95869   1.15743
 Alpha virt. eigenvalues --    1.18821   1.22505   1.23508   1.28051   2.58085

 Mulliken charges:
               1
     1  O   -0.724011
     2  H    0.349236
     3  H    0.370755
     4  O   -0.699944
     5  H    0.344107
     6  H    0.359857
 Sum of Mulliken charges =  -0.00000

 Dipole moment (field-independent basis, Debye):
    X=             -1.7505    Y=             -0.8241    Z=              0.0000  Tot=              1.9348
 Quadrupole moment (field-independent basis, Debye-Ang):
   XX=             -9.1819   YY=             -0.1055   ZZ=            -14.9906
   XY=             -1.7544   XZ=              0.0000   YZ=              0.0000

 DQ=-33.8807798\MP4SDQ=-33.8829136\CCSD=-33.8839872\CCSD(T)=-33.8866746
 Normal termination of Gaussian 16 at Sun Dec 10 06:42:45 2023.
