 Gaussian 16, Revision A.03,
 Gaussian 16:  ES64L-G16RevA.03 25-Dec-2016

 ------------------
 #p CCSD(T)/CEP-31G
 ------------------

 ------------
 H2O_H2O_1208
 ------------
 Symbolic Z-matrix:
 Charge =  0 Multiplicity = 1

                         Standard orientation:
 ---------------------------------------------------------------------
 Center     Atomic      Atomic             Coordinates (Angstroms)
 Number     Number       Type             X           Y           Z
 ---------------------------------------------------------------------
      1          8           0        0.028570   -1.433543    0.000000
      2          1           0       -0.771975   -2.003310    0.000000
      3          1           0        0.827165   -2.006038    0.000000
      4          8           0        0.028570    1.448749    0.000000
      5          1           0        0.436979    2.342454    0.000000
      6          1           0       -0.949282    1.545246    0.000000
 ---------------------------------------------------------------------

 SCF Done:  E(RHF) =  -33.6409299634     A.U. after   11 cycles
 E2 =    -0.2293951380D+00 EUMP2 =    -0.33870325101365D+02
 CCSD(T)
 CCSD(T)= -0.33887691520D+02

 The electronic state is 1-A'.
 Alpha  occ. eigenvalues --   -1.33502  -1.32908  -0.69113  -0.68509  -0.53979
 Alpha  occ. eigenvalues --   -0.50772  -0.48067  -0.47222
 Alpha virt. eigenvalues --    0.20955   0.23413   0.32051   0.32498   0.79215
 Alpha virt. eigenvalues --    0.79512   0.82408   0.86548   0.96086   1.12893
 Alpha virt. eigenvalues --    1.19015   1.21227   1.23808   1.24229   2.58989

 Mulliken charges:
               1
     1  O   -0.713449
     2  H    0.350181
     3  H    0.362475
     4  O   -0.706252
     5  H    0.348576
     6  H    0.358469
 Sum of Mulliken charges =   0.00000

 Dipole moment (field-independent basis, Debye):
    X=             -1.2643    Y=             -0.3784    Z=              0.0000  Tot=              1.3197
 Quadrupole moment (field-independent basis, Debye-Ang):
   XX=             -8.6791   YY=              2.0723   ZZ=            -14.9863
   XY=             -1.2535   XZ=              0.0000   YZ=              0.0000

 P4DQ=-33.881863\MP4SDQ=-33.8839651\CCSD=-33.8850426\CCSD(T)=-33.887691
 Normal termination of Gaussian 16 at Sun Dec 10 06:47:20 2023.
