 Gaussian 16, Revision A.03,
 Gaussian 16:  ES64L-G16RevA.03 25-Dec-2016

 ------------------
 #p CCSD(T)/CEP-31G
 ------------------

 ------------
 H2O_H2O_4341
 ------------
 Symbolic Z-matrix:
 Charge =  0 Multiplicity = 1

                         Standard orientation:
 ---------------------------------------------------------------------
 Center     Atomic      Atomic             Coordinates (Angstroms)
 Number     Number       Type             X           Y           Z
 ---------------------------------------------------------------------
      1          8           0        0.049501   -3.072847    0.000000
      2          1           0       -0.750854   -3.642881    0.000000
      3          1           0        0.848287   -3.645076    0.000000
      4          8           0        0.049501    3.129825    0.000000
      5          1           0       -0.043986    4.107969    0.000000
      6          1           0       -0.845457    2.724170    0.000000
 ---------------------------------------------------------------------

 SCF Done:  E(RHF) =  -33.6513548585     A.U. after   11 cycles
 E2 =    -0.2284101655D+00 EUMP2 =    -0.33879765024013D+02
 CCSD(T)
 CCSD(T)= -0.33896777740D+02

 The electronic state is 1-A'.
 Alpha  occ. eigenvalues --   -1.35372  -1.34929  -0.71003  -0.70550  -0.55083
 Alpha  occ. eigenvalues --   -0.54636  -0.49937  -0.49494
 Alpha virt. eigenvalues --    0.20375   0.20828   0.30612   0.31055   0.80615
 Alpha virt. eigenvalues --    0.81052   0.83681   0.84123   0.86777   0.87275
 Alpha virt. eigenvalues --    1.17511   1.17951   1.21972   1.22418   2.57538

 Mulliken charges:
               1
     1  O   -0.739592
     2  H    0.368474
     3  H    0.371118
     4  O   -0.739227
     5  H    0.367205
     6  H    0.372022
 Sum of Mulliken charges =   0.00000

 Dipole moment (field-independent basis, Debye):
    X=             -2.2843    Y=             -1.3336    Z=              0.0000  Tot=              2.6450
 Quadrupole moment (field-independent basis, Debye-Ang):
   XX=             -9.6288   YY=             14.0442   ZZ=            -14.9880
   XY=             -6.4618   XZ=              0.0000   YZ=              0.0000

 MP4DQ=-33.8911302\MP4SDQ=-33.8931591\CCSD=-33.8942151\CCSD(T)=-33.8967
 Normal termination of Gaussian 16 at Sun Dec 10 06:58:11 2023.
