 Gaussian 16, Revision A.03,
 Gaussian 16:  ES64L-G16RevA.03 25-Dec-2016

 ------------------
 #p CCSD(T)/CEP-31G
 ------------------

 ------------
 H2O_H2O_2375
 ------------
 Symbolic Z-matrix:
 Charge =  0 Multiplicity = 1

                         Standard orientation:
 ---------------------------------------------------------------------
 Center     Atomic      Atomic             Coordinates (Angstroms)
 Number     Number       Type             X           Y           Z
 ---------------------------------------------------------------------
      1          8           0        0.000000   -0.000000    2.066711
      2          1           0        0.000000    0.799571    2.637843
      3          1           0       -0.000000   -0.799571    2.637843
      4          8           0        0.000000   -0.000000   -2.066711
      5          1           0       -0.000000   -0.799571   -2.637843
      6          1           0        0.000000    0.799571   -2.637843
 ---------------------------------------------------------------------

 SCF Done:  E(RHF) =  -33.6475562834     A.U. after   10 cycles
 E2 =    -0.2286511189D+00 EUMP2 =    -0.33876207402279D+02
 CCSD(T)
 CCSD(T)= -0.33893331251D+02

 The electronic state is 1-AG.
 Alpha  occ. eigenvalues --   -1.34227  -1.34219  -0.69849  -0.69838  -0.53878
 Alpha  occ. eigenvalues --   -0.53527  -0.48755  -0.48710
 Alpha virt. eigenvalues --    0.21071   0.21564   0.31478   0.31618   0.80854
 Alpha virt. eigenvalues --    0.81447   0.82181   0.87314   0.89026   0.90270
 Alpha virt. eigenvalues --    1.18503   1.18506   1.22904   1.23108   2.58341

 Mulliken charges:
               1
     1  O   -0.726501
     2  H    0.363251
     3  H    0.363251
     4  O   -0.726501
     5  H    0.363251
     6  H    0.363251
 Sum of Mulliken charges =  -0.00000

 Dipole moment (field-independent basis, Debye):
    X=             -0.0000    Y=              0.0000    Z=             -0.0000  Tot=              0.0000
 Quadrupole moment (field-independent basis, Debye-Ang):
   XX=            -14.9843   YY=             -8.0866   ZZ=              9.7386
   XY=              0.0000   XZ=              0.0000   YZ=             -0.0000

 3.8876474\MP4SDQ=-33.8896908\CCSD=-33.8907508\CCSD(T)=-33.8933313\RMSD
 Normal termination of Gaussian 16 at Sun Dec 10 07:10:08 2023.
