 Gaussian 16, Revision A.03,
 Gaussian 16:  ES64L-G16RevA.03 25-Dec-2016

 ------------------
 #p CCSD(T)/CEP-31G
 ------------------

 -----------
 H2O_H2O_686
 -----------
 Symbolic Z-matrix:
 Charge =  0 Multiplicity = 1

                         Standard orientation:
 ---------------------------------------------------------------------
 Center     Atomic      Atomic             Coordinates (Angstroms)
 Number     Number       Type             X           Y           Z
 ---------------------------------------------------------------------
      1          8           0        0.037697   -1.147305    0.000000
      2          1           0       -0.763465   -1.716203    0.000000
      3          1           0        0.835671   -1.720666    0.000000
      4          8           0        0.037697    1.175441    0.000000
      5          1           0        0.264942    2.131405    0.000000
      6          1           0       -0.940296    1.080375    0.000000
 ---------------------------------------------------------------------

 SCF Done:  E(RHF) =  -33.6286553878     A.U. after   11 cycles
 E2 =    -0.2306122137D+00 EUMP2 =    -0.33859267601430D+02
 CCSD(T)
 CCSD(T)= -0.33876660546D+02

 The electronic state is 1-A'.
 Alpha  occ. eigenvalues --   -1.33552  -1.31699  -0.69117  -0.67572  -0.55457
 Alpha  occ. eigenvalues --   -0.48293  -0.47521  -0.45776
 Alpha virt. eigenvalues --    0.20713   0.25289   0.32080   0.33035   0.79068
 Alpha virt. eigenvalues --    0.82270   0.89348   0.92768   0.99438   1.13988
 Alpha virt. eigenvalues --    1.19218   1.22604   1.24162   1.29864   2.54547

 Mulliken charges:
               1
     1  O   -0.727334
     2  H    0.345899
     3  H    0.372302
     4  O   -0.687906
     5  H    0.344471
     6  H    0.352568
 Sum of Mulliken charges =  -0.00000

 Dipole moment (field-independent basis, Debye):
    X=             -1.5739    Y=             -0.6827    Z=              0.0000  Tot=              1.7156
 Quadrupole moment (field-independent basis, Debye-Ang):
   XX=             -9.0905   YY=             -1.7352   ZZ=            -14.9971
   XY=             -1.3470   XZ=              0.0000   YZ=              0.0000

 MP4DQ=-33.8706559\MP4SDQ=-33.8728282\CCSD=-33.8738932\CCSD(T)=-33.8766
 Normal termination of Gaussian 16 at Sun Dec 10 06:37:33 2023.
