 Gaussian 16, Revision A.03,
 Gaussian 16:  ES64L-G16RevA.03 25-Dec-2016

 ------------------
 #p CCSD(T)/CEP-31G
 ------------------

 ------------
 H2O_H2O_4549
 ------------
 Symbolic Z-matrix:
 Charge =  0 Multiplicity = 1

                         Standard orientation:
 ---------------------------------------------------------------------
 Center     Atomic      Atomic             Coordinates (Angstroms)
 Number     Number       Type             X           Y           Z
 ---------------------------------------------------------------------
      1          8           0        0.057201   -3.148220    0.000000
      2          1           0       -0.743245   -3.718125    0.000000
      3          1           0        0.855895   -3.720578    0.000000
      4          8           0        0.057201    3.262271    0.000000
      5          1           0       -0.512704    4.062717    0.000000
      6          1           0       -0.515157    2.463576    0.000000
 ---------------------------------------------------------------------

 SCF Done:  E(RHF) =  -33.6521209653     A.U. after   11 cycles
 E2 =    -0.2283656925D+00 EUMP2 =    -0.33880486657838D+02
 CCSD(T)
 CCSD(T)= -0.33897477086D+02

 The electronic state is 1-A'.
 Alpha  occ. eigenvalues --   -1.35747  -1.34935  -0.71381  -0.70557  -0.55500
 Alpha  occ. eigenvalues --   -0.54675  -0.50324  -0.49511
 Alpha virt. eigenvalues --    0.20043   0.20879   0.30285   0.31120   0.80227
 Alpha virt. eigenvalues --    0.81028   0.83219   0.84049   0.86344   0.87205
 Alpha virt. eigenvalues --    1.17169   1.17979   1.21624   1.22452   2.57177

 Mulliken charges:
               1
     1  O   -0.742318
     2  H    0.369880
     3  H    0.372437
     4  O   -0.742229
     5  H    0.367836
     6  H    0.374393
 Sum of Mulliken charges =  -0.00000

 Dipole moment (field-independent basis, Debye):
    X=             -2.6394    Y=             -2.6669    Z=              0.0000  Tot=              3.7522
 Quadrupole moment (field-independent basis, Debye-Ang):
   XX=            -10.1663   YY=              6.6768   ZZ=            -14.9893
   XY=             -8.7965   XZ=              0.0000   YZ=              0.0000

 \MP4DQ=-33.8918355\MP4SDQ=-33.8938623\CCSD=-33.8949169\CCSD(T)=-33.897
 Normal termination of Gaussian 16 at Sun Dec 10 07:03:31 2023.
