 Gaussian 16, Revision A.03,
 Gaussian 16:  ES64L-G16RevA.03 25-Dec-2016

 ------------------
 #p CCSD(T)/CEP-31G
 ------------------

 -----------
 H2O_H2O_578
 -----------
 Symbolic Z-matrix:
 Charge =  0 Multiplicity = 1

                         Standard orientation:
 ---------------------------------------------------------------------
 Center     Atomic      Atomic             Coordinates (Angstroms)
 Number     Number       Type             X           Y           Z
 ---------------------------------------------------------------------
      1          8           0        0.011143   -1.108223    0.000000
      2          1           0       -0.788921   -1.678664    0.000000
      3          1           0        0.810220   -1.680046    0.000000
      4          8           0        0.011143    1.110399    0.000000
      5          1           0        0.684547    1.825963    0.000000
      6          1           0       -0.884137    1.515342    0.000000
 ---------------------------------------------------------------------

 SCF Done:  E(RHF) =  -33.6156603968     A.U. after   11 cycles
 E2 =    -0.2310270096D+00 EUMP2 =    -0.33846687406408D+02
 CCSD(T)
 CCSD(T)= -0.33864017802D+02

 The electronic state is 1-A'.
 Alpha  occ. eigenvalues --   -1.32782  -1.31204  -0.68149  -0.67002  -0.56561
 Alpha  occ. eigenvalues --   -0.47634  -0.44988  -0.44563
 Alpha virt. eigenvalues --    0.21527   0.25158   0.32848   0.33214   0.78521
 Alpha virt. eigenvalues --    0.80008   0.89956   0.98232   1.00230   1.15513
 Alpha virt. eigenvalues --    1.20029   1.22853   1.23868   1.26687   2.51191

 Mulliken charges:
               1
     1  O   -0.700461
     2  H    0.344740
     3  H    0.354577
     4  O   -0.696112
     5  H    0.349862
     6  H    0.347395
 Sum of Mulliken charges =  -0.00000

 Dipole moment (field-independent basis, Debye):
    X=             -0.4526    Y=             -0.0510    Z=              0.0000  Tot=              0.4555
 Quadrupole moment (field-independent basis, Debye-Ang):
   XX=             -8.3662   YY=             -2.0243   ZZ=            -15.0111
   XY=             -0.2883   XZ=              0.0000   YZ=              0.0000

 MP4DQ=-33.8579669\MP4SDQ=-33.8601294\CCSD=-33.8611906\CCSD(T)=-33.8640
 Normal termination of Gaussian 16 at Sun Dec 10 06:35:33 2023.
