 Gaussian 16, Revision A.03,
 Gaussian 16:  ES64L-G16RevA.03 25-Dec-2016

 ------------------
 #p CCSD(T)/CEP-31G
 ------------------

 ------------
 H2O_H2O_4053
 ------------
 Symbolic Z-matrix:
 Charge =  0 Multiplicity = 1

                         Standard orientation:
 ---------------------------------------------------------------------
 Center     Atomic      Atomic             Coordinates (Angstroms)
 Number     Number       Type             X           Y           Z
 ---------------------------------------------------------------------
      1          8           0        0.011143   -2.956348    0.000000
      2          1           0       -0.788614   -3.527221    0.000000
      3          1           0        0.810528   -3.527739    0.000000
      4          8           0        0.011143    2.958535    0.000000
      5          1           0        0.684160    3.674464    0.000000
      6          1           0       -0.884356    3.362996    0.000000
 ---------------------------------------------------------------------

 SCF Done:  E(RHF) =  -33.6503642070     A.U. after   11 cycles
 E2 =    -0.2284558181D+00 EUMP2 =    -0.33878820025051D+02
 CCSD(T)
 CCSD(T)= -0.33895861323D+02

 The electronic state is 1-A'.
 Alpha  occ. eigenvalues --   -1.34922  -1.34903  -0.70548  -0.70529  -0.54577
 Alpha  occ. eigenvalues --   -0.54558  -0.49472  -0.49453
 Alpha virt. eigenvalues --    0.20771   0.20791   0.31002   0.31020   0.81082
 Alpha virt. eigenvalues --    0.81101   0.84218   0.84296   0.87301   0.87325
 Alpha virt. eigenvalues --    1.17919   1.17938   1.22389   1.22408   2.57971

 Mulliken charges:
               1
     1  O   -0.736069
     2  H    0.367683
     3  H    0.368386
     4  O   -0.736033
     5  H    0.367533
     6  H    0.368500
 Sum of Mulliken charges =   0.00000

 Dipole moment (field-independent basis, Debye):
    X=             -0.5140    Y=             -0.0513    Z=              0.0000  Tot=              0.5165
 Quadrupole moment (field-independent basis, Debye-Ang):
   XX=             -8.1228   YY=             19.1273   ZZ=            -14.9865
   XY=             -1.1845   XZ=              0.0000   YZ=              0.0000

 DQ=-33.890206\MP4SDQ=-33.8922375\CCSD=-33.8932955\CCSD(T)=-33.8958613\
 Normal termination of Gaussian 16 at Sun Dec 10 06:53:03 2023.
