 Gaussian 16, Revision A.03,
 Gaussian 16:  ES64L-G16RevA.03 25-Dec-2016

 ------------------
 #p CCSD(T)/CEP-31G
 ------------------

 ------------
 H2O_H2O_2779
 ------------
 Symbolic Z-matrix:
 Charge =  0 Multiplicity = 1

                         Standard orientation:
 ---------------------------------------------------------------------
 Center     Atomic      Atomic             Coordinates (Angstroms)
 Number     Number       Type             X           Y           Z
 ---------------------------------------------------------------------
      1          8           0        0.014783   -2.277340    0.000000
      2          1           0       -0.785107   -2.848026    0.000000
      3          1           0        0.814035   -2.848918    0.000000
      4          8           0        0.014783    2.281216    0.000000
      5          1           0        0.639714    3.039482    0.000000
      6          1           0       -0.905171    2.626456    0.000000
 ---------------------------------------------------------------------

 SCF Done:  E(RHF) =  -33.6487481851     A.U. after   11 cycles
 E2 =    -0.2285639868D+00 EUMP2 =    -0.33877312171908D+02
 CCSD(T)
 CCSD(T)= -0.33894400475D+02

 The electronic state is 1-A'.
 Alpha  occ. eigenvalues --   -1.34502  -1.34445  -0.70125  -0.70065  -0.54104
 Alpha  occ. eigenvalues --   -0.53955  -0.49029  -0.48971
 Alpha virt. eigenvalues --    0.21006   0.21258   0.31324   0.31393   0.81426
 Alpha virt. eigenvalues --    0.81673   0.82971   0.86628   0.87739   0.88266
 Alpha virt. eigenvalues --    1.18273   1.18329   1.22747   1.22829   2.58335

 Mulliken charges:
               1
     1  O   -0.730544
     2  H    0.364323
     3  H    0.366224
     4  O   -0.730342
     5  H    0.363961
     6  H    0.366378
 Sum of Mulliken charges =  -0.00000

 Dipole moment (field-independent basis, Debye):
    X=             -0.6785    Y=             -0.0922    Z=              0.0000  Tot=              0.6847
 Quadrupole moment (field-independent basis, Debye-Ang):
   XX=             -8.2083   YY=             11.7668   ZZ=            -14.9851
   XY=             -1.1293   XZ=              0.0000   YZ=              0.0000

 \MP4DQ=-33.8887308\MP4SDQ=-33.8907677\CCSD=-33.8918273\CCSD(T)=-33.894
 Normal termination of Gaussian 16 at Sun Dec 10 06:29:56 2023.
