 Gaussian 16, Revision A.03,
 Gaussian 16:  ES64L-G16RevA.03 25-Dec-2016

 ------------------
 #p CCSD(T)/CEP-31G
 ------------------

 ------------
 H2O_H2O_4179
 ------------
 Symbolic Z-matrix:
 Charge =  0 Multiplicity = 1

                         Standard orientation:
 ---------------------------------------------------------------------
 Center     Atomic      Atomic             Coordinates (Angstroms)
 Number     Number       Type             X           Y           Z
 ---------------------------------------------------------------------
      1          8           0        0.014783   -3.021909    0.000000
      2          1           0       -0.785028   -3.592704    0.000000
      3          1           0        0.814113   -3.593377    0.000000
      4          8           0        0.014783    3.025789    0.000000
      5          1           0        0.639609    3.784141    0.000000
      6          1           0       -0.905219    3.370903    0.000000
 ---------------------------------------------------------------------

 SCF Done:  E(RHF) =  -33.6504844695     A.U. after   11 cycles
 E2 =    -0.2284492528D+00 EUMP2 =    -0.33878933722238D+02
 CCSD(T)
 CCSD(T)= -0.33895971573D+02

 The electronic state is 1-A'.
 Alpha  occ. eigenvalues --   -1.34964  -1.34932  -0.70591  -0.70558  -0.54626
 Alpha  occ. eigenvalues --   -0.54594  -0.49516  -0.49484
 Alpha virt. eigenvalues --    0.20735   0.20768   0.30967   0.30998   0.81038
 Alpha virt. eigenvalues --    0.81070   0.84179   0.84235   0.87251   0.87290
 Alpha virt. eigenvalues --    1.17882   1.17914   1.22351   1.22383   2.57931

 Mulliken charges:
               1
     1  O   -0.736489
     2  H    0.367807
     3  H    0.368682
     4  O   -0.736434
     5  H    0.367606
     6  H    0.368828
 Sum of Mulliken charges =   0.00000

 Dipole moment (field-independent basis, Debye):
    X=             -0.6820    Y=             -0.0909    Z=              0.0000  Tot=              0.6881
 Quadrupole moment (field-independent basis, Debye-Ang):
   XX=             -8.1824   YY=             19.6482   ZZ=            -14.9866
   XY=             -1.6241   XZ=              0.0000   YZ=              0.0000

 \MP4DQ=-33.8903172\MP4SDQ=-33.8923484\CCSD=-33.8934062\CCSD(T)=-33.895
 Normal termination of Gaussian 16 at Sun Dec 10 06:55:21 2023.
