 Gaussian 16, Revision A.03,
 Gaussian 16:  ES64L-G16RevA.03 25-Dec-2016

 ------------------
 #p CCSD(T)/CEP-31G
 ------------------

 ------------
 H2O_H2O_1025
 ------------
 Symbolic Z-matrix:
 Charge =  0 Multiplicity = 1

                         Standard orientation:
 ---------------------------------------------------------------------
 Center     Atomic      Atomic             Coordinates (Angstroms)
 Number     Number       Type             X           Y           Z
 ---------------------------------------------------------------------
      1          8           0        0.000000   -0.000000    1.348731
      2          1           0        0.000000    0.799571    1.919863
      3          1           0       -0.000000   -0.799571    1.919863
      4          8           0        0.000000   -0.000000   -1.348731
      5          1           0       -0.000000   -0.799571   -1.919863
      6          1           0        0.000000    0.799571   -1.919863
 ---------------------------------------------------------------------

 SCF Done:  E(RHF) =  -33.6354281806     A.U. after   10 cycles
 E2 =    -0.2296182800D+00 EUMP2 =    -0.33865046460624D+02
 CCSD(T)
 CCSD(T)= -0.33882474415D+02

 The electronic state is 1-AG.
 Alpha  occ. eigenvalues --   -1.32922  -1.32501  -0.68485  -0.68154  -0.54151
 Alpha  occ. eigenvalues --   -0.49163  -0.47571  -0.46612
 Alpha virt. eigenvalues --    0.21453   0.23625   0.32439   0.32777   0.79550
 Alpha virt. eigenvalues --    0.80206   0.83949   0.87783   1.03490   1.08172
 Alpha virt. eigenvalues --    1.19513   1.20616   1.24410   1.24625   2.57786

 Mulliken charges:
               1
     1  O   -0.701995
     2  H    0.350998
     3  H    0.350998
     4  O   -0.701995
     5  H    0.350998
     6  H    0.350998
 Sum of Mulliken charges =   0.00000

 Dipole moment (field-independent basis, Debye):
    X=             -0.0000    Y=              0.0000    Z=              0.0000  Tot=              0.0000
 Quadrupole moment (field-independent basis, Debye-Ang):
   XX=            -14.9895   YY=             -8.2207   ZZ=              1.4189
   XY=              0.0000   XZ=             -0.0000   YZ=              0.0000

 33.8766054\MP4SDQ=-33.878701\CCSD=-33.8797946\CCSD(T)=-33.8824744\RMSD
 Normal termination of Gaussian 16 at Sun Dec 10 06:43:55 2023.
