 Gaussian 16, Revision A.03,
 Gaussian 16:  ES64L-G16RevA.03 25-Dec-2016

 ------------------
 #p CCSD(T)/CEP-31G
 ------------------

 ------------
 H2O_H2O_3077
 ------------
 Symbolic Z-matrix:
 Charge =  0 Multiplicity = 1

                         Standard orientation:
 ---------------------------------------------------------------------
 Center     Atomic      Atomic             Coordinates (Angstroms)
 Number     Number       Type             X           Y           Z
 ---------------------------------------------------------------------
      1          8           0        0.007455   -2.438467    0.000000
      2          1           0       -0.792266   -3.009389    0.000000
      3          1           0        0.806876   -3.009809    0.000000
      4          8           0        0.007455    2.439440    0.000000
      5          1           0        0.725814    3.109862    0.000000
      6          1           0       -0.859703    2.901549    0.000000
 ---------------------------------------------------------------------

 SCF Done:  E(RHF) =  -33.6492084307     A.U. after   11 cycles
 E2 =    -0.2285270049D+00 EUMP2 =    -0.33877735435528D+02
 CCSD(T)
 CCSD(T)= -0.33894810190D+02

 The electronic state is 1-A'.
 Alpha  occ. eigenvalues --   -1.34599  -1.34587  -0.70223  -0.70210  -0.54213
 Alpha  occ. eigenvalues --   -0.54145  -0.49133  -0.49119
 Alpha virt. eigenvalues --    0.20978   0.21097   0.31251   0.31278   0.81378
 Alpha virt. eigenvalues --    0.81472   0.83815   0.85635   0.87605   0.87817
 Alpha virt. eigenvalues --    1.18194   1.18206   1.22665   1.22697   2.58274

 Mulliken charges:
               1
     1  O   -0.732096
     2  H    0.365649
     3  H    0.366447
     4  O   -0.732058
     5  H    0.365516
     6  H    0.366541
 Sum of Mulliken charges =  -0.00000

 Dipole moment (field-independent basis, Debye):
    X=             -0.3427    Y=             -0.0230    Z=              0.0000  Tot=              0.3435
 Quadrupole moment (field-independent basis, Debye-Ang):
   XX=             -8.0962   YY=             13.7021   ZZ=            -14.9854
   XY=             -0.6156   XZ=              0.0000   YZ=              0.0000

 P4DQ=-33.8891452\MP4SDQ=-33.8911801\CCSD=-33.8922396\CCSD(T)=-33.89481
 Normal termination of Gaussian 16 at Sun Dec 10 06:35:18 2023.
