 Gaussian 16, Revision A.03,
 Gaussian 16:  ES64L-G16RevA.03 25-Dec-2016

 ------------------
 #p CCSD(T)/CEP-31G
 ------------------

 ------------
 H2O_H2O_3529
 ------------
 Symbolic Z-matrix:
 Charge =  0 Multiplicity = 1

                         Standard orientation:
 ---------------------------------------------------------------------
 Center     Atomic      Atomic             Coordinates (Angstroms)
 Number     Number       Type             X           Y           Z
 ---------------------------------------------------------------------
      1          8           0        0.014783   -2.676216    0.000000
      2          1           0       -0.785059   -3.246968    0.000000
      3          1           0        0.814082   -3.247728    0.000000
      4          8           0        0.014783    2.680094    0.000000
      5          1           0        0.639650    3.438413    0.000000
      6          1           0       -0.905200    3.025258    0.000000
 ---------------------------------------------------------------------

 SCF Done:  E(RHF) =  -33.6499024190     A.U. after   11 cycles
 E2 =    -0.2284851605D+00 EUMP2 =    -0.33878387579499D+02
 CCSD(T)
 CCSD(T)= -0.33895442215D+02

 The electronic state is 1-A'.
 Alpha  occ. eigenvalues --   -1.34792  -1.34751  -0.70417  -0.70375  -0.54421
 Alpha  occ. eigenvalues --   -0.54377  -0.49335  -0.49294
 Alpha virt. eigenvalues --    0.20869   0.20924   0.31105   0.31144   0.81216
 Alpha virt. eigenvalues --    0.81260   0.84221   0.84687   0.87455   0.87523
 Alpha virt. eigenvalues --    1.18030   1.18070   1.22504   1.22545   2.58091

 Mulliken charges:
               1
     1  O   -0.734479
     2  H    0.366627
     3  H    0.367852
     4  O   -0.734382
     5  H    0.366369
     6  H    0.368013
 Sum of Mulliken charges =   0.00000

 Dipole moment (field-independent basis, Debye):
    X=             -0.6809    Y=             -0.0913    Z=              0.0000  Tot=              0.6870
 Quadrupole moment (field-independent basis, Debye-Ang):
   XX=             -8.1910   YY=             16.0020   ZZ=            -14.9860
   XY=             -1.3928   XZ=              0.0000   YZ=              0.0000

 \MP4DQ=-33.8897831\MP4SDQ=-33.891816\CCSD=-33.8928746\CCSD(T)=-33.8954
 Normal termination of Gaussian 16 at Sun Dec 10 06:43:25 2023.
