 Gaussian 16, Revision A.03,
 Gaussian 16:  ES64L-G16RevA.03 25-Dec-2016

 ------------------
 #p CCSD(T)/CEP-31G
 ------------------

 ------------
 H2O_H2O_2062
 ------------
 Symbolic Z-matrix:
 Charge =  0 Multiplicity = 1

                         Standard orientation:
 ---------------------------------------------------------------------
 Center     Atomic      Atomic             Coordinates (Angstroms)
 Number     Number       Type             X           Y           Z
 ---------------------------------------------------------------------
      1          8           0        0.040416   -1.875773    0.000000
      2          1           0       -0.760203   -2.445435    0.000000
      3          1           0        0.838936   -2.448373    0.000000
      4          8           0        0.040416    1.909081    0.000000
      5          1           0        0.203727    2.878016    0.000000
      6          1           0       -0.929113    1.749330    0.000000
 ---------------------------------------------------------------------

 SCF Done:  E(RHF) =  -33.6484574048     A.U. after   11 cycles
 E2 =    -0.2287291734D+00 EUMP2 =    -0.33877186578159D+02
 CCSD(T)
 CCSD(T)= -0.33894293512D+02

 The electronic state is 1-A'.
 Alpha  occ. eigenvalues --   -1.34621  -1.33891  -0.70248  -0.69479  -0.54228
 Alpha  occ. eigenvalues --   -0.53350  -0.49147  -0.48419
 Alpha virt. eigenvalues --    0.20550   0.22089   0.31184   0.31907   0.77744
 Alpha virt. eigenvalues --    0.80869   0.82654   0.85923   0.88343   0.97008
 Alpha virt. eigenvalues --    1.18139   1.19019   1.22601   1.23442   2.57879

 Mulliken charges:
               1
     1  O   -0.729775
     2  H    0.360741
     3  H    0.369240
     4  O   -0.726877
     5  H    0.357373
     6  H    0.369297
 Sum of Mulliken charges =  -0.00000

 Dipole moment (field-independent basis, Debye):
    X=             -1.8394    Y=             -0.8100    Z=              0.0000  Tot=              2.0098
 Quadrupole moment (field-independent basis, Debye-Ang):
   XX=             -9.1199   YY=              5.8282   ZZ=            -14.9860
   XY=             -2.7701   XZ=              0.0000   YZ=              0.0000

 \MP4DQ=-33.8886034\MP4SDQ=-33.8906548\CCSD=-33.8917074\CCSD(T)=-33.894
 Normal termination of Gaussian 16 at Sun Dec 10 07:04:31 2023.
