 Gaussian 16, Revision A.03,
 Gaussian 16:  ES64L-G16RevA.03 25-Dec-2016

 ------------------
 #p CCSD(T)/CEP-31G
 ------------------

 ------------
 H2O_H2O_4229
 ------------
 Symbolic Z-matrix:
 Charge =  0 Multiplicity = 1

                         Standard orientation:
 ---------------------------------------------------------------------
 Center     Atomic      Atomic             Coordinates (Angstroms)
 Number     Number       Type             X           Y           Z
 ---------------------------------------------------------------------
      1          8           0        0.014783   -3.048500    0.000000
      2          1           0       -0.785026   -3.619299    0.000000
      3          1           0        0.814115   -3.619966    0.000000
      4          8           0        0.014783    3.052380    0.000000
      5          1           0        0.639606    3.810736    0.000000
      6          1           0       -0.905220    3.397491    0.000000
 ---------------------------------------------------------------------

 SCF Done:  E(RHF) =  -33.6505190496     A.U. after   11 cycles
 E2 =    -0.2284471945D+00 EUMP2 =    -0.33878966244112D+02
 CCSD(T)
 CCSD(T)= -0.33896003106D+02

 The electronic state is 1-A'.
 Alpha  occ. eigenvalues --   -1.34975  -1.34943  -0.70602  -0.70570  -0.54639
 Alpha  occ. eigenvalues --   -0.54607  -0.49527  -0.49496
 Alpha virt. eigenvalues --    0.20726   0.20758   0.30958   0.30988   0.81027
 Alpha virt. eigenvalues --    0.81058   0.84167   0.84216   0.87238   0.87276
 Alpha virt. eigenvalues --    1.17873   1.17904   1.22341   1.22372   2.57921

 Mulliken charges:
               1
     1  O   -0.736610
     2  H    0.367877
     3  H    0.368732
     4  O   -0.736556
     5  H    0.367680
     6  H    0.368876
 Sum of Mulliken charges =  -0.00000

 Dipole moment (field-independent basis, Debye):
    X=             -0.6821    Y=             -0.0908    Z=              0.0000  Tot=              0.6881
 Quadrupole moment (field-independent basis, Debye-Ang):
   XX=             -8.1819   YY=             19.9280   ZZ=            -14.9867
   XY=             -1.6419   XZ=              0.0000   YZ=              0.0000

 MP4DQ=-33.890349\MP4SDQ=-33.8923801\CCSD=-33.8934379\CCSD(T)=-33.89600
 Normal termination of Gaussian 16 at Sun Dec 10 06:56:13 2023.
