 Gaussian 16, Revision A.03,
 Gaussian 16:  ES64L-G16RevA.03 25-Dec-2016

 ------------------
 #p CCSD(T)/CEP-31G
 ------------------

 ------------
 H2O_H2O_2194
 ------------
 Symbolic Z-matrix:
 Charge =  0 Multiplicity = 1

                         Standard orientation:
 ---------------------------------------------------------------------
 Center     Atomic      Atomic             Coordinates (Angstroms)
 Number     Number       Type             X           Y           Z
 ---------------------------------------------------------------------
      1          8           0        0.054174   -1.918387    0.000000
      2          1           0       -0.746753   -2.487615    0.000000
      3          1           0        0.852384   -2.491419    0.000000
      4          8           0        0.054174    1.995639    0.000000
      5          1           0       -0.227396    2.937033    0.000000
      6          1           0       -0.745024    1.423984    0.000000
 ---------------------------------------------------------------------

 SCF Done:  E(RHF) =  -33.6514603315     A.U. after   11 cycles
 E2 =    -0.2285981010D+00 EUMP2 =    -0.33880058432436D+02
 CCSD(T)
 CCSD(T)= -0.33897077647D+02

 The electronic state is 1-A'.
 Alpha  occ. eigenvalues --   -1.35463  -1.33853  -0.71099  -0.69421  -0.55179
 Alpha  occ. eigenvalues --   -0.53536  -0.50029  -0.48424
 Alpha virt. eigenvalues --    0.19800   0.22368   0.30449   0.32210   0.79098
 Alpha virt. eigenvalues --    0.80319   0.82308   0.85810   0.86672   0.94152
 Alpha virt. eigenvalues --    1.17409   1.19403   1.21784   1.24289   2.56873

 Mulliken charges:
               1
     1  O   -0.739818
     2  H    0.365065
     3  H    0.375235
     4  O   -0.737185
     5  H    0.358408
     6  H    0.378295
 Sum of Mulliken charges =  -0.00000

 Dipole moment (field-independent basis, Debye):
    X=             -2.4712    Y=             -1.8727    Z=              0.0000  Tot=              3.1006
 Quadrupole moment (field-independent basis, Debye-Ang):
   XX=             -9.9332   YY=              3.1495   ZZ=            -14.9899
   XY=             -4.6149   XZ=              0.0000   YZ=              0.0000

 \MP4DQ=-33.8914106\MP4SDQ=-33.8934546\CCSD=-33.8945003\CCSD(T)=-33.897
 Normal termination of Gaussian 16 at Sun Dec 10 07:06:53 2023.
