 Gaussian 16, Revision A.03,
 Gaussian 16:  ES64L-G16RevA.03 25-Dec-2016

 ------------------
 #p CCSD(T)/CEP-31G
 ------------------

 -----------
 H2O_H2O_556
 -----------
 Symbolic Z-matrix:
 Charge =  0 Multiplicity = 1

                         Standard orientation:
 ---------------------------------------------------------------------
 Center     Atomic      Atomic             Coordinates (Angstroms)
 Number     Number       Type             X           Y           Z
 ---------------------------------------------------------------------
      1          8           0        0.021864   -1.091426    0.000000
      2          1           0       -0.778687   -1.661184    0.000000
      3          1           0        0.820453   -1.663930    0.000000
      4          8           0        0.021864    1.100046    0.000000
      5          1           0        0.543439    1.932792    0.000000
      6          1           0       -0.935024    1.323364    0.000000
 ---------------------------------------------------------------------

 SCF Done:  E(RHF) =  -33.6153258363     A.U. after   11 cycles
 E2 =    -0.2311344572D+00 EUMP2 =    -0.33846460293583D+02
 CCSD(T)
 CCSD(T)= -0.33863792145D+02

 The electronic state is 1-A'.
 Alpha  occ. eigenvalues --   -1.32993  -1.31191  -0.68386  -0.67053  -0.56667
 Alpha  occ. eigenvalues --   -0.47855  -0.44998  -0.44649
 Alpha virt. eigenvalues --    0.21313   0.25381   0.32666   0.33173   0.79573
 Alpha virt. eigenvalues --    0.79933   0.89953   0.97957   1.00156   1.14925
 Alpha virt. eigenvalues --    1.19906   1.23157   1.24790   1.27528   2.51102

 Mulliken charges:
               1
     1  O   -0.709274
     2  H    0.342793
     3  H    0.361902
     4  O   -0.691804
     5  H    0.349991
     6  H    0.346391
 Sum of Mulliken charges =  -0.00000

 Dipole moment (field-independent basis, Debye):
    X=             -0.8862    Y=             -0.2030    Z=              0.0000  Tot=              0.9092
 Quadrupole moment (field-independent basis, Debye-Ang):
   XX=             -8.5764   YY=             -2.3058   ZZ=            -15.0091
   XY=             -0.5978   XZ=              0.0000   YZ=              0.0000

 MP4DQ=-33.8577233\MP4SDQ=-33.8599048\CCSD=-33.8609592\CCSD(T)=-33.8637
 Normal termination of Gaussian 16 at Sun Dec 10 06:35:08 2023.
