 Gaussian 16, Revision A.03,
 Gaussian 16:  ES64L-G16RevA.03 25-Dec-2016

 ------------------
 #p CCSD(T)/CEP-31G
 ------------------

 -----------
 H2O_H2O_880
 -----------
 Symbolic Z-matrix:
 Charge =  0 Multiplicity = 1

                         Standard orientation:
 ---------------------------------------------------------------------
 Center     Atomic      Atomic             Coordinates (Angstroms)
 Number     Number       Type             X           Y           Z
 ---------------------------------------------------------------------
      1          8           0        0.018362   -1.265688    0.000000
      2          1           0       -0.781920   -1.835823    0.000000
      3          1           0        0.817221   -1.837815    0.000000
      4          8           0        0.018362    1.271704    0.000000
      5          1           0        0.592910    2.068824    0.000000
      6          1           0       -0.922006    1.556684    0.000000
 ---------------------------------------------------------------------

 SCF Done:  E(RHF) =  -33.6325051142     A.U. after   11 cycles
 E2 =    -0.2299441231D+00 EUMP2 =    -0.33862449237291D+02
 CCSD(T)
 CCSD(T)= -0.33879879667D+02

 The electronic state is 1-A'.
 Alpha  occ. eigenvalues --   -1.32906  -1.32196  -0.68448  -0.67868  -0.54666
 Alpha  occ. eigenvalues --   -0.48238  -0.47610  -0.46240
 Alpha virt. eigenvalues --    0.21335   0.24136   0.32542   0.32845   0.79374
 Alpha virt. eigenvalues --    0.79856   0.87697   0.88590   1.02490   1.11456
 Alpha virt. eigenvalues --    1.19577   1.21958   1.24220   1.25319   2.55961

 Mulliken charges:
               1
     1  O   -0.704938
     2  H    0.346155
     3  H    0.357404
     4  O   -0.698497
     5  H    0.348655
     6  H    0.351221
 Sum of Mulliken charges =  -0.00000

 Dipole moment (field-independent basis, Debye):
    X=             -0.7871    Y=             -0.1458    Z=              0.0000  Tot=              0.8005
 Quadrupole moment (field-independent basis, Debye-Ang):
   XX=             -8.4400   YY=              0.2161   ZZ=            -14.9937
   XY=             -0.6210   XZ=              0.0000   YZ=              0.0000

 MP4DQ=-33.8739659\MP4SDQ=-33.8760783\CCSD=-33.8771705\CCSD(T)=-33.8798
 Normal termination of Gaussian 16 at Sun Dec 10 06:41:13 2023.
