 Gaussian 16, Revision A.03,
 Gaussian 16:  ES64L-G16RevA.03 25-Dec-2016

 ------------------
 #p CCSD(T)/CEP-31G
 ------------------

 -----------
 H2O_H2O_128
 -----------
 Symbolic Z-matrix:
 Charge =  0 Multiplicity = 1

                         Standard orientation:
 ---------------------------------------------------------------------
 Center     Atomic      Atomic             Coordinates (Angstroms)
 Number     Number       Type             X           Y           Z
 ---------------------------------------------------------------------
      1          8           0        0.011143   -0.868899    0.000000
      2          1           0       -0.789057   -1.439150    0.000000
      3          1           0        0.810084   -1.440912    0.000000
      4          8           0        0.011143    0.871070    0.000000
      5          1           0        0.684717    1.586474    0.000000
      6          1           0       -0.884040    1.276226    0.000000
 ---------------------------------------------------------------------

 SCF Done:  E(RHF) =  -33.5220696613     A.U. after   11 cycles
 E2 =    -0.2365574251D+00 EUMP2 =    -0.33758627086449D+02
 CCSD(T)
 CCSD(T)= -0.33775233729D+02

 The electronic state is 1-A'.
 Alpha  occ. eigenvalues --   -1.35523  -1.29222  -0.69732  -0.66019  -0.63626
 Alpha  occ. eigenvalues --   -0.50388  -0.42716  -0.34251
 Alpha virt. eigenvalues --    0.21272   0.27881   0.32051   0.33684   0.79741
 Alpha virt. eigenvalues --    0.82071   0.89345   0.89539   1.05558   1.20020
 Alpha virt. eigenvalues --    1.21141   1.24314   1.28027   1.35327   2.49936

 Mulliken charges:
               1
     1  O   -0.697633
     2  H    0.339076
     3  H    0.357192
     4  O   -0.690885
     5  H    0.347835
     6  H    0.344414
 Sum of Mulliken charges =   0.00000

 Dipole moment (field-independent basis, Debye):
    X=             -0.4084    Y=             -0.0591    Z=              0.0000  Tot=              0.4127
 Quadrupole moment (field-independent basis, Debye-Ang):
   XX=             -8.5379   YY=             -6.6314   ZZ=            -15.0332
   XY=             -0.2447   XZ=              0.0000   YZ=              0.0000

 MP4DQ=-33.76853\MP4SDQ=-33.7711662\CCSD=-33.7718728\CCSD(T)=-33.775233
 Normal termination of Gaussian 16 at Sun Dec 10 06:27:08 2023.
