 Gaussian 16, Revision A.03,
 Gaussian 16:  ES64L-G16RevA.03 25-Dec-2016

 ------------------
 #p CCSD(T)/CEP-31G
 ------------------

 -----------
 H2O_H2O_483
 -----------
 Symbolic Z-matrix:
 Charge =  0 Multiplicity = 1

                         Standard orientation:
 ---------------------------------------------------------------------
 Center     Atomic      Atomic             Coordinates (Angstroms)
 Number     Number       Type             X           Y           Z
 ---------------------------------------------------------------------
      1          8           0        0.028574   -1.047980    0.000000
      2          1           0       -0.772325   -1.617248    0.000000
      3          1           0        0.826813   -1.620973    0.000000
      4          8           0        0.028574    1.063151    0.000000
      5          1           0        0.437540    1.956600    0.000000
      6          1           0       -0.949217    1.160257    0.000000
 ---------------------------------------------------------------------

 SCF Done:  E(RHF) =  -33.6095439850     A.U. after   11 cycles
 E2 =    -0.2315731105D+00 EUMP2 =    -0.33841117095510D+02
 CCSD(T)
 CCSD(T)= -0.33858413834D+02

 The electronic state is 1-A'.
 Alpha  occ. eigenvalues --   -1.33351  -1.30957  -0.68736  -0.67008  -0.57177
 Alpha  occ. eigenvalues --   -0.48233  -0.44757  -0.43970
 Alpha virt. eigenvalues --    0.21098   0.25858   0.32442   0.33219   0.80059
 Alpha virt. eigenvalues --    0.80836   0.90040   0.98486   0.99576   1.15755
 Alpha virt. eigenvalues --    1.19734   1.23357   1.25280   1.29140   2.50658

 Mulliken charges:
               1
     1  O   -0.719483
     2  H    0.342231
     3  H    0.368412
     4  O   -0.685837
     5  H    0.349272
     6  H    0.345405
 Sum of Mulliken charges =   0.00000

 Dipole moment (field-independent basis, Debye):
    X=             -1.1426    Y=             -0.3592    Z=              0.0000  Tot=              1.1977
 Quadrupole moment (field-independent basis, Debye-Ang):
   XX=             -8.7840   YY=             -3.0204   ZZ=            -15.0092
   XY=             -0.7930   XZ=              0.0000   YZ=              0.0000

 P4DQ=-33.8522859\MP4SDQ=-33.8545103\CCSD=-33.8555398\CCSD(T)=-33.85841
 Normal termination of Gaussian 16 at Sun Dec 10 06:33:47 2023.
