 Gaussian 16, Revision A.03,
 Gaussian 16:  ES64L-G16RevA.03 25-Dec-2016

 ------------------
 #p CCSD(T)/CEP-31G
 ------------------

 ------------
 H2O_H2O_1242
 ------------
 Symbolic Z-matrix:
 Charge =  0 Multiplicity = 1

                         Standard orientation:
 ---------------------------------------------------------------------
 Center     Atomic      Atomic             Coordinates (Angstroms)
 Number     Number       Type             X           Y           Z
 ---------------------------------------------------------------------
      1          8           0        0.051320   -1.420666    0.000000
      2          1           0       -0.749982   -1.989368    0.000000
      3          1           0        0.849153   -1.994223    0.000000
      4          8           0        0.051320    1.484060    0.000000
      5          1           0       -0.104326    2.454256    0.000000
      6          1           0       -0.815961    1.022182    0.000000
 ---------------------------------------------------------------------

 SCF Done:  E(RHF) =  -33.6477986447     A.U. after   11 cycles
 E2 =    -0.2294183058D+00 EUMP2 =    -0.33877216950499D+02
 CCSD(T)
 CCSD(T)= -0.33894421505D+02

 The electronic state is 1-A'.
 Alpha  occ. eigenvalues --   -1.35016  -1.32662  -0.70660  -0.68276  -0.54741
 Alpha  occ. eigenvalues --   -0.51990  -0.49569  -0.47186
 Alpha virt. eigenvalues --    0.19784   0.24357   0.30836   0.33109   0.77973
 Alpha virt. eigenvalues --    0.78603   0.85832   0.86041   0.90558   1.14610
 Alpha virt. eigenvalues --    1.17744   1.21579   1.22493   1.27471   2.59677

 Mulliken charges:
               1
     1  O   -0.736085
     2  H    0.356968
     3  H    0.378647
     4  O   -0.719330
     5  H    0.344704
     6  H    0.375097
 Sum of Mulliken charges =  -0.00000

 Dipole moment (field-independent basis, Debye):
    X=             -2.2700    Y=             -1.5944    Z=              0.0000  Tot=              2.7740
 Quadrupole moment (field-independent basis, Debye-Ang):
   XX=             -9.7498   YY=              0.0401   ZZ=            -14.9912
   XY=             -3.0012   XZ=              0.0000   YZ=              0.0000

 P4DQ=-33.8886083\MP4SDQ=-33.8907246\CCSD=-33.891772\CCSD(T)=-33.894421
 Normal termination of Gaussian 16 at Sun Dec 10 06:47:58 2023.
