 Gaussian 16, Revision A.03,
 Gaussian 16:  ES64L-G16RevA.03 25-Dec-2016

 ------------------
 #p CCSD(T)/CEP-31G
 ------------------

 ------------
 H2O_H2O_1746
 ------------
 Symbolic Z-matrix:
 Charge =  0 Multiplicity = 1

                         Standard orientation:
 ---------------------------------------------------------------------
 Center     Atomic      Atomic             Coordinates (Angstroms)
 Number     Number       Type             X           Y           Z
 ---------------------------------------------------------------------
      1          8           0        0.056145   -1.671253    0.000000
      2          1           0       -0.745027   -2.240137    0.000000
      3          1           0        0.854109   -2.244628    0.000000
      4          8           0        0.056145    1.762880    0.000000
      5          1           0       -0.345508    2.659641    0.000000
      6          1           0       -0.661889    1.092108    0.000000
 ---------------------------------------------------------------------

 SCF Done:  E(RHF) =  -33.6525829066     A.U. after   11 cycles
 E2 =    -0.2288148036D+00 EUMP2 =    -0.33881397710196D+02
 CCSD(T)
 CCSD(T)= -0.33898421171D+02

 The electronic state is 1-A'.
 Alpha  occ. eigenvalues --   -1.35808  -1.33258  -0.71452  -0.68815  -0.55589
 Alpha  occ. eigenvalues --   -0.52980  -0.50390  -0.47846
 Alpha virt. eigenvalues --    0.19292   0.23540   0.30152   0.33154   0.76765
 Alpha virt. eigenvalues --    0.79376   0.83495   0.86163   0.87186   1.01818
 Alpha virt. eigenvalues --    1.17044   1.20344   1.21642   1.27043   2.54801

 Mulliken charges:
               1
     1  O   -0.744059
     2  H    0.365064
     3  H    0.380262
     4  O   -0.739996
     5  H    0.353290
     6  H    0.385438
 Sum of Mulliken charges =  -0.00000

 Dipole moment (field-independent basis, Debye):
    X=             -2.5400    Y=             -2.2712    Z=              0.0000  Tot=              3.4073
 Quadrupole moment (field-independent basis, Debye-Ang):
   XX=            -10.0636   YY=              0.3212   ZZ=            -14.9930
   XY=             -4.4347   XZ=              0.0000   YZ=              0.0000

 MP4DQ=-33.8927116\MP4SDQ=-33.8947821\CCSD=-33.8958186\CCSD(T)=-33.8984
 Normal termination of Gaussian 16 at Sun Dec 10 06:57:20 2023.
