 Gaussian 16, Revision A.03,
 Gaussian 16:  ES64L-G16RevA.03 25-Dec-2016

 ------------------
 #p CCSD(T)/CEP-31G
 ------------------

 ----------
 H2O_H2O_77
 ----------
 Symbolic Z-matrix:
 Charge =  0 Multiplicity = 1

                         Standard orientation:
 ---------------------------------------------------------------------
 Center     Atomic      Atomic             Coordinates (Angstroms)
 Number     Number       Type             X           Y           Z
 ---------------------------------------------------------------------
      1          8           0        0.007455   -0.842962    0.000000
      2          1           0       -0.792550   -1.413486    0.000000
      3          1           0        0.806592   -1.414702    0.000000
      4          8           0        0.007455    0.843928    0.000000
      5          1           0        0.726148    1.513992    0.000000
      6          1           0       -0.859472    1.306468    0.000000
 ---------------------------------------------------------------------

 SCF Done:  E(RHF) =  -33.4981290480     A.U. after   11 cycles
 E2 =    -0.2380915558D+00 EUMP2 =    -0.33736220603872D+02
 CCSD(T)
 CCSD(T)= -0.33752622147D+02

 The electronic state is 1-A'.
 Alpha  occ. eigenvalues --   -1.36376  -1.29007  -0.70184  -0.66257  -0.64813
 Alpha  occ. eigenvalues --   -0.51151  -0.42498  -0.32302
 Alpha virt. eigenvalues --    0.21207   0.28353   0.31786   0.33711   0.79713
 Alpha virt. eigenvalues --    0.82222   0.88248   0.89215   1.05192   1.19622
 Alpha virt. eigenvalues --    1.20601   1.24842   1.28014   1.37735   2.50974

 Mulliken charges:
               1
     1  O   -0.691892
     2  H    0.339014
     3  H    0.352396
     4  O   -0.689024
     5  H    0.345253
     6  H    0.344253
 Sum of Mulliken charges =   0.00000

 Dipole moment (field-independent basis, Debye):
    X=             -0.2719    Y=             -0.0279    Z=              0.0000  Tot=              0.2733
 Quadrupole moment (field-independent basis, Debye-Ang):
   XX=             -8.5535   YY=             -7.3324   ZZ=            -15.0329
   XY=             -0.1736   XZ=              0.0000   YZ=              0.0000

 =-33.7457568\MP4SDQ=-33.7485196\CCSD=-33.7491148\CCSD(T)=-33.7526221\R
 Normal termination of Gaussian 16 at Sun Dec 10 06:26:10 2023.
