 Gaussian 16, Revision A.03,
 Gaussian 16:  ES64L-G16RevA.03 25-Dec-2016

 ------------------
 #p CCSD(T)/CEP-31G
 ------------------

 ------------
 H2O_H2O_4456
 ------------
 Symbolic Z-matrix:
 Charge =  0 Multiplicity = 1

                         Standard orientation:
 ---------------------------------------------------------------------
 Center     Atomic      Atomic             Coordinates (Angstroms)
 Number     Number       Type             X           Y           Z
 ---------------------------------------------------------------------
      1          8           0        0.021859   -3.165563    0.000000
      2          1           0       -0.778051   -3.736220    0.000000
      3          1           0        0.821091   -3.737169    0.000000
      4          8           0        0.021859    3.174232    0.000000
      5          1           0        0.542499    4.007563    0.000000
      6          1           0       -0.935279    3.396475    0.000000
 ---------------------------------------------------------------------

 SCF Done:  E(RHF) =  -33.6507262094     A.U. after   11 cycles
 E2 =    -0.2284361258D+00 EUMP2 =    -0.33879162335144D+02
 CCSD(T)
 CCSD(T)= -0.33896193267D+02

 The electronic state is 1-A'.
 Alpha  occ. eigenvalues --   -1.35054  -1.34990  -0.70682  -0.70616  -0.54730
 Alpha  occ. eigenvalues --   -0.54665  -0.49610  -0.49545
 Alpha virt. eigenvalues --    0.20658   0.20724   0.30891   0.30954   0.80944
 Alpha virt. eigenvalues --    0.81008   0.84071   0.84136   0.87144   0.87220
 Alpha virt. eigenvalues --    1.17802   1.17866   1.22269   1.22333   2.57845

 Mulliken charges:
               1
     1  O   -0.737338
     2  H    0.368102
     3  H    0.369236
     4  O   -0.737243
     5  H    0.367803
     6  H    0.369439
 Sum of Mulliken charges =   0.00000

 Dipole moment (field-independent basis, Debye):
    X=             -1.0090    Y=             -0.2027    Z=              0.0000  Tot=              1.0292
 Quadrupole moment (field-independent basis, Debye-Ang):
   XX=             -8.3479   YY=             20.6272   ZZ=            -14.9869
   XY=             -2.5805   XZ=              0.0000   YZ=              0.0000

 4DQ=-33.8905408\MP4SDQ=-33.8925714\CCSD=-33.8936287\CCSD(T)=-33.896193
 Normal termination of Gaussian 16 at Sun Dec 10 07:00:30 2023.
