 Gaussian 16, Revision A.03,
 Gaussian 16:  ES64L-G16RevA.03 25-Dec-2016

 ------------------
 #p CCSD(T)/CEP-31G
 ------------------

 ------------
 H2O_H2O_3734
 ------------
 Symbolic Z-matrix:
 Charge =  0 Multiplicity = 1

                         Standard orientation:
 ---------------------------------------------------------------------
 Center     Atomic      Atomic             Coordinates (Angstroms)
 Number     Number       Type             X           Y           Z
 ---------------------------------------------------------------------
      1          8           0        0.031740   -2.774268    0.000000
      2          1           0       -0.768391   -3.344615    0.000000
      3          1           0        0.830750   -3.346184    0.000000
      4          8           0        0.031740    2.793457    0.000000
      5          1           0        0.380156    3.712212    0.000000
      6          1           0       -0.950353    2.825080    0.000000
 ---------------------------------------------------------------------

 SCF Done:  E(RHF) =  -33.6504197957     A.U. after   11 cycles
 E2 =    -0.2284612548D+00 EUMP2 =    -0.33878881050479D+02
 CCSD(T)
 CCSD(T)= -0.33895920821D+02

 The electronic state is 1-A'.
 Alpha  occ. eigenvalues --   -1.34987  -1.34800  -0.70614  -0.70421  -0.54645
 Alpha  occ. eigenvalues --   -0.54457  -0.49538  -0.49351
 Alpha virt. eigenvalues --    0.20708   0.20900   0.30941   0.31123   0.81016
 Alpha virt. eigenvalues --    0.81200   0.84127   0.84406   0.87230   0.87461
 Alpha virt. eigenvalues --    1.17857   1.18042   1.22326   1.22512   2.57907

 Mulliken charges:
               1
     1  O   -0.736298
     2  H    0.366974
     3  H    0.369324
     4  O   -0.735953
     5  H    0.366259
     6  H    0.369694
 Sum of Mulliken charges =   0.00000

 Dipole moment (field-independent basis, Debye):
    X=             -1.4627    Y=             -0.4508    Z=              0.0000  Tot=              1.5306
 Quadrupole moment (field-independent basis, Debye-Ang):
   XX=             -8.6962   YY=             15.5879   ZZ=            -14.9867
   XY=             -3.2976   XZ=              0.0000   YZ=              0.0000

 MP4DQ=-33.8902659\MP4SDQ=-33.8922973\CCSD=-33.8933549\CCSD(T)=-33.8959
 Normal termination of Gaussian 16 at Sun Dec 10 06:47:10 2023.
