 Gaussian 16, Revision A.03,
 Gaussian 16:  ES64L-G16RevA.03 25-Dec-2016

 ------------------
 #p CCSD(T)/CEP-31G
 ------------------

 ------------
 H2O_H2O_4970
 ------------
 Symbolic Z-matrix:
 Charge =  0 Multiplicity = 1

                         Standard orientation:
 ---------------------------------------------------------------------
 Center     Atomic      Atomic             Coordinates (Angstroms)
 Number     Number       Type             X           Y           Z
 ---------------------------------------------------------------------
      1          8           0        0.055226   -3.390293    0.000000
      2          1           0       -0.745135   -3.960319    0.000000
      3          1           0        0.854006   -3.962531    0.000000
      4          8           0        0.055226    3.474803    0.000000
      5          1           0       -0.288228    4.395426    0.000000
      6          1           0       -0.704253    2.851346    0.000000
 ---------------------------------------------------------------------

 SCF Done:  E(RHF) =  -33.6517608276     A.U. after   11 cycles
 E2 =    -0.2283831835D+00 EUMP2 =    -0.33880144011071D+02
 CCSD(T)
 CCSD(T)= -0.33897145019D+02

 The electronic state is 1-A'.
 Alpha  occ. eigenvalues --   -1.35570  -1.35042  -0.71202  -0.70666  -0.55303
 Alpha  occ. eigenvalues --   -0.54770  -0.50141  -0.49613
 Alpha virt. eigenvalues --    0.20200   0.20741   0.30440   0.30974   0.80411
 Alpha virt. eigenvalues --    0.80932   0.83439   0.83971   0.86549   0.87117
 Alpha virt. eigenvalues --    1.17331   1.17856   1.21789   1.22322   2.57348

 Mulliken charges:
               1
     1  O   -0.741030
     2  H    0.369442
     3  H    0.371588
     4  O   -0.740847
     5  H    0.368138
     6  H    0.372709
 Sum of Mulliken charges =  -0.00000

 Dipole moment (field-independent basis, Debye):
    X=             -2.5504    Y=             -1.9725    Z=              0.0000  Tot=              3.2242
 Quadrupole moment (field-independent basis, Debye-Ang):
   XX=            -10.0212   YY=             12.5876   ZZ=            -14.9886
   XY=             -8.5406   XZ=              0.0000   YZ=              0.0000

 MP4DQ=-33.8915007\MP4SDQ=-33.8935284\CCSD=-33.8945839\CCSD(T)=-33.8971
 Normal termination of Gaussian 16 at Sun Dec 10 07:11:17 2023.
