 Gaussian 16, Revision A.03,
 Gaussian 16:  ES64L-G16RevA.03 25-Dec-2016

 ------------------
 #p CCSD(T)/CEP-31G
 ------------------

 ------------
 H2O_H2O_1959
 ------------
 Symbolic Z-matrix:
 Charge =  0 Multiplicity = 1

                         Standard orientation:
 ---------------------------------------------------------------------
 Center     Atomic      Atomic             Coordinates (Angstroms)
 Number     Number       Type             X           Y           Z
 ---------------------------------------------------------------------
      1          8           0        0.031745   -1.830275    0.000000
      2          1           0       -0.768673   -2.400220    0.000000
      3          1           0        0.830467   -2.402594    0.000000
      4          8           0        0.031745    1.849432    0.000000
      5          1           0        0.380624    2.768012    0.000000
      6          1           0       -0.950332    1.881550    0.000000
 ---------------------------------------------------------------------

 SCF Done:  E(RHF) =  -33.6471487224     A.U. after   11 cycles
 E2 =    -0.2287938425D+00 EUMP2 =    -0.33875942564861D+02
 CCSD(T)
 CCSD(T)= -0.33893090821D+02

 The electronic state is 1-A'.
 Alpha  occ. eigenvalues --   -1.34288  -1.33845  -0.69912  -0.69443  -0.53938
 Alpha  occ. eigenvalues --   -0.53104  -0.48801  -0.48347
 Alpha virt. eigenvalues --    0.20787   0.22105   0.31472   0.31879   0.77217
 Alpha virt. eigenvalues --    0.80934   0.83007   0.85854   0.89447   0.98408
 Alpha virt. eigenvalues --    1.18423   1.18954   1.22950   1.23407   2.58091

 Mulliken charges:
               1
     1  O   -0.725441
     2  H    0.359182
     3  H    0.366402
     4  O   -0.723236
     5  H    0.356939
     6  H    0.366155
 Sum of Mulliken charges =   0.00000

 Dipole moment (field-independent basis, Debye):
    X=             -1.4431    Y=             -0.4684    Z=              0.0000  Tot=              1.5172
 Quadrupole moment (field-independent basis, Debye-Ang):
   XX=             -8.7357   YY=              6.1793   ZZ=            -14.9848
   XY=             -1.9660   XZ=              0.0000   YZ=              0.0000

 P4DQ=-33.8873854\MP4SDQ=-33.8894429\CCSD=-33.8904983\CCSD(T)=-33.89309
 Normal termination of Gaussian 16 at Sun Dec 10 07:01:51 2023.
