 Gaussian 16, Revision A.03,
 Gaussian 16:  ES64L-G16RevA.03 25-Dec-2016

 ------------------
 #p CCSD(T)/CEP-31G
 ------------------

 -----------
 H2O_H2O_938
 -----------
 Symbolic Z-matrix:
 Charge =  0 Multiplicity = 1

                         Standard orientation:
 ---------------------------------------------------------------------
 Center     Atomic      Atomic             Coordinates (Angstroms)
 Number     Number       Type             X           Y           Z
 ---------------------------------------------------------------------
      1          8           0        0.042995   -1.274545    0.000000
      2          1           0       -0.758204   -1.843390    0.000000
      3          1           0        0.840931   -1.847959    0.000000
      4          8           0        0.042995    1.313211    0.000000
      5          1           0        0.143582    2.290650    0.000000
      6          1           0       -0.914236    1.091369    0.000000
 ---------------------------------------------------------------------

 SCF Done:  E(RHF) =  -33.6397547371     A.U. after   11 cycles
 E2 =    -0.2299410881D+00 EUMP2 =    -0.33869695825194D+02
 CCSD(T)
 CCSD(T)= -0.33887062331D+02

 The electronic state is 1-A'.
 Alpha  occ. eigenvalues --   -1.34011  -1.32276  -0.69636  -0.67965  -0.54601
 Alpha  occ. eigenvalues --   -0.50089  -0.48612  -0.46607
 Alpha virt. eigenvalues --    0.20397   0.24664   0.31662   0.32923   0.78640
 Alpha virt. eigenvalues --    0.82987   0.85459   0.87995   0.95337   1.16049
 Alpha virt. eigenvalues --    1.18763   1.22425   1.23349   1.28792   2.58512

 Mulliken charges:
               1
     1  O   -0.727874
     2  H    0.349916
     3  H    0.373266
     4  O   -0.699660
     5  H    0.342974
     6  H    0.361379
 Sum of Mulliken charges =  -0.00000

 Dipole moment (field-independent basis, Debye):
    X=             -1.8567    Y=             -0.9606    Z=              0.0000  Tot=              2.0905
 Quadrupole moment (field-independent basis, Debye-Ang):
   XX=             -9.3070   YY=             -0.4530   ZZ=            -14.9912
   XY=             -1.9075   XZ=              0.0000   YZ=              0.0000

 MP4DQ=-33.8811583\MP4SDQ=-33.883299\CCSD=-33.8843681\CCSD(T)=-33.88706
 Normal termination of Gaussian 16 at Sun Dec 10 06:42:18 2023.
