 Gaussian 16, Revision A.03,
 Gaussian 16:  ES64L-G16RevA.03 25-Dec-2016

 ------------------
 #p CCSD(T)/CEP-31G
 ------------------

 ------------
 H2O_H2O_2863
 ------------
 Symbolic Z-matrix:
 Charge =  0 Multiplicity = 1

                         Standard orientation:
 ---------------------------------------------------------------------
 Center     Atomic      Atomic             Coordinates (Angstroms)
 Number     Number       Type             X           Y           Z
 ---------------------------------------------------------------------
      1          8           0        0.042971   -2.298274    0.000000
      2          1           0       -0.757510   -2.868130    0.000000
      3          1           0        0.841630   -2.870680    0.000000
      4          8           0        0.042971    2.337048    0.000000
      5          1           0        0.142324    3.314614    0.000000
      6          1           0       -0.913980    2.113997    0.000000
 ---------------------------------------------------------------------

 SCF Done:  E(RHF) =  -33.6501244484     A.U. after   11 cycles
 E2 =    -0.2285135490D+00 EUMP2 =    -0.33878637997414D+02
 CCSD(T)
 CCSD(T)= -0.33895687027D+02

 The electronic state is 1-A'.
 Alpha  occ. eigenvalues --   -1.34980  -1.34426  -0.70608  -0.70032  -0.54622
 Alpha  occ. eigenvalues --   -0.54060  -0.49527  -0.48975
 Alpha virt. eigenvalues --    0.20638   0.21318   0.30929   0.31472   0.81010
 Alpha virt. eigenvalues --    0.81582   0.83024   0.85415   0.87258   0.88550
 Alpha virt. eigenvalues --    1.17852   1.18404   1.22318   1.22883   2.57911

 Mulliken charges:
               1
     1  O   -0.735381
     2  H    0.365090
     3  H    0.370306
     4  O   -0.734090
     5  H    0.363005
     6  H    0.371069
 Sum of Mulliken charges =  -0.00000

 Dipole moment (field-independent basis, Debye):
    X=             -1.9724    Y=             -0.9208    Z=              0.0000  Tot=              2.1768
 Quadrupole moment (field-independent basis, Debye-Ang):
   XX=             -9.2420   YY=              9.3376   ZZ=            -14.9869
   XY=             -3.8297   XZ=              0.0000   YZ=              0.0000

 MP4DQ=-33.8900283\MP4SDQ=-33.8920617\CCSD=-33.8931181\CCSD(T)=-33.8956
 Normal termination of Gaussian 16 at Sun Dec 10 06:31:31 2023.
