 Gaussian 16, Revision A.03,
 Gaussian 16:  ES64L-G16RevA.03 25-Dec-2016

 ------------------
 #p CCSD(T)/CEP-31G
 ------------------

 ------------
 H2O_H2O_3297
 ------------
 Symbolic Z-matrix:
 Charge =  0 Multiplicity = 1

                         Standard orientation:
 ---------------------------------------------------------------------
 Center     Atomic      Atomic             Coordinates (Angstroms)
 Number     Number       Type             X           Y           Z
 ---------------------------------------------------------------------
      1          8           0        0.056720   -2.491543    0.000000
      2          1           0       -0.743945   -3.061140    0.000000
      3          1           0        0.855194   -3.064208    0.000000
      4          8           0        0.056720    2.590642    0.000000
      5          1           0       -0.403497    3.458806    0.000000
      6          1           0       -0.615268    1.873747    0.000000
 ---------------------------------------------------------------------

 SCF Done:  E(RHF) =  -33.6521481123     A.U. after   11 cycles
 E2 =    -0.2283943596D+00 EUMP2 =    -0.33880542471895D+02
 CCSD(T)
 CCSD(T)= -0.33897532069D+02

 The electronic state is 1-A'.
 Alpha  occ. eigenvalues --   -1.35702  -1.34534  -0.71337  -0.70139  -0.55460
 Alpha  occ. eigenvalues --   -0.54267  -0.50278  -0.49111
 Alpha virt. eigenvalues --    0.20047   0.21330   0.30326   0.31531   0.80277
 Alpha virt. eigenvalues --    0.81417   0.83152   0.84543   0.86384   0.87708
 Alpha virt. eigenvalues --    1.17215   1.18386   1.21663   1.22906   2.57212

 Mulliken charges:
               1
     1  O   -0.742419
     2  H    0.368715
     3  H    0.373727
     4  O   -0.741847
     5  H    0.364976
     6  H    0.376848
 Sum of Mulliken charges =  -0.00000

 Dipole moment (field-independent basis, Debye):
    X=             -2.6096    Y=             -2.3418    Z=              0.0000  Tot=              3.5063
 Quadrupole moment (field-independent basis, Debye-Ang):
   XX=            -10.1242   YY=              4.8813   ZZ=            -14.9898
   XY=             -6.7243   XZ=              0.0000   YZ=              0.0000

 P4DQ=-33.8918897\MP4SDQ=-33.8939173\CCSD=-33.8949703\CCSD(T)=-33.89753
 Normal termination of Gaussian 16 at Sun Dec 10 06:39:12 2023.
