 Gaussian 16, Revision A.03,
 Gaussian 16:  ES64L-G16RevA.03 25-Dec-2016

 ------------------
 #p CCSD(T)/CEP-31G
 ------------------

 ------------
 H2O_H2O_1932
 ------------
 Symbolic Z-matrix:
 Charge =  0 Multiplicity = 1

                         Standard orientation:
 ---------------------------------------------------------------------
 Center     Atomic      Atomic             Coordinates (Angstroms)
 Number     Number       Type             X           Y           Z
 ---------------------------------------------------------------------
      1          8           0        0.025268   -1.821018    0.000000
      2          1           0       -0.774983   -2.391198    0.000000
      3          1           0        0.824158   -2.393102    0.000000
      4          8           0        0.025268    1.832738    0.000000
      5          1           0        0.490806    2.698059    0.000000
      6          1           0       -0.944262    1.992483    0.000000
 ---------------------------------------------------------------------

 SCF Done:  E(RHF) =  -33.6465075655     A.U. after   11 cycles
 E2 =    -0.2288115847D+00 EUMP2 =    -0.33875319150244D+02
 CCSD(T)
 CCSD(T)= -0.33892486156D+02

 The electronic state is 1-A'.
 Alpha  occ. eigenvalues --   -1.34120  -1.33845  -0.69742  -0.69450  -0.53819
 Alpha  occ. eigenvalues --   -0.52976  -0.48631  -0.48330
 Alpha virt. eigenvalues --    0.20917   0.22085   0.31601   0.31864   0.77255
 Alpha virt. eigenvalues --    0.80991   0.83138   0.85876   0.90070   0.98320
 Alpha virt. eigenvalues --    1.18568   1.18890   1.23094   1.23407   2.58176

 Mulliken charges:
               1
     1  O   -0.723312
     2  H    0.358768
     3  H    0.364635
     4  O   -0.721817
     5  H    0.357274
     6  H    0.364452
 Sum of Mulliken charges =  -0.00000

 Dipole moment (field-independent basis, Debye):
    X=             -1.1487    Y=             -0.2872    Z=              0.0000  Tot=              1.1841
 Quadrupole moment (field-independent basis, Debye-Ang):
   XX=             -8.5092   YY=              6.4661   ZZ=            -14.9843
   XY=             -1.4943   XZ=              0.0000   YZ=              0.0000

 \MP4DQ=-33.8867748\MP4SDQ=-33.888834\CCSD=-33.8898913\CCSD(T)=-33.8924
 Normal termination of Gaussian 16 at Sun Dec 10 07:01:05 2023.
