 Gaussian 16, Revision A.03,
 Gaussian 16:  ES64L-G16RevA.03 25-Dec-2016

 ------------------
 #p CCSD(T)/CEP-31G
 ------------------

 -----------
 H2O_H2O_943
 -----------
 Symbolic Z-matrix:
 Charge =  0 Multiplicity = 1

                         Standard orientation:
 ---------------------------------------------------------------------
 Center     Atomic      Atomic             Coordinates (Angstroms)
 Number     Number       Type             X           Y           Z
 ---------------------------------------------------------------------
      1          8           0        0.052889   -1.257449    0.000000
      2          1           0       -0.748684   -1.825768    0.000000
      3          1           0        0.850448   -1.831388    0.000000
      4          8           0        0.052889    1.327592    0.000000
      5          1           0       -0.165419    2.285635    0.000000
      6          1           0       -0.782574    0.810380    0.000000
 ---------------------------------------------------------------------

 SCF Done:  E(RHF) =  -33.6446874316     A.U. after   11 cycles
 E2 =    -0.2300112988D+00 EUMP2 =    -0.33874698730415D+02
 CCSD(T)
 CCSD(T)= -0.33891907718D+02

 The electronic state is 1-A'.
 Alpha  occ. eigenvalues --   -1.35228  -1.31977  -0.70890  -0.67924  -0.54799
 Alpha  occ. eigenvalues --   -0.51150  -0.49812  -0.46462
 Alpha virt. eigenvalues --    0.19658   0.25522   0.30699   0.33817   0.77840
 Alpha virt. eigenvalues --    0.82255   0.87828   0.88602   0.93177   1.15799
 Alpha virt. eigenvalues --    1.19315   1.21159   1.22718   1.29687   2.65789

 Mulliken charges:
               1
     1  O   -0.747218
     2  H    0.356632
     3  H    0.386834
     4  O   -0.710226
     5  H    0.338064
     6  H    0.375913
 Sum of Mulliken charges =  -0.00000

 Dipole moment (field-independent basis, Debye):
    X=             -2.2825    Y=             -1.7814    Z=              0.0000  Tot=              2.8954
 Quadrupole moment (field-independent basis, Debye-Ang):
   XX=             -9.8489   YY=             -1.7798   ZZ=            -14.9956
   XY=             -2.8220   XZ=              0.0000   YZ=              0.0000

 \MP4DQ=-33.8859954\MP4SDQ=-33.8881539\CCSD=-33.8891903\CCSD(T)=-33.891
 Normal termination of Gaussian 16 at Sun Dec 10 06:42:24 2023.
