 Gaussian 16, Revision A.03,
 Gaussian 16:  ES64L-G16RevA.03 25-Dec-2016

 ------------------
 #p CCSD(T)/CEP-31G
 ------------------

 ------------
 H2O_H2O_4161
 ------------
 Symbolic Z-matrix:
 Charge =  0 Multiplicity = 1

                         Standard orientation:
 ---------------------------------------------------------------------
 Center     Atomic      Atomic             Coordinates (Angstroms)
 Number     Number       Type             X           Y           Z
 ---------------------------------------------------------------------
      1          8           0        0.037673   -2.995369    0.000000
      2          1           0       -0.762513   -3.565639    0.000000
      3          1           0        0.836628   -3.567361    0.000000
      4          8           0        0.037673    3.023634    0.000000
      5          1           0        0.263279    3.979985    0.000000
      6          1           0       -0.940156    2.926893    0.000000
 ---------------------------------------------------------------------

 SCF Done:  E(RHF) =  -33.6508543563     A.U. after   11 cycles
 E2 =    -0.2284354673D+00 EUMP2 =    -0.33879289823637D+02
 CCSD(T)
 CCSD(T)= -0.33896317046D+02

 The electronic state is 1-A'.
 Alpha  occ. eigenvalues --   -1.35143  -1.34908  -0.70772  -0.70531  -0.54826
 Alpha  occ. eigenvalues --   -0.54590  -0.49700  -0.49466
 Alpha virt. eigenvalues --    0.20577   0.20815   0.30810   0.31041   0.80853
 Alpha virt. eigenvalues --    0.81084   0.83967   0.84200   0.87044   0.87319
 Alpha virt. eigenvalues --    1.17719   1.17951   1.22185   1.22418   2.57759

 Mulliken charges:
               1
     1  O   -0.737814
     2  H    0.367789
     3  H    0.370025
     4  O   -0.737496
     5  H    0.367003
     6  H    0.370493
 Sum of Mulliken charges =   0.00000

 Dipole moment (field-independent basis, Debye):
    X=             -1.7379    Y=             -0.6621    Z=              0.0000  Tot=              1.8598
 Quadrupole moment (field-independent basis, Debye-Ang):
   XX=             -8.9597   YY=             16.7669   ZZ=            -14.9872
   XY=             -4.4103   XZ=              0.0000   YZ=              0.0000

 MP4DQ=-33.8906656\MP4SDQ=-33.8926958\CCSD=-33.8937528\CCSD(T)=-33.8963
 Normal termination of Gaussian 16 at Sun Dec 10 06:55:02 2023.
