 Gaussian 16, Revision A.03,
 Gaussian 16:  ES64L-G16RevA.03 25-Dec-2016

 ------------------
 #p CCSD(T)/CEP-31G
 ------------------

 ------------
 H2O_H2O_4514
 ------------
 Symbolic Z-matrix:
 Charge =  0 Multiplicity = 1

                         Standard orientation:
 ---------------------------------------------------------------------
 Center     Atomic      Atomic             Coordinates (Angstroms)
 Number     Number       Type             X           Y           Z
 ---------------------------------------------------------------------
      1          8           0        0.045338   -3.172652    0.000000
      2          1           0       -0.754929   -3.742807    0.000000
      3          1           0        0.844211   -3.744760    0.000000
      4          8           0        0.045338    3.217231    0.000000
      5          1           0        0.080176    4.199215    0.000000
      6          1           0       -0.894869    2.931720    0.000000
 ---------------------------------------------------------------------

 SCF Done:  E(RHF) =  -33.6512290057     A.U. after   11 cycles
 E2 =    -0.2284142569D+00 EUMP2 =    -0.33879643262603D+02
 CCSD(T)
 CCSD(T)= -0.33896659673D+02

 The electronic state is 1-A'.
 Alpha  occ. eigenvalues --   -1.35304  -1.34977  -0.70934  -0.70600  -0.55007
 Alpha  occ. eigenvalues --   -0.54679  -0.49867  -0.49540
 Alpha virt. eigenvalues --    0.20437   0.20770   0.30673   0.30997   0.80686
 Alpha virt. eigenvalues --    0.81008   0.83764   0.84088   0.86856   0.87225
 Alpha virt. eigenvalues --    1.17574   1.17898   1.22037   1.22364   2.57605

 Mulliken charges:
               1
     1  O   -0.739137
     2  H    0.368443
     3  H    0.370694
     4  O   -0.738834
     5  H    0.367488
     6  H    0.371346
 Sum of Mulliken charges =   0.00000

 Dipole moment (field-independent basis, Debye):
    X=             -2.0928    Y=             -1.0424    Z=              0.0000  Tot=              2.3381
 Quadrupole moment (field-independent basis, Debye-Ang):
   XX=             -9.3720   YY=             16.4315   ZZ=            -14.9877
   XY=             -5.9305   XZ=              0.0000   YZ=              0.0000

 MP4DQ=-33.8910112\MP4SDQ=-33.8930404\CCSD=-33.8940967\CCSD(T)=-33.8966
 Normal termination of Gaussian 16 at Sun Dec 10 07:02:29 2023.
