 Gaussian 16, Revision A.03,
 Gaussian 16:  ES64L-G16RevA.03 25-Dec-2016

 ------------------
 #p CCSD(T)/CEP-31G
 ------------------

 ------------
 H2O_H2O_2762
 ------------
 Symbolic Z-matrix:
 Charge =  0 Multiplicity = 1

                         Standard orientation:
 ---------------------------------------------------------------------
 Center     Atomic      Atomic             Coordinates (Angstroms)
 Number     Number       Type             X           Y           Z
 ---------------------------------------------------------------------
      1          8           0        0.040411   -2.248046    0.000000
      2          1           0       -0.760036   -2.817950    0.000000
      3          1           0        0.839104   -2.820404    0.000000
      4          8           0        0.040411    2.281378    0.000000
      5          1           0        0.203429    3.250363    0.000000
      6          1           0       -0.929070    2.121335    0.000000
 ---------------------------------------------------------------------

 SCF Done:  E(RHF) =  -33.6498036538     A.U. after   11 cycles
 E2 =    -0.2285348000D+00 EUMP2 =    -0.33878338453787D+02
 CCSD(T)
 CCSD(T)= -0.33895396892D+02

 The electronic state is 1-A'.
 Alpha  occ. eigenvalues --   -1.34882  -1.34382  -0.70509  -0.69988  -0.54507
 Alpha  occ. eigenvalues --   -0.53995  -0.49424  -0.48927
 Alpha virt. eigenvalues --    0.20700   0.21360   0.31010   0.31496   0.81096
 Alpha virt. eigenvalues --    0.81647   0.82687   0.85679   0.87387   0.88942
 Alpha virt. eigenvalues --    1.17937   1.18436   1.22406   1.22916   2.58004

 Mulliken charges:
               1
     1  O   -0.734271
     2  H    0.364527
     3  H    0.369764
     4  O   -0.732951
     5  H    0.362574
     6  H    0.370357
 Sum of Mulliken charges =   0.00000

 Dipole moment (field-independent basis, Debye):
    X=             -1.8536    Y=             -0.7930    Z=              0.0000  Tot=              2.0161
 Quadrupole moment (field-independent basis, Debye-Ang):
   XX=             -9.1069   YY=              9.3139   ZZ=            -14.9866
   XY=             -3.4359   XZ=              0.0000   YZ=              0.0000

 \MP4DQ=-33.8897351\MP4SDQ=-33.8917698\CCSD=-33.8928264\CCSD(T)=-33.895
 Normal termination of Gaussian 16 at Sun Dec 10 06:29:37 2023.
