 Gaussian 16, Revision A.03,
 Gaussian 16:  ES64L-G16RevA.03 25-Dec-2016

 ------------------
 #p CCSD(T)/CEP-31G
 ------------------

 ------------
 H2O_H2O_4751
 ------------
 Symbolic Z-matrix:
 Charge =  0 Multiplicity = 1

                         Standard orientation:
 ---------------------------------------------------------------------
 Center     Atomic      Atomic             Coordinates (Angstroms)
 Number     Number       Type             X           Y           Z
 ---------------------------------------------------------------------
      1          8           0        0.003735   -3.329690    0.000000
      2          1           0       -0.795891   -3.900744    0.000000
      3          1           0        0.803251   -3.900899    0.000000
      4          8           0        0.003735    3.329934    0.000000
      5          1           0        0.764301    3.952063    0.000000
      6          1           0       -0.831428    3.847628    0.000000
 ---------------------------------------------------------------------

 SCF Done:  E(RHF) =  -33.6507785935     A.U. after   10 cycles
 E2 =    -0.2284304954D+00 EUMP2 =    -0.33879209088902D+02
 CCSD(T)
 CCSD(T)= -0.33896238546D+02

 The electronic state is 1-A'.
 Alpha  occ. eigenvalues --   -1.35054  -1.35052  -0.70682  -0.70680  -0.54732
 Alpha  occ. eigenvalues --   -0.54731  -0.49610  -0.49608
 Alpha virt. eigenvalues --    0.20662   0.20664   0.30894   0.30896   0.80944
 Alpha virt. eigenvalues --    0.80946   0.84064   0.84069   0.87141   0.87143
 Alpha virt. eigenvalues --    1.17805   1.17806   1.22271   1.22272   2.57847

 Mulliken charges:
               1
     1  O   -0.737512
     2  H    0.368671
     3  H    0.368840
     4  O   -0.737510
     5  H    0.368635
     6  H    0.368874
 Sum of Mulliken charges =  -0.00000

 Dipole moment (field-independent basis, Debye):
    X=             -0.1725    Y=             -0.0057    Z=              0.0000  Tot=              0.1726
 Quadrupole moment (field-independent basis, Debye-Ang):
   XX=             -8.0446   YY=             23.3079   ZZ=            -14.9869
   XY=             -0.4580   XZ=              0.0000   YZ=              0.0000

 MP4DQ=-33.8905865\MP4SDQ=-33.8926169\CCSD=-33.8936743\CCSD(T)=-33.8962
 Normal termination of Gaussian 16 at Sun Dec 10 07:07:13 2023.
