 Gaussian 16, Revision A.03,
 Gaussian 16:  ES64L-G16RevA.03 25-Dec-2016

 ------------------
 #p CCSD(T)/CEP-31G
 ------------------

 -----------
 H2O_H2O_807
 -----------
 Symbolic Z-matrix:
 Charge =  0 Multiplicity = 1

                         Standard orientation:
 ---------------------------------------------------------------------
 Center     Atomic      Atomic             Coordinates (Angstroms)
 Number     Number       Type             X           Y           Z
 ---------------------------------------------------------------------
      1          8           0        0.025271   -1.222718    0.000000
      2          1           0       -0.775310   -1.792434    0.000000
      3          1           0        0.823830   -1.795264    0.000000
      4          8           0        0.025271    1.234408    0.000000
      5          1           0        0.491311    2.099459    0.000000
      6          1           0       -0.944166    1.394715    0.000000
 ---------------------------------------------------------------------

 SCF Done:  E(RHF) =  -33.6310233283     A.U. after   11 cycles
 E2 =    -0.2301512583D+00 EUMP2 =    -0.33861174586563D+02
 CCSD(T)
 CCSD(T)= -0.33878597915D+02

 The electronic state is 1-A'.
 Alpha  occ. eigenvalues --   -1.33014  -1.32030  -0.68553  -0.67726  -0.54989
 Alpha  occ. eigenvalues --   -0.47839  -0.47741  -0.46062
 Alpha virt. eigenvalues --    0.21181   0.24478   0.32482   0.32884   0.79289
 Alpha virt. eigenvalues --    0.80239   0.88927   0.89622   1.01477   1.12739
 Alpha virt. eigenvalues --    1.19530   1.22604   1.24242   1.26382   2.55023

 Mulliken charges:
               1
     1  O   -0.709927
     2  H    0.345146
     3  H    0.361584
     4  O   -0.695730
     5  H    0.347890
     6  H    0.351037
 Sum of Mulliken charges =  -0.00000

 Dipole moment (field-independent basis, Debye):
    X=             -1.0729    Y=             -0.2823    Z=              0.0000  Tot=              1.1094
 Quadrupole moment (field-independent basis, Debye-Ang):
   XX=             -8.6264   YY=             -0.4489   ZZ=            -14.9957
   XY=             -0.8540   XZ=              0.0000   YZ=              0.0000

 4DQ=-33.8726558\MP4SDQ=-33.8747841\CCSD=-33.8758712\CCSD(T)=-33.878597
 Normal termination of Gaussian 16 at Sun Dec 10 06:39:50 2023.
