 Gaussian 16, Revision A.03,
 Gaussian 16:  ES64L-G16RevA.03 25-Dec-2016

 ------------------
 #p CCSD(T)/CEP-31G
 ------------------

 ------------
 H2O_H2O_1566
 ------------
 Symbolic Z-matrix:
 Charge =  0 Multiplicity = 1

                         Standard orientation:
 ---------------------------------------------------------------------
 Center     Atomic      Atomic             Coordinates (Angstroms)
 Number     Number       Type             X           Y           Z
 ---------------------------------------------------------------------
      1          8           0        0.049536   -1.597066    0.000000
      2          1           0       -0.751528   -2.166101    0.000000
      3          1           0        0.847608   -2.170290    0.000000
      4          8           0        0.049536    1.653920    0.000000
      5          1           0       -0.042731    2.632180    0.000000
      6          1           0       -0.845927    1.249381    0.000000
 ---------------------------------------------------------------------

 SCF Done:  E(RHF) =  -33.6487917930     A.U. after   11 cycles
 E2 =    -0.2290267625D+00 EUMP2 =    -0.33877818555471D+02
 CCSD(T)
 CCSD(T)= -0.33894964306D+02

 The electronic state is 1-A'.
 Alpha  occ. eigenvalues --   -1.34936  -1.33226  -0.70572  -0.68784  -0.54610
 Alpha  occ. eigenvalues --   -0.52671  -0.49476  -0.47764
 Alpha virt. eigenvalues --    0.19922   0.23335   0.30868   0.32591   0.75467
 Alpha virt. eigenvalues --    0.79598   0.84323   0.85454   0.88949   1.08077
 Alpha virt. eigenvalues --    1.17783   1.20836   1.22349   1.25198   2.57113

 Mulliken charges:
               1
     1  O   -0.732460
     2  H    0.358761
     3  H    0.374260
     4  O   -0.724760
     5  H    0.350387
     6  H    0.373812
 Sum of Mulliken charges =  -0.00000

 Dipole moment (field-independent basis, Debye):
    X=             -2.2256    Y=             -1.4131    Z=              0.0000  Tot=              2.6363
 Quadrupole moment (field-independent basis, Debye-Ang):
   XX=             -9.6368   YY=              1.9404   ZZ=            -14.9887
   XY=             -3.1751   XZ=              0.0000   YZ=              0.0000

 4\MP4DQ=-33.8892213\MP4SDQ=-33.8913056\CCSD=-33.8923516\CCSD(T)=-33.89
 Normal termination of Gaussian 16 at Sun Dec 10 06:54:00 2023.
