 Gaussian 16, Revision A.03,
 Gaussian 16:  ES64L-G16RevA.03 25-Dec-2016

 ------------------
 #p CCSD(T)/CEP-31G
 ------------------

 ------------
 H2O_H2O_1463
 ------------
 Symbolic Z-matrix:
 Charge =  0 Multiplicity = 1

                         Standard orientation:
 ---------------------------------------------------------------------
 Center     Atomic      Atomic             Coordinates (Angstroms)
 Number     Number       Type             X           Y           Z
 ---------------------------------------------------------------------
      1          8           0        0.042986   -1.553736    0.000000
      2          1           0       -0.757925   -2.122988    0.000000
      3          1           0        0.841212   -2.126746    0.000000
      4          8           0        0.042986    1.592446    0.000000
      5          1           0        0.143077    2.569937    0.000000
      6          1           0       -0.914133    1.370118    0.000000
 ---------------------------------------------------------------------

 SCF Done:  E(RHF) =  -33.6463169661     A.U. after   11 cycles
 E2 =    -0.2291386351D+00 EUMP2 =    -0.33875455601151D+02
 CCSD(T)
 CCSD(T)= -0.33892680245D+02

 The electronic state is 1-A'.
 Alpha  occ. eigenvalues --   -1.34404  -1.33188  -0.70034  -0.68756  -0.54192
 Alpha  occ. eigenvalues --   -0.52259  -0.48928  -0.47678
 Alpha virt. eigenvalues --    0.20320   0.23236   0.31323   0.32445   0.75834
 Alpha virt. eigenvalues --    0.79666   0.84555   0.84925   0.90864   1.10601
 Alpha virt. eigenvalues --    1.18243   1.21012   1.22841   1.24468   2.58858

 Mulliken charges:
               1
     1  O   -0.725506
     2  H    0.355484
     3  H    0.370079
     4  O   -0.717269
     5  H    0.349430
     6  H    0.367783
 Sum of Mulliken charges =  -0.00000

 Dipole moment (field-independent basis, Debye):
    X=             -1.9243    Y=             -0.9641    Z=              0.0000  Tot=              2.1523
 Quadrupole moment (field-independent basis, Debye-Ang):
   XX=             -9.2740   YY=              2.4485   ZZ=            -14.9868
   XY=             -2.4218   XZ=              0.0000   YZ=              0.0000

 MP4DQ=-33.8869118\MP4SDQ=-33.8890037\CCSD=-33.8900587\CCSD(T)=-33.8926
 Normal termination of Gaussian 16 at Sun Dec 10 06:52:05 2023.
