 Gaussian 16, Revision A.03,
 Gaussian 16:  ES64L-G16RevA.03 25-Dec-2016

 ------------------
 #p CCSD(T)/CEP-31G
 ------------------

 ------------
 H2O_H2O_3724
 ------------
 Symbolic Z-matrix:
 Charge =  0 Multiplicity = 1

                         Standard orientation:
 ---------------------------------------------------------------------
 Center     Atomic      Atomic             Coordinates (Angstroms)
 Number     Number       Type             X           Y           Z
 ---------------------------------------------------------------------
      1          8           0        0.057215   -2.709470    0.000000
      2          1           0       -0.743370   -3.279180    0.000000
      3          1           0        0.855769   -3.282022    0.000000
      4          8           0        0.057215    2.823493    0.000000
      5          1           0       -0.512496    3.624078    0.000000
      6          1           0       -0.515337    2.024938    0.000000
 ---------------------------------------------------------------------

 SCF Done:  E(RHF) =  -33.6523391221     A.U. after   11 cycles
 E2 =    -0.2283668886D+00 EUMP2 =    -0.33880706010633D+02
 CCSD(T)
 CCSD(T)= -0.33897689962D+02

 The electronic state is 1-A'.
 Alpha  occ. eigenvalues --   -1.35803  -1.34690  -0.71438  -0.70304  -0.55570
 Alpha  occ. eigenvalues --   -0.54434  -0.50382  -0.49269
 Alpha virt. eigenvalues --    0.19989   0.21158   0.30241   0.31394   0.80171
 Alpha virt. eigenvalues --    0.81261   0.83118   0.84292   0.86273   0.87473
 Alpha virt. eigenvalues --    1.17123   1.18231   1.21575   1.22724   2.57118

 Mulliken charges:
               1
     1  O   -0.743091
     2  H    0.369618
     3  H    0.373478
     4  O   -0.742904
     5  H    0.366371
     6  H    0.376527
 Sum of Mulliken charges =   0.00000

 Dipole moment (field-independent basis, Debye):
    X=             -2.6355    Y=             -2.6819    Z=              0.0000  Tot=              3.7601
 Quadrupole moment (field-independent basis, Debye-Ang):
   XX=            -10.1642   YY=              4.3174   ZZ=            -14.9900
   XY=             -7.6464   XZ=              0.0000   YZ=              0.0000

 MP4DQ=-33.8920498\MP4SDQ=-33.8940762\CCSD=-33.8951298\CCSD(T)=-33.8976
 Normal termination of Gaussian 16 at Sun Dec 10 06:46:59 2023.
