 Gaussian 16, Revision A.03,
 Gaussian 16:  ES64L-G16RevA.03 25-Dec-2016

 ------------------
 #p CCSD(T)/CEP-31G
 ------------------

 ------------
 H2O_H2O_1929
 ------------
 Symbolic Z-matrix:
 Charge =  0 Multiplicity = 1

                         Standard orientation:
 ---------------------------------------------------------------------
 Center     Atomic      Atomic             Coordinates (Angstroms)
 Number     Number       Type             X           Y           Z
 ---------------------------------------------------------------------
      1          8           0        0.014783   -1.825281    0.000000
      2          1           0       -0.785185   -2.395856    0.000000
      3          1           0        0.813956   -2.396970    0.000000
      4          8           0        0.014783    1.829153    0.000000
      5          1           0        0.639819    2.587333    0.000000
      6          1           0       -0.905123    2.174520    0.000000
 ---------------------------------------------------------------------

 SCF Done:  E(RHF) =  -33.6459432402     A.U. after   11 cycles
 E2 =    -0.2288143697D+00 EUMP2 =    -0.33874757609889D+02
 CCSD(T)
 CCSD(T)= -0.33891939344D+02

 The electronic state is 1-A'.
 Alpha  occ. eigenvalues --   -1.33961  -1.33866  -0.69581  -0.69480  -0.53721
 Alpha  occ. eigenvalues --   -0.52865  -0.48482  -0.48323
 Alpha virt. eigenvalues --    0.21048   0.22044   0.31660   0.31895   0.77527
 Alpha virt. eigenvalues --    0.81080   0.83203   0.86026   0.90732   0.97403
 Alpha virt. eigenvalues --    1.18706   1.18815   1.23123   1.23477   2.58218

 Mulliken charges:
               1
     1  O   -0.721399
     2  H    0.358995
     3  H    0.362435
     4  O   -0.720872
     5  H    0.358393
     6  H    0.362447
 Sum of Mulliken charges =  -0.00000

 Dipole moment (field-independent basis, Debye):
    X=             -0.6726    Y=             -0.0950    Z=              0.0000  Tot=              0.6793
 Quadrupole moment (field-independent basis, Debye-Ang):
   XX=             -8.2505   YY=              6.8960   ZZ=            -14.9837
   XY=             -0.8399   XZ=              0.0000   YZ=              0.0000

 P4DQ=-33.8862246\MP4SDQ=-33.888284\CCSD=-33.8893434\CCSD(T)=-33.891939
 Normal termination of Gaussian 16 at Sun Dec 10 07:01:01 2023.
