 Gaussian 16, Revision A.03,
 Gaussian 16:  ES64L-G16RevA.03 25-Dec-2016

 ------------------
 #p CCSD(T)/CEP-31G
 ------------------

 ------------
 H2O_H2O_2477
 ------------
 Symbolic Z-matrix:
 Charge =  0 Multiplicity = 1

                         Standard orientation:
 ---------------------------------------------------------------------
 Center     Atomic      Atomic             Coordinates (Angstroms)
 Number     Number       Type             X           Y           Z
 ---------------------------------------------------------------------
      1          8           0        0.007455   -2.119366    0.000000
      2          1           0       -0.792289   -2.690256    0.000000
      3          1           0        0.806853   -2.690740    0.000000
      4          8           0        0.007455    2.120338    0.000000
      5          1           0        0.725841    2.790732    0.000000
      6          1           0       -0.859684    2.582482    0.000000
 ---------------------------------------------------------------------

 SCF Done:  E(RHF) =  -33.6479028588     A.U. after   11 cycles
 E2 =    -0.2286249357D+00 EUMP2 =    -0.33876527794462D+02
 CCSD(T)
 CCSD(T)= -0.33893641094D+02

 The electronic state is 1-A'.
 Alpha  occ. eigenvalues --   -1.34301  -1.34283  -0.69922  -0.69903  -0.53935
 Alpha  occ. eigenvalues --   -0.53653  -0.48825  -0.48787
 Alpha virt. eigenvalues --    0.21056   0.21478   0.31442   0.31551   0.81459
 Alpha virt. eigenvalues --    0.81490   0.82023   0.87358   0.88594   0.89448
 Alpha virt. eigenvalues --    1.18441   1.18457   1.22869   1.23023   2.58358

 Mulliken charges:
               1
     1  O   -0.727669
     2  H    0.363252
     3  H    0.364419
     4  O   -0.727598
     5  H    0.363083
     6  H    0.364512
 Sum of Mulliken charges =  -0.00000

 Dipole moment (field-independent basis, Debye):
    X=             -0.3414    Y=             -0.0233    Z=              0.0000  Tot=              0.3422
 Quadrupole moment (field-independent basis, Debye-Ang):
   XX=             -8.1167   YY=             10.2546   ZZ=            -14.9845
   XY=             -0.5106   XZ=              0.0000   YZ=              0.0000

 P4DQ=-33.8879618\MP4SDQ=-33.890003\CCSD=-33.891063\CCSD(T)=-33.8936411
 Normal termination of Gaussian 16 at Sun Dec 10 07:11:58 2023.
