 Gaussian 16, Revision A.03,
 Gaussian 16:  ES64L-G16RevA.03 25-Dec-2016

 ------------------
 #p CCSD(T)/CEP-31G
 ------------------

 ------------
 H2O_H2O_4123
 ------------
 Symbolic Z-matrix:
 Charge =  0 Multiplicity = 1

                         Standard orientation:
 ---------------------------------------------------------------------
 Center     Atomic      Atomic             Coordinates (Angstroms)
 Number     Number       Type             X           Y           Z
 ---------------------------------------------------------------------
      1          8           0        0.057079   -2.926253    0.000000
      2          1           0       -0.743432   -3.496068    0.000000
      3          1           0        0.855708   -3.498701    0.000000
      4          8           0        0.057079    3.032821    0.000000
      5          1           0       -0.459160    3.868885    0.000000
      6          1           0       -0.566377    2.273341    0.000000
 ---------------------------------------------------------------------

 SCF Done:  E(RHF) =  -33.6520978979     A.U. after   11 cycles
 E2 =    -0.2283726556D+00 EUMP2 =    -0.33880470553543D+02
 CCSD(T)
 CCSD(T)= -0.33897461559D+02

 The electronic state is 1-A'.
 Alpha  occ. eigenvalues --   -1.35719  -1.34829  -0.71353  -0.70447  -0.55472
 Alpha  occ. eigenvalues --   -0.54567  -0.50295  -0.49405
 Alpha virt. eigenvalues --    0.20068   0.20988   0.30311   0.31226   0.80257
 Alpha virt. eigenvalues --    0.81132   0.83245   0.84158   0.86374   0.87331
 Alpha virt. eigenvalues --    1.17196   1.18082   1.21651   1.22559   2.57204

 Mulliken charges:
               1
     1  O   -0.742239
     2  H    0.369529
     3  H    0.372710
     4  O   -0.742042
     5  H    0.367098
     6  H    0.374943
 Sum of Mulliken charges =   0.00000

 Dipole moment (field-independent basis, Debye):
    X=             -2.6321    Y=             -2.4983    Z=              0.0000  Tot=              3.6290
 Quadrupole moment (field-independent basis, Debye-Ang):
   XX=            -10.1555   YY=              6.5203   ZZ=            -14.9894
   XY=             -8.0483   XZ=              0.0000   YZ=              0.0000

 \MP4DQ=-33.8918198\MP4SDQ=-33.8938467\CCSD=-33.8949011\CCSD(T)=-33.897
 Normal termination of Gaussian 16 at Sun Dec 10 06:54:22 2023.
