 Gaussian 16, Revision A.03,
 Gaussian 16:  ES64L-G16RevA.03 25-Dec-2016

 ------------------
 #p CCSD(T)/CEP-31G
 ------------------

 ------------
 H2O_H2O_3541
 ------------
 Symbolic Z-matrix:
 Charge =  0 Multiplicity = 1

                         Standard orientation:
 ---------------------------------------------------------------------
 Center     Atomic      Atomic             Coordinates (Angstroms)
 Number     Number       Type             X           Y           Z
 ---------------------------------------------------------------------
      1          8           0        0.049507   -2.647390    0.000000
      2          1           0       -0.750972   -3.217248    0.000000
      3          1           0        0.848168   -3.219793    0.000000
      4          8           0        0.049507    2.704345    0.000000
      5          1           0       -0.043766    3.682510    0.000000
      6          1           0       -0.845539    2.298886    0.000000
 ---------------------------------------------------------------------

 SCF Done:  E(RHF) =  -33.6511130982     A.U. after   11 cycles
 E2 =    -0.2284372477D+00 EUMP2 =    -0.33879550345876D+02
 CCSD(T)
 CCSD(T)= -0.33896570148D+02

 The electronic state is 1-A'.
 Alpha  occ. eigenvalues --   -1.35297  -1.34694  -0.70928  -0.70307  -0.54995
 Alpha  occ. eigenvalues --   -0.54386  -0.49859  -0.49256
 Alpha virt. eigenvalues --    0.20431   0.21059   0.30673   0.31272   0.80695
 Alpha virt. eigenvalues --    0.81286   0.83729   0.84425   0.86868   0.87584
 Alpha virt. eigenvalues --    1.17576   1.18174   1.22039   1.22646   2.57606

 Mulliken charges:
               1
     1  O   -0.738779
     2  H    0.367392
     3  H    0.371388
     4  O   -0.738042
     5  H    0.365456
     6  H    0.372585
 Sum of Mulliken charges =  -0.00000

 Dipole moment (field-independent basis, Debye):
    X=             -2.2800    Y=             -1.3409    Z=              0.0000  Tot=              2.6450
 Quadrupole moment (field-independent basis, Debye-Ang):
   XX=             -9.6285   YY=             10.6156   ZZ=            -14.9879
   XY=             -5.5018   XZ=              0.0000   YZ=              0.0000

 \MP4DQ=-33.8909205\MP4SDQ=-33.8929503\CCSD=-33.8940061\CCSD(T)=-33.896
 Normal termination of Gaussian 16 at Sun Dec 10 06:43:38 2023.
