 Gaussian 16, Revision A.03,
 Gaussian 16:  ES64L-G16RevA.03 25-Dec-2016

 ------------------
 #p CCSD(T)/CEP-31G
 ------------------

 -----------
 H2O_H2O_751
 -----------
 Symbolic Z-matrix:
 Charge =  0 Multiplicity = 1

                         Standard orientation:
 ---------------------------------------------------------------------
 Center     Atomic      Atomic             Coordinates (Angstroms)
 Number     Number       Type             X           Y           Z
 ---------------------------------------------------------------------
      1          8           0        0.003735   -1.202344    0.000000
      2          1           0       -0.795988   -1.773262    0.000000
      3          1           0        0.803154   -1.773690    0.000000
      4          8           0        0.003735    1.202587    0.000000
      5          1           0        0.764408    1.824587    0.000000
      6          1           0       -0.831339    1.720425    0.000000
 ---------------------------------------------------------------------

 SCF Done:  E(RHF) =  -33.6263394593     A.U. after   11 cycles
 E2 =    -0.2302969328D+00 EUMP2 =    -0.33856636392095D+02
 CCSD(T)
 CCSD(T)= -0.33874044051D+02

 The electronic state is 1-A'.
 Alpha  occ. eigenvalues --   -1.32699  -1.31768  -0.68175  -0.67481  -0.55267
 Alpha  occ. eigenvalues --   -0.47456  -0.46695  -0.45687
 Alpha virt. eigenvalues --    0.21558   0.24453   0.32772   0.33051   0.78692
 Alpha virt. eigenvalues --    0.79617   0.89304   0.92312   1.04290   1.10653
 Alpha virt. eigenvalues --    1.19803   1.21734   1.24108   1.25766   2.54110

 Mulliken charges:
               1
     1  O   -0.698596
     2  H    0.347904
     3  H    0.350607
     4  O   -0.698246
     5  H    0.349222
     6  H    0.349109
 Sum of Mulliken charges =  -0.00000

 Dipole moment (field-independent basis, Debye):
    X=             -0.1569    Y=             -0.0058    Z=              0.0000  Tot=              0.1570
 Quadrupole moment (field-independent basis, Debye-Ang):
   XX=             -8.2702   YY=             -0.5936   ZZ=            -15.0007
   XY=             -0.1090   XZ=              0.0000   YZ=              0.0000

 MP4DQ=-33.868086\MP4SDQ=-33.8702038\CCSD=-33.8712923\CCSD(T)=-33.87404
 Normal termination of Gaussian 16 at Sun Dec 10 06:38:47 2023.
