 Gaussian 16, Revision A.03,
 Gaussian 16:  ES64L-G16RevA.03 25-Dec-2016

 ------------------
 #p CCSD(T)/CEP-31G
 ------------------

 ------------
 H2O_H2O_2729
 ------------
 Symbolic Z-matrix:
 Charge =  0 Multiplicity = 1

                         Standard orientation:
 ---------------------------------------------------------------------
 Center     Atomic      Atomic             Coordinates (Angstroms)
 Number     Number       Type             X           Y           Z
 ---------------------------------------------------------------------
      1          8           0        0.014783   -2.250748    0.000000
      2          1           0       -0.785110   -2.821428    0.000000
      3          1           0        0.814031   -2.822332    0.000000
      4          8           0        0.014783    2.254624    0.000000
      5          1           0        0.639719    3.012886    0.000000
      6          1           0       -0.905169    2.599870    0.000000
 ---------------------------------------------------------------------

 SCF Done:  E(RHF) =  -33.6486425760     A.U. after   11 cycles
 E2 =    -0.2285721287D+00 EUMP2 =    -0.33877214704749D+02
 CCSD(T)
 CCSD(T)= -0.33894306116D+02

 The electronic state is 1-A'.
 Alpha  occ. eigenvalues --   -1.34477  -1.34419  -0.70100  -0.70039  -0.54081
 Alpha  occ. eigenvalues --   -0.53915  -0.49004  -0.48943
 Alpha virt. eigenvalues --    0.21012   0.21290   0.31341   0.31415   0.81434
 Alpha virt. eigenvalues --    0.81718   0.82770   0.86805   0.87793   0.88400
 Alpha virt. eigenvalues --    1.18293   1.18350   1.22766   1.22854   2.58343

 Mulliken charges:
               1
     1  O   -0.730186
     2  H    0.364114
     3  H    0.366076
     4  O   -0.729973
     5  H    0.363742
     6  H    0.366228
 Sum of Mulliken charges =  -0.00000

 Dipole moment (field-independent basis, Debye):
    X=             -0.6782    Y=             -0.0923    Z=              0.0000  Tot=              0.6845
 Quadrupole moment (field-independent basis, Debye-Ang):
   XX=             -8.2100   YY=             11.4831   ZZ=            -14.9850
   XY=             -1.1120   XZ=              0.0000   YZ=              0.0000

 \MP4DQ=-33.8886353\MP4SDQ=-33.8906727\CCSD=-33.8917323\CCSD(T)=-33.894
 Normal termination of Gaussian 16 at Sun Dec 10 06:29:01 2023.
