 Gaussian 16, Revision A.03,
 Gaussian 16:  ES64L-G16RevA.03 25-Dec-2016

 ------------------
 #p CCSD(T)/CEP-31G
 ------------------

 ---------
 H2O_H2O_4
 ---------
 Symbolic Z-matrix:
 Charge =  0 Multiplicity = 1

                         Standard orientation:
 ---------------------------------------------------------------------
 Center     Atomic      Atomic             Coordinates (Angstroms)
 Number     Number       Type             X           Y           Z
 ---------------------------------------------------------------------
      1          8           0        0.014785   -0.801510    0.000000
      2          1           0       -0.785690   -1.371375    0.000000
      3          1           0        0.813450   -1.373907    0.000000
      4          8           0        0.014785    0.805355    0.000000
      5          1           0        0.640493    1.562980    0.000000
      6          1           0       -0.904815    1.151539    0.000000
 ---------------------------------------------------------------------

 SCF Done:  E(RHF) =  -33.4567866843     A.U. after   11 cycles
 E2 =    -0.2407386123D+00 EUMP2 =    -0.33697525296661D+02
 CCSD(T)
 CCSD(T)= -0.33713598157D+02

 The electronic state is 1-A'.
 Alpha  occ. eigenvalues --   -1.38367  -1.28757  -0.71718  -0.68558  -0.64538
 Alpha  occ. eigenvalues --   -0.52810  -0.42359  -0.29646
 Alpha virt. eigenvalues --    0.20863   0.29037   0.31333   0.33663   0.81033
 Alpha virt. eigenvalues --    0.82147   0.87814   0.88551   1.01738   1.19042
 Alpha virt. eigenvalues --    1.20669   1.24741   1.27441   1.41389   2.53612

 Mulliken charges:
               1
     1  O   -0.687082
     2  H    0.328270
     3  H    0.357893
     4  O   -0.677589
     5  H    0.336236
     6  H    0.342272
 Sum of Mulliken charges =   0.00000

 Dipole moment (field-independent basis, Debye):
    X=             -0.5377    Y=             -0.1201    Z=              0.0000  Tot=              0.5510
 Quadrupole moment (field-independent basis, Debye-Ang):
   XX=             -8.7229   YY=             -8.4925   ZZ=            -15.0113
   XY=             -0.3976   XZ=              0.0000   YZ=              0.0000

 DQ=-33.706474\MP4SDQ=-33.7094356\CCSD=-33.7098228\CCSD(T)=-33.7135982\
 Normal termination of Gaussian 16 at Sun Dec 10 06:24:48 2023.
