 Gaussian 16, Revision A.03,
 Gaussian 16:  ES64L-G16RevA.03 25-Dec-2016

 ------------------
 #p CCSD(T)/CEP-31G
 ------------------

 -----------
 H2O_H2O_530
 -----------
 Symbolic Z-matrix:
 Charge =  0 Multiplicity = 1

                         Standard orientation:
 ---------------------------------------------------------------------
 Center     Atomic      Atomic             Coordinates (Angstroms)
 Number     Number       Type             X           Y           Z
 ---------------------------------------------------------------------
      1          8           0        0.018363   -1.079549    0.000000
      2          1           0       -0.782041   -1.649513    0.000000
      3          1           0        0.817099   -1.651848    0.000000
      4          8           0        0.018363    1.085557    0.000000
      5          1           0        0.593081    1.882555    0.000000
      6          1           0       -0.921944    1.370739    0.000000
 ---------------------------------------------------------------------

 SCF Done:  E(RHF) =  -33.6122427212     A.U. after   11 cycles
 E2 =    -0.2312873182D+00 EUMP2 =    -0.33843530039324D+02
 CCSD(T)
 CCSD(T)= -0.33860837086D+02

 The electronic state is 1-A'.
 Alpha  occ. eigenvalues --   -1.32953  -1.31065  -0.68304  -0.66930  -0.56964
 Alpha  occ. eigenvalues --   -0.47831  -0.44832  -0.44075
 Alpha virt. eigenvalues --    0.21399   0.25445   0.32740   0.33226   0.79150
 Alpha virt. eigenvalues --    0.80095   0.90040   0.98934   0.99634   1.15952
 Alpha virt. eigenvalues --    1.20017   1.23163   1.24699   1.27273   2.50579

 Mulliken charges:
               1
     1  O   -0.706051
     2  H    0.342919
     3  H    0.359723
     4  O   -0.693180
     5  H    0.350408
     6  H    0.346181
 Sum of Mulliken charges =  -0.00000

 Dipole moment (field-independent basis, Debye):
    X=             -0.7392    Y=             -0.1410    Z=              0.0000  Tot=              0.7525
 Quadrupole moment (field-independent basis, Debye-Ang):
   XX=             -8.5003   YY=             -2.4859   ZZ=            -15.0122
   XY=             -0.4780   XZ=              0.0000   YZ=              0.0000

 DQ=-33.8547509\MP4SDQ=-33.8569385\CCSD=-33.8579864\CCSD(T)=-33.8608371
 Normal termination of Gaussian 16 at Sun Dec 10 06:34:40 2023.
