 Gaussian 16, Revision A.03,
 Gaussian 16:  ES64L-G16RevA.03 25-Dec-2016

 ------------------
 #p CCSD(T)/CEP-31G
 ------------------

 -----------
 H2O_H2O_633
 -----------
 Symbolic Z-matrix:
 Charge =  0 Multiplicity = 1

                         Standard orientation:
 ---------------------------------------------------------------------
 Center     Atomic      Atomic             Coordinates (Angstroms)
 Number     Number       Type             X           Y           Z
 ---------------------------------------------------------------------
      1          8           0        0.028573   -1.127751    0.000000
      2          1           0       -0.772233   -1.697150    0.000000
      3          1           0        0.826905   -1.700613    0.000000
      4          8           0        0.028573    1.142931    0.000000
      5          1           0        0.437393    2.036447    0.000000
      6          1           0       -0.949234    1.239877    0.000000
 ---------------------------------------------------------------------

 SCF Done:  E(RHF) =  -33.6228197670     A.U. after   11 cycles
 E2 =    -0.2307677430D+00 EUMP2 =    -0.33853587509977D+02
 CCSD(T)
 CCSD(T)= -0.33870969077D+02

 The electronic state is 1-A'.
 Alpha  occ. eigenvalues --   -1.33123  -1.31514  -0.68607  -0.67346  -0.55952
 Alpha  occ. eigenvalues --   -0.47932  -0.46126  -0.45434
 Alpha virt. eigenvalues --    0.21100   0.25194   0.32472   0.33051   0.79524
 Alpha virt. eigenvalues --    0.80551   0.89657   0.94950   1.01033   1.13400
 Alpha virt. eigenvalues --    1.19625   1.22955   1.24587   1.28249   2.52644

 Mulliken charges:
               1
     1  O   -0.715833
     2  H    0.343614
     3  H    0.365754
     4  O   -0.690024
     5  H    0.348191
     6  H    0.348297
 Sum of Mulliken charges =  -0.00000

 Dipole moment (field-independent basis, Debye):
    X=             -1.1790    Y=             -0.3619    Z=              0.0000  Tot=              1.2333
 Quadrupole moment (field-independent basis, Debye-Ang):
   XX=             -8.7563   YY=             -1.8115   ZZ=            -15.0022
   XY=             -0.8833   XZ=              0.0000   YZ=              0.0000

 MP4DQ=-33.8649443\MP4SDQ=-33.8671116\CCSD=-33.8681791\CCSD(T)=-33.8709
 Normal termination of Gaussian 16 at Sun Dec 10 06:36:34 2023.
