 Gaussian 16, Revision A.03,
 Gaussian 16:  ES64L-G16RevA.03 25-Dec-2016

 ------------------
 #p CCSD(T)/CEP-31G
 ------------------

 -----------
 H2O_H2O_367
 -----------
 Symbolic Z-matrix:
 Charge =  0 Multiplicity = 1

                         Standard orientation:
 ---------------------------------------------------------------------
 Center     Atomic      Atomic             Coordinates (Angstroms)
 Number     Number       Type             X           Y           Z
 ---------------------------------------------------------------------
      1          8           0        0.051365   -0.955386    0.000000
      2          1           0       -0.750750   -1.522940    0.000000
      3          1           0        0.848377   -1.530084    0.000000
      4          8           0        0.051365    1.018633    0.000000
      5          1           0       -0.102892    1.989051    0.000000
      6          1           0       -0.816576    0.557998    0.000000
 ---------------------------------------------------------------------

 SCF Done:  E(RHF) =  -33.5958348114     A.U. after   11 cycles
 E2 =    -0.2326707260D+00 EUMP2 =    -0.33828505537312D+02
 CCSD(T)
 CCSD(T)= -0.33845585614D+02

 The electronic state is 1-A'.
 Alpha  occ. eigenvalues --   -1.36193  -1.30263  -0.72113  -0.68747  -0.54651
 Alpha  occ. eigenvalues --   -0.50663  -0.45951  -0.44475
 Alpha virt. eigenvalues --    0.19786   0.27804   0.30624   0.34119   0.79156
 Alpha virt. eigenvalues --    0.84755   0.89913   0.96107   0.99390   1.15881
 Alpha virt. eigenvalues --    1.19581   1.24613   1.26949   1.32665   2.60228

 Mulliken charges:
               1
     1  O   -0.777250
     2  H    0.352985
     3  H    0.402176
     4  O   -0.661270
     5  H    0.321924
     6  H    0.361434
 Sum of Mulliken charges =  -0.00000

 Dipole moment (field-independent basis, Debye):
    X=             -2.0051    Y=             -1.6018    Z=              0.0000  Tot=              2.5663
 Quadrupole moment (field-independent basis, Debye-Ang):
   XX=             -9.7840   YY=             -5.1274   ZZ=            -14.9879
   XY=             -1.9041   XZ=              0.0000   YZ=              0.0000

 MP4DQ=-33.839285\MP4SDQ=-33.8416483\CCSD=-33.842557\CCSD(T)=-33.845585
 Normal termination of Gaussian 16 at Sun Dec 10 06:31:38 2023.
