 Gaussian 16, Revision A.03,
 Gaussian 16:  ES64L-G16RevA.03 25-Dec-2016

 ------------------
 #p CCSD(T)/CEP-31G
 ------------------

 ------------
 H2O_H2O_2884
 ------------
 Symbolic Z-matrix:
 Charge =  0 Multiplicity = 1

                         Standard orientation:
 ---------------------------------------------------------------------
 Center     Atomic      Atomic             Coordinates (Angstroms)
 Number     Number       Type             X           Y           Z
 ---------------------------------------------------------------------
      1          8           0        0.031742   -2.322213    0.000000
      2          1           0       -0.768498   -2.892408    0.000000
      3          1           0        0.830643   -2.894282    0.000000
      4          8           0        0.031742    2.341390    0.000000
      5          1           0        0.380333    3.260079    0.000000
      6          1           0       -0.950345    2.373201    0.000000
 ---------------------------------------------------------------------

 SCF Done:  E(RHF) =  -33.6494710286     A.U. after   11 cycles
 E2 =    -0.2285341127D+00 EUMP2 =    -0.33878005141313D+02
 CCSD(T)
 CCSD(T)= -0.33895072792D+02

 The electronic state is 1-A'.
 Alpha  occ. eigenvalues --   -1.34740  -1.34471  -0.70366  -0.70085  -0.54349
 Alpha  occ. eigenvalues --   -0.54064  -0.49278  -0.49009
 Alpha virt. eigenvalues --    0.20853   0.21224   0.31135   0.31391   0.81247
 Alpha virt. eigenvalues --    0.81564   0.83232   0.85736   0.87538   0.88316
 Alpha virt. eigenvalues --    1.18064   1.18330   1.22543   1.22811   2.58139

 Mulliken charges:
               1
     1  O   -0.733073
     2  H    0.364631
     3  H    0.368449
     4  O   -0.732293
     5  H    0.363499
     6  H    0.368787
 Sum of Mulliken charges =  -0.00000

 Dipole moment (field-independent basis, Debye):
    X=             -1.4573    Y=             -0.4552    Z=              0.0000  Tot=              1.5268
 Quadrupole moment (field-independent basis, Debye-Ang):
   XX=             -8.7071   YY=             11.1190   ZZ=            -14.9859
   XY=             -2.6518   XZ=              0.0000   YZ=              0.0000

 MP4DQ=-33.8894092\MP4SDQ=-33.891444\CCSD=-33.8925022\CCSD(T)=-33.89507
 Normal termination of Gaussian 16 at Sun Dec 10 06:31:55 2023.
