 Gaussian 16, Revision A.03,
 Gaussian 16:  ES64L-G16RevA.03 25-Dec-2016

 ------------------
 #p CCSD(T)/CEP-31G
 ------------------

 ----------
 H2O_H2O_61
 ----------
 Symbolic Z-matrix:
 Charge =  0 Multiplicity = 1

                         Standard orientation:
 ---------------------------------------------------------------------
 Center     Atomic      Atomic             Coordinates (Angstroms)
 Number     Number       Type             X           Y           Z
 ---------------------------------------------------------------------
      1          8           0        0.037713   -0.814951    0.000000
      2          1           0       -0.764086   -1.382952    0.000000
      3          1           0        0.835044   -1.389205    0.000000
      4          8           0        0.037713    0.843003    0.000000
      5          1           0        0.266027    1.798711    0.000000
      6          1           0       -0.940386    0.749033    0.000000
 ---------------------------------------------------------------------

 SCF Done:  E(RHF) =  -33.4949829087     A.U. after   12 cycles
 E2 =    -0.2375966994D+00 EUMP2 =    -0.33732579608124D+02
 CCSD(T)
 CCSD(T)= -0.33749252350D+02

 The electronic state is 1-A'.
 Alpha  occ. eigenvalues --   -1.38273  -1.28895  -0.73121  -0.69089  -0.60131
 Alpha  occ. eigenvalues --   -0.52469  -0.42788  -0.34712
 Alpha virt. eigenvalues --    0.20324   0.28681   0.31261   0.33505   0.81551
 Alpha virt. eigenvalues --    0.84549   0.88972   0.92449   0.98069   1.19821
 Alpha virt. eigenvalues --    1.21557   1.25078   1.26437   1.39102   2.56230

 Mulliken charges:
               1
     1  O   -0.733960
     2  H    0.332443
     3  H    0.387108
     4  O   -0.653937
     5  H    0.323834
     6  H    0.344512
 Sum of Mulliken charges =  -0.00000

 Dipole moment (field-independent basis, Debye):
    X=             -1.3529    Y=             -0.7615    Z=              0.0000  Tot=              1.5525
 Quadrupole moment (field-independent basis, Debye-Ang):
   XX=             -9.2132   YY=             -7.6850   ZZ=            -14.9623
   XY=             -0.9509   XZ=              0.0000   YZ=              0.0000

 P4DQ=-33.7423973\MP4SDQ=-33.7451667\CCSD=-33.7457486\CCSD(T)=-33.74925
 Normal termination of Gaussian 16 at Sun Dec 10 06:25:52 2023.
