 Gaussian 16, Revision A.03,
 Gaussian 16:  ES64L-G16RevA.03 25-Dec-2016

 ------------------
 #p CCSD(T)/CEP-31G
 ------------------

 -----------
 H2O_H2O_226
 -----------
 Symbolic Z-matrix:
 Charge =  0 Multiplicity = 1

                         Standard orientation:
 ---------------------------------------------------------------------
 Center     Atomic      Atomic             Coordinates (Angstroms)
 Number     Number       Type             X           Y           Z
 ---------------------------------------------------------------------
      1          8           0        0.003735   -0.923131    0.000000
      2          1           0       -0.796034   -1.493984    0.000000
      3          1           0        0.803107   -1.494541    0.000000
      4          8           0        0.003735    0.923373    0.000000
      5          1           0        0.764458    1.545312    0.000000
      6          1           0       -0.831297    1.441278    0.000000
 ---------------------------------------------------------------------

 SCF Done:  E(RHF) =  -33.5564796346     A.U. after   11 cycles
 E2 =    -0.2345002183D+00 EUMP2 =    -0.33790979852945D+02
 CCSD(T)
 CCSD(T)= -0.33807842430D+02

 The electronic state is 1-A'.
 Alpha  occ. eigenvalues --   -1.34197  -1.29666  -0.68822  -0.65803  -0.61809
 Alpha  occ. eigenvalues --   -0.49171  -0.43163  -0.37144
 Alpha virt. eigenvalues --    0.21480   0.27066   0.32512   0.33630   0.78711
 Alpha virt. eigenvalues --    0.81701   0.90004   0.90940   1.07050   1.20428
 Alpha virt. eigenvalues --    1.21146   1.24111   1.28128   1.30477   2.48297

 Mulliken charges:
               1
     1  O   -0.697101
     2  H    0.345808
     3  H    0.351113
     4  O   -0.696349
     5  H    0.349215
     6  H    0.347314
 Sum of Mulliken charges =   0.00000

 Dipole moment (field-independent basis, Debye):
    X=             -0.1394    Y=             -0.0061    Z=              0.0000  Tot=              0.1395
 Quadrupole moment (field-independent basis, Debye-Ang):
   XX=             -8.4131   YY=             -5.4107   ZZ=            -15.0377
   XY=             -0.0769   XZ=              0.0000   YZ=              0.0000

 4DQ=-33.8013723\MP4SDQ=-33.8038219\CCSD=-33.8046759\CCSD(T)=-33.807842
 Normal termination of Gaussian 16 at Sun Dec 10 06:28:59 2023.
