 Gaussian 16, Revision A.03,
 Gaussian 16:  ES64L-G16RevA.03 25-Dec-2016

 ------------------
 #p CCSD(T)/CEP-31G
 ------------------

 ------------
 H2O_H2O_4505
 ------------
 Symbolic Z-matrix:
 Charge =  0 Multiplicity = 1

                         Standard orientation:
 ---------------------------------------------------------------------
 Center     Atomic      Atomic             Coordinates (Angstroms)
 Number     Number       Type             X           Y           Z
 ---------------------------------------------------------------------
      1          8           0        0.018360   -3.193580    0.000000
      2          1           0       -0.781493   -3.764317    0.000000
      3          1           0        0.817648   -3.765107    0.000000
      4          8           0        0.018360    3.199624    0.000000
      5          1           0        0.592308    3.997176    0.000000
      6          1           0       -0.922222    3.483898    0.000000
 ---------------------------------------------------------------------

 SCF Done:  E(RHF) =  -33.6507186788     A.U. after   11 cycles
 E2 =    -0.2284357401D+00 EUMP2 =    -0.33879154418915D+02
 CCSD(T)
 CCSD(T)= -0.33896185571D+02

 The electronic state is 1-A'.
 Alpha  occ. eigenvalues --   -1.35046  -1.35001  -0.70674  -0.70628  -0.54721
 Alpha  occ. eigenvalues --   -0.54677  -0.49601  -0.49557
 Alpha virt. eigenvalues --    0.20667   0.20711   0.30899   0.30942   0.80953
 Alpha virt. eigenvalues --    0.80997   0.84081   0.84125   0.87153   0.87205
 Alpha virt. eigenvalues --    1.17810   1.17854   1.22277   1.22321   2.57854

 Mulliken charges:
               1
     1  O   -0.737308
     2  H    0.368189
     3  H    0.369120
     4  O   -0.737243
     5  H    0.367955
     6  H    0.369287
 Sum of Mulliken charges =  -0.00000

 Dipole moment (field-independent basis, Debye):
    X=             -0.8476    Y=             -0.1413    Z=              0.0000  Tot=              0.8593
 Quadrupole moment (field-independent basis, Debye-Ang):
   XX=             -8.2563   YY=             21.2112   ZZ=            -14.9869
   XY=             -2.1742   XZ=              0.0000   YZ=              0.0000

 MP4DQ=-33.8905331\MP4SDQ=-33.8925636\CCSD=-33.893621\CCSD(T)=-33.89618
 Normal termination of Gaussian 16 at Sun Dec 10 07:02:01 2023.
