 Gaussian 16, Revision A.03,
 Gaussian 16:  ES64L-G16RevA.03 25-Dec-2016

 ------------------
 #p CCSD(T)/CEP-31G
 ------------------

 ------------
 H2O_H2O_3237
 ------------
 Symbolic Z-matrix:
 Charge =  0 Multiplicity = 1

                         Standard orientation:
 ---------------------------------------------------------------------
 Center     Atomic      Atomic             Coordinates (Angstroms)
 Number     Number       Type             X           Y           Z
 ---------------------------------------------------------------------
      1          8           0        0.040408   -2.500662    0.000000
      2          1           0       -0.759951   -3.070689    0.000000
      3          1           0        0.839190   -3.072897    0.000000
      4          8           0        0.040408    2.534006    0.000000
      5          1           0        0.203278    3.503015    0.000000
      6          1           0       -0.929048    2.373814    0.000000
 ---------------------------------------------------------------------

 SCF Done:  E(RHF) =  -33.6503276612     A.U. after   11 cycles
 E2 =    -0.2284819645D+00 EUMP2 =    -0.33878809625697D+02
 CCSD(T)
 CCSD(T)= -0.33895852333D+02

 The electronic state is 1-A'.
 Alpha  occ. eigenvalues --   -1.35009  -1.34608  -0.70636  -0.70221  -0.54661
 Alpha  occ. eigenvalues --   -0.54258  -0.49558  -0.49159
 Alpha virt. eigenvalues --    0.20670   0.21101   0.30915   0.31305   0.80993
 Alpha virt. eigenvalues --    0.81389   0.83821   0.84830   0.87212   0.87786
 Alpha virt. eigenvalues --    1.17832   1.18228   1.22302   1.22701   2.57882

 Mulliken charges:
               1
     1  O   -0.736036
     2  H    0.366058
     3  H    0.369979
     4  O   -0.735225
     5  H    0.364607
     6  H    0.370616
 Sum of Mulliken charges =   0.00000

 Dipole moment (field-independent basis, Debye):
    X=             -1.8587    Y=             -0.7874    Z=              0.0000  Tot=              2.0186
 Quadrupole moment (field-independent basis, Debye-Ang):
   XX=             -9.1025   YY=             11.6519   ZZ=            -14.9869
   XY=             -3.8944   XZ=              0.0000   YZ=              0.0000

 MP4DQ=-33.8901963\MP4SDQ=-33.8922283\CCSD=-33.8932854\CCSD(T)=-33.8958
 Normal termination of Gaussian 16 at Sun Dec 10 06:38:08 2023.
