 Gaussian 16, Revision A.03,
 Gaussian 16:  ES64L-G16RevA.03 25-Dec-2016

 ------------------
 #p CCSD(T)/CEP-31G
 ------------------

 ------------
 H2O_H2O_4762
 ------------
 Symbolic Z-matrix:
 Charge =  0 Multiplicity = 1

                         Standard orientation:
 ---------------------------------------------------------------------
 Center     Atomic      Atomic             Coordinates (Angstroms)
 Number     Number       Type             X           Y           Z
 ---------------------------------------------------------------------
      1          8           0        0.040403   -3.311698    0.000000
      2          1           0       -0.759765   -3.881994    0.000000
      3          1           0        0.839377   -3.883665    0.000000
      4          8           0        0.040403    3.345070    0.000000
      5          1           0        0.202946    4.314133    0.000000
      6          1           0       -0.929000    3.184551    0.000000
 ---------------------------------------------------------------------

 SCF Done:  E(RHF) =  -33.6511656983     A.U. after   11 cycles
 E2 =    -0.2284146611D+00 EUMP2 =    -0.33879580359389D+02
 CCSD(T)
 CCSD(T)= -0.33896598655D+02

 The electronic state is 1-A'.
 Alpha  occ. eigenvalues --   -1.35259  -1.35034  -0.70889  -0.70659  -0.54959
 Alpha  occ. eigenvalues --   -0.54733  -0.49821  -0.49596
 Alpha virt. eigenvalues --    0.20478   0.20707   0.30713   0.30936   0.80732
 Alpha virt. eigenvalues --    0.80954   0.83817   0.84038   0.86906   0.87160
 Alpha virt. eigenvalues --    1.17616   1.17839   1.22079   1.22304   2.57648

 Mulliken charges:
               1
     1  O   -0.738902
     2  H    0.368550
     3  H    0.370352
     4  O   -0.738683
     5  H    0.367868
     6  H    0.370814
 Sum of Mulliken charges =   0.00000

 Dipole moment (field-independent basis, Debye):
    X=             -1.8657    Y=             -0.7794    Z=              0.0000  Tot=              2.0220
 Quadrupole moment (field-independent basis, Debye-Ang):
   XX=             -9.0964   YY=             19.0843   ZZ=            -14.9876
   XY=             -5.3848   XZ=              0.0000   YZ=              0.0000

 P4DQ=-33.8909497\MP4SDQ=-33.892979\CCSD=-33.8940356\CCSD(T)=-33.896598
 Normal termination of Gaussian 16 at Sun Dec 10 07:07:25 2023.
