 Gaussian 16, Revision A.03,
 Gaussian 16:  ES64L-G16RevA.03 25-Dec-2016

 ------------------
 #p CCSD(T)/CEP-31G
 ------------------

 -----------
 H2O_H2O_748
 -----------
 Symbolic Z-matrix:
 Charge =  0 Multiplicity = 1

                         Standard orientation:
 ---------------------------------------------------------------------
 Center     Atomic      Atomic             Coordinates (Angstroms)
 Number     Number       Type             X           Y           Z
 ---------------------------------------------------------------------
      1          8           0        0.057212   -1.131454    0.000000
      2          1           0       -0.744718   -1.699270    0.000000
      3          1           0        0.854410   -1.705892    0.000000
      4          8           0        0.057212    1.237736    0.000000
      5          1           0       -0.456940    2.075087    0.000000
      6          1           0       -0.568137    0.479815    0.000000
 ---------------------------------------------------------------------

 SCF Done:  E(RHF) =  -33.6418584228     A.U. after   11 cycles
 E2 =    -0.2304144192D+00 EUMP2 =    -0.33872272841929D+02
 CCSD(T)
 CCSD(T)= -0.33888918590D+02

 The electronic state is 1-A'.
 Alpha  occ. eigenvalues --   -1.37378  -1.30690  -0.73084  -0.68804  -0.54780
 Alpha  occ. eigenvalues --   -0.51916  -0.50674  -0.45218
 Alpha virt. eigenvalues --    0.18799   0.27357   0.29149   0.37295   0.76545
 Alpha virt. eigenvalues --    0.83258   0.89018   0.90016   0.98288   1.12386
 Alpha virt. eigenvalues --    1.18926   1.19411   1.25992   1.31337   2.71065

 Mulliken charges:
               1
     1  O   -0.783280
     2  H    0.369543
     3  H    0.417277
     4  O   -0.721291
     5  H    0.326586
     6  H    0.391166
 Sum of Mulliken charges =  -0.00000

 Dipole moment (field-independent basis, Debye):
    X=             -2.3997    Y=             -2.8596    Z=              0.0000  Tot=              3.7331
 Quadrupole moment (field-independent basis, Debye-Ang):
   XX=            -10.1082   YY=             -4.6312   ZZ=            -15.0068
   XY=             -3.3663   XZ=              0.0000   YZ=              0.0000

 \MP4DQ=-33.8828926\MP4SDQ=-33.8851136\CCSD=-33.8860476\CCSD(T)=-33.888
 Normal termination of Gaussian 16 at Sun Dec 10 06:38:43 2023.
