 Gaussian 16, Revision A.03,
 Gaussian 16:  ES64L-G16RevA.03 25-Dec-2016

 ------------------
 #p CCSD(T)/CEP-31G
 ------------------

 ----------
 H2O_H2O_67
 ----------
 Symbolic Z-matrix:
 Charge =  0 Multiplicity = 1

                         Standard orientation:
 ---------------------------------------------------------------------
 Center     Atomic      Atomic             Coordinates (Angstroms)
 Number     Number       Type             X           Y           Z
 ---------------------------------------------------------------------
      1          8           0        0.051392   -0.795881    0.000000
      2          1           0       -0.751211   -1.362744    0.000000
      3          1           0        0.847908   -1.371266    0.000000
      4          8           0        0.051392    0.859039    0.000000
      5          1           0       -0.102029    1.829590    0.000000
      6          1           0       -0.816945    0.399152    0.000000
 ---------------------------------------------------------------------

 SCF Done:  E(RHF) =  -33.4798524534     A.U. after   11 cycles
 E2 =    -0.2370274472D+00 EUMP2 =    -0.33716879900520D+02
 CCSD(T)
 CCSD(T)= -0.33733570311D+02

 The electronic state is 1-A'.
 Alpha  occ. eigenvalues --   -1.40913  -1.28612  -0.76606  -0.71260  -0.54791
 Alpha  occ. eigenvalues --   -0.53995  -0.42993  -0.38407
 Alpha virt. eigenvalues --    0.19534   0.29386   0.30289   0.33848   0.80329
 Alpha virt. eigenvalues --    0.83119   0.89107   0.95841   0.96180   1.18778
 Alpha virt. eigenvalues --    1.21664   1.26308   1.28365   1.39622   2.66874

 Mulliken charges:
               1
     1  O   -0.773788
     2  H    0.342183
     3  H    0.412720
     4  O   -0.626721
     5  H    0.288904
     6  H    0.356702
 Sum of Mulliken charges =   0.00000

 Dipole moment (field-independent basis, Debye):
    X=             -1.8112    Y=             -1.6828    Z=              0.0000  Tot=              2.4723
 Quadrupole moment (field-independent basis, Debye-Ang):
   XX=             -9.8177   YY=             -8.1544   ZZ=            -14.9125
   XY=             -1.4911   XZ=              0.0000   YZ=              0.0000

 4DQ=-33.7266593\MP4SDQ=-33.7294436\CCSD=-33.7300045\CCSD(T)=-33.733570
 Normal termination of Gaussian 16 at Sun Dec 10 06:25:59 2023.
