 Gaussian 16, Revision A.03,
 Gaussian 16:  ES64L-G16RevA.03 25-Dec-2016

 ------------------
 #p CCSD(T)/CEP-31G
 ------------------

 -----------
 H2O_H2O_191
 -----------
 Symbolic Z-matrix:
 Charge =  0 Multiplicity = 1

                         Standard orientation:
 ---------------------------------------------------------------------
 Center     Atomic      Atomic             Coordinates (Angstroms)
 Number     Number       Type             X           Y           Z
 ---------------------------------------------------------------------
      1          8           0        0.049597   -0.865901    0.000000
      2          1           0       -0.752685   -1.433220    0.000000
      3          1           0        0.846439   -1.440834    0.000000
      4          8           0        0.049597    0.922543    0.000000
      5          1           0       -0.040574    1.900998    0.000000
      6          1           0       -0.846730    0.519923    0.000000
 ---------------------------------------------------------------------

 SCF Done:  E(RHF) =  -33.5468580417     A.U. after   11 cycles
 E2 =    -0.2346505704D+00 EUMP2 =    -0.33781508612027D+02
 CCSD(T)
 CCSD(T)= -0.33798487438D+02

 The electronic state is 1-A'.
 Alpha  occ. eigenvalues --   -1.37668  -1.29447  -0.73600  -0.69426  -0.55565
 Alpha  occ. eigenvalues --   -0.51781  -0.43615  -0.41647
 Alpha virt. eigenvalues --    0.19850   0.28679   0.30575   0.33792   0.80227
 Alpha virt. eigenvalues --    0.84397   0.89621   0.95851   0.97660   1.18309
 Alpha virt. eigenvalues --    1.20977   1.25894   1.28363   1.35439   2.60248

 Mulliken charges:
               1
     1  O   -0.777438
     2  H    0.347590
     3  H    0.404051
     4  O   -0.642376
     5  H    0.313066
     6  H    0.355107
 Sum of Mulliken charges =  -0.00000

 Dipole moment (field-independent basis, Debye):
    X=             -1.8375    Y=             -1.4471    Z=              0.0000  Tot=              2.3389
 Quadrupole moment (field-independent basis, Debye-Ang):
   XX=             -9.7063   YY=             -6.5583   ZZ=            -14.9635
   XY=             -1.5428   XZ=              0.0000   YZ=              0.0000

 MP4DQ=-33.7919212\MP4SDQ=-33.7944669\CCSD=-33.7952406\CCSD(T)=-33.7984
 Normal termination of Gaussian 16 at Sun Dec 10 06:28:19 2023.
