 Gaussian 16, Revision A.03,
 Gaussian 16:  ES64L-G16RevA.03 25-Dec-2016

 ------------------
 #p CCSD(T)/CEP-31G
 ------------------

 ------------
 H2O_H2O_1900
 ------------
 Symbolic Z-matrix:
 Charge =  0 Multiplicity = 1

                         Standard orientation:
 ---------------------------------------------------------------------
 Center     Atomic      Atomic             Coordinates (Angstroms)
 Number     Number       Type             X           Y           Z
 ---------------------------------------------------------------------
      1          8           0        0.000000   -0.000000    1.814088
      2          1           0        0.000000    0.799571    2.385220
      3          1           0       -0.000000   -0.799571    2.385220
      4          8           0        0.000000   -0.000000   -1.814088
      5          1           0       -0.000000   -0.799571   -2.385220
      6          1           0        0.000000    0.799571   -2.385220
 ---------------------------------------------------------------------

 SCF Done:  E(RHF) =  -33.6455248796     A.U. after   10 cycles
 E2 =    -0.2288262669D+00 EUMP2 =    -0.33874351146469D+02
 CCSD(T)
 CCSD(T)= -0.33891545221D+02

 The electronic state is 1-AG.
 Alpha  occ. eigenvalues --   -1.33873  -1.33841  -0.69493  -0.69458  -0.53670
 Alpha  occ. eigenvalues --   -0.52750  -0.48409  -0.48269
 Alpha virt. eigenvalues --    0.21109   0.22063   0.31668   0.31964   0.77532
 Alpha virt. eigenvalues --    0.81089   0.83319   0.86021   0.91333   0.97229
 Alpha virt. eigenvalues --    1.18781   1.18817   1.23113   1.23572   2.58229

 Mulliken charges:
               1
     1  O   -0.720034
     2  H    0.360017
     3  H    0.360017
     4  O   -0.720034
     5  H    0.360017
     6  H    0.360017
 Sum of Mulliken charges =  -0.00000

 Dipole moment (field-independent basis, Debye):
    X=             -0.0000    Y=              0.0000    Z=              0.0000  Tot=              0.0000
 Quadrupole moment (field-independent basis, Debye-Ang):
   XX=            -14.9834   YY=             -8.1181   ZZ=              6.9536
   XY=              0.0000   XZ=              0.0000   YZ=             -0.0000

 -33.8858263\MP4SDQ=-33.8878868\CCSD=-33.8889476\CCSD(T)=-33.8915452\RM
 Normal termination of Gaussian 16 at Sun Dec 10 07:00:16 2023.
