 Gaussian 16, Revision A.03,
 Gaussian 16:  ES64L-G16RevA.03 25-Dec-2016

 ------------------
 #p CCSD(T)/CEP-31G
 ------------------

 -----------
 H2O_H2O_942
 -----------
 Symbolic Z-matrix:
 Charge =  0 Multiplicity = 1

                         Standard orientation:
 ---------------------------------------------------------------------
 Center     Atomic      Atomic             Coordinates (Angstroms)
 Number     Number       Type             X           Y           Z
 ---------------------------------------------------------------------
      1          8           0        0.051332   -1.261135    0.000000
      2          1           0       -0.750183   -1.829537    0.000000
      3          1           0        0.848950   -1.834991    0.000000
      4          8           0        0.051332    1.324491    0.000000
      5          1           0       -0.103951    2.294745    0.000000
      6          1           0       -0.816122    0.862938    0.000000
 ---------------------------------------------------------------------

 SCF Done:  E(RHF) =  -33.6436567165     A.U. after   11 cycles
 E2 =    -0.2300062314D+00 EUMP2 =    -0.33873662947909D+02
 CCSD(T)
 CCSD(T)= -0.33890915841D+02

 The electronic state is 1-A'.
 Alpha  occ. eigenvalues --   -1.34952  -1.32058  -0.70607  -0.67923  -0.54725
 Alpha  occ. eigenvalues --   -0.50973  -0.49536  -0.46516
 Alpha virt. eigenvalues --    0.19809   0.25328   0.30918   0.33537   0.78023
 Alpha virt. eigenvalues --    0.82514   0.87852   0.88166   0.93118   1.16160
 Alpha virt. eigenvalues --    1.19085   1.21628   1.22714   1.29603   2.63648

 Mulliken charges:
               1
     1  O   -0.742996
     2  H    0.354985
     3  H    0.383707
     4  O   -0.707083
     5  H    0.338983
     6  H    0.372404
 Sum of Mulliken charges =  -0.00000

 Dipole moment (field-independent basis, Debye):
    X=             -2.2157    Y=             -1.6004    Z=              0.0000  Tot=              2.7332
 Quadrupole moment (field-independent basis, Debye-Ang):
   XX=             -9.7564   YY=             -1.4656   ZZ=            -14.9942
   XY=             -2.6384   XZ=              0.0000   YZ=              0.0000

 MP4DQ=-33.8850059\MP4SDQ=-33.8871611\CCSD=-33.8882055\CCSD(T)=-33.8909
 Normal termination of Gaussian 16 at Sun Dec 10 06:42:22 2023.
