 Gaussian 16, Revision A.03,
 Gaussian 16:  ES64L-G16RevA.03 25-Dec-2016

 ------------------
 #p CCSD(T)/CEP-31G
 ------------------

 ------------
 H2O_H2O_2120
 ------------
 Symbolic Z-matrix:
 Charge =  0 Multiplicity = 1

                         Standard orientation:
 ---------------------------------------------------------------------
 Center     Atomic      Atomic             Coordinates (Angstroms)
 Number     Number       Type             X           Y           Z
 ---------------------------------------------------------------------
      1          8           0        0.055272   -1.874623    0.000000
      2          1           0       -0.745712   -2.443772    0.000000
      3          1           0        0.853425   -2.447734    0.000000
      4          8           0        0.055272    1.959012    0.000000
      5          1           0       -0.287174    2.880009    0.000000
      6          1           0       -0.704888    1.336386    0.000000
 ---------------------------------------------------------------------

 SCF Done:  E(RHF) =  -33.6519239067     A.U. after   11 cycles
 E2 =    -0.2286140974D+00 EUMP2 =    -0.33880538004073D+02
 CCSD(T)
 CCSD(T)= -0.33897548415D+02

 The electronic state is 1-A'.
 Alpha  occ. eigenvalues --   -1.35598  -1.33751  -0.71236  -0.69314  -0.55340
 Alpha  occ. eigenvalues --   -0.53452  -0.50170  -0.48328
 Alpha virt. eigenvalues --    0.19619   0.22587   0.30329   0.32388   0.78752
 Alpha virt. eigenvalues --    0.80130   0.82450   0.85841   0.86554   0.95001
 Alpha virt. eigenvalues --    1.17285   1.19621   1.21673   1.24859   2.56425

 Mulliken charges:
               1
     1  O   -0.741301
     2  H    0.365528
     3  H    0.376439
     4  O   -0.738795
     5  H    0.357771
     6  H    0.380358
 Sum of Mulliken charges =   0.00000

 Dipole moment (field-independent basis, Debye):
    X=             -2.5189    Y=             -2.0536    Z=              0.0000  Tot=              3.2500
 Quadrupole moment (field-independent basis, Debye-Ang):
   XX=            -10.0082   YY=              2.2755   ZZ=            -14.9907
   XY=             -4.7340   XZ=              0.0000   YZ=              0.0000

 MP4DQ=-33.8918777\MP4SDQ=-33.8939253\CCSD=-33.8949684\CCSD(T)=-33.8975
 Normal termination of Gaussian 16 at Sun Dec 10 07:05:33 2023.
