 Gaussian 16, Revision A.03,
 Gaussian 16:  ES64L-G16RevA.03 25-Dec-2016

 ------------------
 #p CCSD(T)/CEP-31G
 ------------------

 ------------
 H2O_H2O_2130
 ------------
 Symbolic Z-matrix:
 Charge =  0 Multiplicity = 1

                         Standard orientation:
 ---------------------------------------------------------------------
 Center     Atomic      Atomic             Coordinates (Angstroms)
 Number     Number       Type             X           Y           Z
 ---------------------------------------------------------------------
      1          8           0        0.018361   -1.930475    0.000000
      2          1           0       -0.781677   -2.500953    0.000000
      3          1           0        0.817465   -2.502261    0.000000
      4          8           0        0.018361    1.936507    0.000000
      5          1           0        0.592567    2.733873    0.000000
      6          1           0       -0.922129    2.221084    0.000000
 ---------------------------------------------------------------------

 SCF Done:  E(RHF) =  -33.6469995008     A.U. after   11 cycles
 E2 =    -0.2287278191D+00 EUMP2 =    -0.33875727319912D+02
 CCSD(T)
 CCSD(T)= -0.33892871570D+02

 The electronic state is 1-A'.
 Alpha  occ. eigenvalues --   -1.34157  -1.34031  -0.69778  -0.69644  -0.53825
 Alpha  occ. eigenvalues --   -0.53250  -0.48671  -0.48522
 Alpha virt. eigenvalues --    0.21011   0.21817   0.31557   0.31736   0.78885
 Alpha virt. eigenvalues --    0.81263   0.82631   0.86575   0.89477   0.94259
 Alpha virt. eigenvalues --    1.18549   1.18680   1.23011   1.23258   2.58233

 Mulliken charges:
               1
     1  O   -0.724733
     2  H    0.360548
     3  H    0.364220
     4  O   -0.724105
     5  H    0.359797
     6  H    0.364274
 Sum of Mulliken charges =  -0.00000

 Dipole moment (field-independent basis, Debye):
    X=             -0.8376    Y=             -0.1466    Z=              0.0000  Tot=              0.8503
 Quadrupole moment (field-independent basis, Debye-Ang):
   XX=             -8.3106   YY=              7.9281   ZZ=            -14.9842
   XY=             -1.1380   XZ=              0.0000   YZ=              0.0000

 \MP4DQ=-33.8871754\MP4SDQ=-33.8892258\CCSD=-33.8902844\CCSD(T)=-33.892
 Normal termination of Gaussian 16 at Sun Dec 10 07:05:44 2023.
