 Gaussian 16, Revision A.03,
 Gaussian 16:  ES64L-G16RevA.03 25-Dec-2016

 ------------------
 #p CCSD(T)/CEP-31G
 ------------------

 ------------
 H2O_H2O_4013
 ------------
 Symbolic Z-matrix:
 Charge =  0 Multiplicity = 1

                         Standard orientation:
 ---------------------------------------------------------------------
 Center     Atomic      Atomic             Coordinates (Angstroms)
 Number     Number       Type             X           Y           Z
 ---------------------------------------------------------------------
      1          8           0        0.042965   -2.909870    0.000000
      2          1           0       -0.757327   -3.479993    0.000000
      3          1           0        0.841814   -3.482011    0.000000
      4          8           0        0.042965    2.948673    0.000000
      5          1           0        0.141992    3.926272    0.000000
      6          1           0       -0.913912    2.725305    0.000000
 ---------------------------------------------------------------------

 SCF Done:  E(RHF) =  -33.6509566839     A.U. after   11 cycles
 E2 =    -0.2284335696D+00 EUMP2 =    -0.33879390253526D+02
 CCSD(T)
 CCSD(T)= -0.33896414512D+02

 The electronic state is 1-A'.
 Alpha  occ. eigenvalues --   -1.35202  -1.34861  -0.70831  -0.70481  -0.54890
 Alpha  occ. eigenvalues --   -0.54548  -0.49761  -0.49420
 Alpha virt. eigenvalues --    0.20523   0.20871   0.30758   0.31094   0.80792
 Alpha virt. eigenvalues --    0.81128   0.83894   0.84237   0.86977   0.87374
 Alpha virt. eigenvalues --    1.17665   1.18002   1.22130   1.22470   2.57702

 Mulliken charges:
               1
     1  O   -0.738188
     2  H    0.367728
     3  H    0.370460
     4  O   -0.737757
     5  H    0.366642
     6  H    0.371114
 Sum of Mulliken charges =   0.00000

 Dipole moment (field-independent basis, Debye):
    X=             -1.9813    Y=             -0.9099    Z=              0.0000  Tot=              2.1803
 Quadrupole moment (field-independent basis, Debye-Ang):
   XX=             -9.2366   YY=             14.8133   ZZ=            -14.9874
   XY=             -5.0188   XZ=              0.0000   YZ=              0.0000

 MP4DQ=-33.8907638\MP4SDQ=-33.8927938\CCSD=-33.8938505\CCSD(T)=-33.8964
 Normal termination of Gaussian 16 at Sun Dec 10 06:52:20 2023.
