 Gaussian 16, Revision A.03,
 Gaussian 16:  ES64L-G16RevA.03 25-Dec-2016

 ------------------
 #p CCSD(T)/CEP-31G
 ------------------

 ------------
 H2O_H2O_1474
 ------------
 Symbolic Z-matrix:
 Charge =  0 Multiplicity = 1

                         Standard orientation:
 ---------------------------------------------------------------------
 Center     Atomic      Atomic             Coordinates (Angstroms)
 Number     Number       Type             X           Y           Z
 ---------------------------------------------------------------------
      1          8           0        0.057292   -1.512919    0.000000
      2          1           0       -0.744064   -2.081544    0.000000
      3          1           0        0.855070   -2.086552    0.000000
      4          8           0        0.057292    1.626787    0.000000
      5          1           0       -0.511333    2.428143    0.000000
      6          1           0       -0.516342    0.829008    0.000000
 ---------------------------------------------------------------------

 SCF Done:  E(RHF) =  -33.6552493315     A.U. after   11 cycles
 E2 =    -0.2290220252D+00 EUMP2 =    -0.33884271356707D+02
 CCSD(T)
 CCSD(T)= -0.33901231412D+02

 The electronic state is 1-A'.
 Alpha  occ. eigenvalues --   -1.36524  -1.32615  -0.72173  -0.68290  -0.56443
 Alpha  occ. eigenvalues --   -0.52422  -0.51144  -0.47228
 Alpha virt. eigenvalues --    0.18852   0.24792   0.29632   0.35119   0.76904
 Alpha virt. eigenvalues --    0.78131   0.84698   0.86467   0.90035   1.05851
 Alpha virt. eigenvalues --    1.16384   1.20193   1.21589   1.29952   2.52776

 Mulliken charges:
               1
     1  O   -0.757301
     2  H    0.369051
     3  H    0.390140
     4  O   -0.750101
     5  H    0.349191
     6  H    0.399020
 Sum of Mulliken charges =  -0.00000

 Dipole moment (field-independent basis, Debye):
    X=             -2.5702    Y=             -2.8841    Z=              0.0000  Tot=              3.8631
 Quadrupole moment (field-independent basis, Debye-Ang):
   XX=            -10.1346   YY=             -2.3267   ZZ=            -14.9995
   XY=             -4.5449   XZ=              0.0000   YZ=              0.0000

 8\MP4DQ=-33.8954698\MP4SDQ=-33.8975628\CCSD=-33.8985858\CCSD(T)=-33.90
 Normal termination of Gaussian 16 at Sun Dec 10 06:52:18 2023.
