 Gaussian 16, Revision A.03,
 Gaussian 16:  ES64L-G16RevA.03 25-Dec-2016

 ------------------
 #p CCSD(T)/CEP-31G
 ------------------

 -----------
 H2O_H2O_813
 -----------
 Symbolic Z-matrix:
 Charge =  0 Multiplicity = 1

                         Standard orientation:
 ---------------------------------------------------------------------
 Center     Atomic      Atomic             Coordinates (Angstroms)
 Number     Number       Type             X           Y           Z
 ---------------------------------------------------------------------
      1          8           0        0.042998   -1.208072    0.000000
      2          1           0       -0.758289   -1.776794    0.000000
      3          1           0        0.840846   -1.781610    0.000000
      4          8           0        0.042998    1.246725    0.000000
      5          1           0        0.143737    2.224149    0.000000
      6          1           0       -0.914268    1.025031    0.000000
 ---------------------------------------------------------------------

 SCF Done:  E(RHF) =  -33.6361406620     A.U. after   11 cycles
 E2 =    -0.2302577797D+00 EUMP2 =    -0.33866398441712D+02
 CCSD(T)
 CCSD(T)= -0.33883775787D+02

 The electronic state is 1-A'.
 Alpha  occ. eigenvalues --   -1.33953  -1.31992  -0.69570  -0.67793  -0.54883
 Alpha  occ. eigenvalues --   -0.49231  -0.48602  -0.46248
 Alpha virt. eigenvalues --    0.20416   0.25089   0.31722   0.33044   0.78634
 Alpha virt. eigenvalues --    0.83153   0.88684   0.89108   0.96615   1.15516
 Alpha virt. eigenvalues --    1.18922   1.22312   1.23568   1.29906   2.57371

 Mulliken charges:
               1
     1  O   -0.731386
     2  H    0.348881
     3  H    0.375125
     4  O   -0.693661
     5  H    0.342006
     6  H    0.359036
 Sum of Mulliken charges =  -0.00000

 Dipole moment (field-independent basis, Debye):
    X=             -1.8299    Y=             -0.9548    Z=              0.0000  Tot=              2.0641
 Quadrupole moment (field-independent basis, Debye-Ang):
   XX=             -9.3177   YY=             -1.2174   ZZ=            -14.9934
   XY=             -1.7847   XZ=              0.0000   YZ=              0.0000

 MP4DQ=-33.877824\MP4SDQ=-33.8799827\CCSD=-33.8810484\CCSD(T)=-33.88377
 Normal termination of Gaussian 16 at Sun Dec 10 06:39:57 2023.
