 Gaussian 16, Revision A.03,
 Gaussian 16:  ES64L-G16RevA.03 25-Dec-2016

 ------------------
 #p CCSD(T)/CEP-31G
 ------------------

 ------------
 H2O_H2O_1643
 ------------
 Symbolic Z-matrix:
 Charge =  0 Multiplicity = 1

                         Standard orientation:
 ---------------------------------------------------------------------
 Center     Atomic      Atomic             Coordinates (Angstroms)
 Number     Number       Type             X           Y           Z
 ---------------------------------------------------------------------
      1          8           0        0.052862   -1.629691    0.000000
      2          1           0       -0.748265   -2.198640    0.000000
      3          1           0        0.850871   -2.203003    0.000000
      4          8           0        0.052862    1.699917    0.000000
      5          1           0       -0.166200    2.657788    0.000000
      6          1           0       -0.782194    1.182049    0.000000
 ---------------------------------------------------------------------

 SCF Done:  E(RHF) =  -33.6503859885     A.U. after   11 cycles
 E2 =    -0.2289373531D+00 EUMP2 =    -0.33879323341608D+02
 CCSD(T)
 CCSD(T)= -0.33896416254D+02

 The electronic state is 1-A'.
 Alpha  occ. eigenvalues --   -1.35293  -1.33250  -0.70933  -0.68805  -0.54979
 Alpha  occ. eigenvalues --   -0.52848  -0.49850  -0.47812
 Alpha virt. eigenvalues --    0.19662   0.23403   0.30568   0.32757   0.75687
 Alpha virt. eigenvalues --    0.79541   0.83935   0.85927   0.87953   1.05640
 Alpha virt. eigenvalues --    1.17479   1.20617   1.22051   1.25832   2.56087

 Mulliken charges:
               1
     1  O   -0.737167
     2  H    0.361232
     3  H    0.376813
     4  O   -0.730663
     5  H    0.351490
     6  H    0.378294
 Sum of Mulliken charges =   0.00000

 Dipole moment (field-independent basis, Debye):
    X=             -2.3819    Y=             -1.7427    Z=              0.0000  Tot=              2.9514
 Quadrupole moment (field-independent basis, Debye-Ang):
   XX=             -9.8433   YY=              1.4384   ZZ=            -14.9903
   XY=             -3.6980   XZ=              0.0000   YZ=              0.0000

 \MP4DQ=-33.8906896\MP4SDQ=-33.8927675\CCSD=-33.893809\CCSD(T)=-33.8964
 Normal termination of Gaussian 16 at Sun Dec 10 06:55:26 2023.
