 Gaussian 16, Revision A.03,
 Gaussian 16:  ES64L-G16RevA.03 25-Dec-2016

 ------------------
 #p CCSD(T)/CEP-31G
 ------------------

 ------------
 H2O_H2O_1843
 ------------
 Symbolic Z-matrix:
 Charge =  0 Multiplicity = 1

                         Standard orientation:
 ---------------------------------------------------------------------
 Center     Atomic      Atomic             Coordinates (Angstroms)
 Number     Number       Type             X           Y           Z
 ---------------------------------------------------------------------
      1          8           0        0.052856   -1.736049    0.000000
      2          1           0       -0.748177   -2.305129    0.000000
      3          1           0        0.850960   -2.309230    0.000000
      4          8           0        0.052856    1.806292    0.000000
      5          1           0       -0.166362    2.764129    0.000000
      6          1           0       -0.782115    1.288288    0.000000
 ---------------------------------------------------------------------

 SCF Done:  E(RHF) =  -33.6507220957     A.U. after   11 cycles
 E2 =    -0.2287862514D+00 EUMP2 =    -0.33879508347164D+02
 CCSD(T)
 CCSD(T)= -0.33896569673D+02

 The electronic state is 1-A'.
 Alpha  occ. eigenvalues --   -1.35314  -1.33509  -0.70951  -0.69065  -0.54999
 Alpha  occ. eigenvalues --   -0.53139  -0.49871  -0.48074
 Alpha virt. eigenvalues --    0.19728   0.22941   0.30548   0.32512   0.76383
 Alpha virt. eigenvalues --    0.79974   0.83180   0.85934   0.87315   1.01013
 Alpha virt. eigenvalues --    1.17500   1.20099   1.21947   1.25047   2.56302

 Mulliken charges:
               1
     1  O   -0.737497
     2  H    0.362578
     3  H    0.375696
     4  O   -0.732981
     5  H    0.354384
     6  H    0.377820
 Sum of Mulliken charges =   0.00000

 Dipole moment (field-independent basis, Debye):
    X=             -2.3950    Y=             -1.7273    Z=              0.0000  Tot=              2.9529
 Quadrupole moment (field-independent basis, Debye-Ang):
   XX=             -9.8431   YY=              2.2800   ZZ=            -14.9898
   XY=             -3.9475   XZ=              0.0000   YZ=              0.0000

 7\MP4DQ=-33.8908712\MP4SDQ=-33.8929338\CCSD=-33.8939763\CCSD(T)=-33.89
 Normal termination of Gaussian 16 at Sun Dec 10 06:59:07 2023.
