 Gaussian 16, Revision A.03,
 Gaussian 16:  ES64L-G16RevA.03 25-Dec-2016

 ------------------
 #p CCSD(T)/CEP-31G
 ------------------

 -----------
 H2O_H2O_290
 -----------
 Symbolic Z-matrix:
 Charge =  0 Multiplicity = 1

                         Standard orientation:
 ---------------------------------------------------------------------
 Center     Atomic      Atomic             Coordinates (Angstroms)
 Number     Number       Type             X           Y           Z
 ---------------------------------------------------------------------
      1          8           0        0.047597   -0.922500    0.000000
      2          1           0       -0.754430   -1.490178    0.000000
      3          1           0        0.844697   -1.497076    0.000000
      4          8           0        0.047597    0.972856    0.000000
      5          1           0        0.021173    1.955102    0.000000
      6          1           0       -0.872991    0.629308    0.000000
 ---------------------------------------------------------------------

 SCF Done:  E(RHF) =  -33.5799156354     A.U. after   11 cycles
 E2 =    -0.2333599266D+00 EUMP2 =    -0.33813275561978D+02
 CCSD(T)
 CCSD(T)= -0.33830409917D+02

 The electronic state is 1-A'.
 Alpha  occ. eigenvalues --   -1.36021  -1.30052  -0.71810  -0.68469  -0.56078
 Alpha  occ. eigenvalues --   -0.50544  -0.44122  -0.43385
 Alpha virt. eigenvalues --    0.20072   0.27840   0.31044   0.33665   0.79973
 Alpha virt. eigenvalues --    0.84861   0.89851   0.96379   0.98527   1.17509
 Alpha virt. eigenvalues --    1.19866   1.25510   1.27054   1.33223   2.56777

 Mulliken charges:
               1
     1  O   -0.769279
     2  H    0.348036
     3  H    0.396103
     4  O   -0.654446
     5  H    0.326033
     6  H    0.353553
 Sum of Mulliken charges =   0.00000

 Dipole moment (field-independent basis, Debye):
    X=             -1.8216    Y=             -1.2554    Z=              0.0000  Tot=              2.2123
 Quadrupole moment (field-independent basis, Debye-Ang):
   XX=             -9.5962   YY=             -5.4331   ZZ=            -14.9848
   XY=             -1.5351   XZ=              0.0000   YZ=              0.0000

 \MP4DQ=-33.8240289\MP4SDQ=-33.8264448\CCSD=-33.8273282\CCSD(T)=-33.830
 Normal termination of Gaussian 16 at Sun Dec 10 06:30:11 2023.
