 Gaussian 16, Revision A.03,
 Gaussian 16:  ES64L-G16RevA.03 25-Dec-2016

 ------------------
 #p CCSD(T)/CEP-31G
 ------------------

 ------------
 H2O_H2O_1741
 ------------
 Symbolic Z-matrix:
 Charge =  0 Multiplicity = 1

                         Standard orientation:
 ---------------------------------------------------------------------
 Center     Atomic      Atomic             Coordinates (Angstroms)
 Number     Number       Type             X           Y           Z
 ---------------------------------------------------------------------
      1          8           0        0.049532   -1.690130    0.000000
      2          1           0       -0.751452   -2.259279    0.000000
      3          1           0        0.847686   -2.263241    0.000000
      4          8           0        0.049532    1.746998    0.000000
      5          1           0       -0.042873    2.725245    0.000000
      6          1           0       -0.845873    1.342331    0.000000
 ---------------------------------------------------------------------

 SCF Done:  E(RHF) =  -33.6493627760     A.U. after   11 cycles
 E2 =    -0.2288803094D+00 EUMP2 =    -0.33878243085405D+02
 CCSD(T)
 CCSD(T)= -0.33895351029D+02

 The electronic state is 1-A'.
 Alpha  occ. eigenvalues --   -1.34992  -1.33455  -0.70627  -0.69014  -0.54644
 Alpha  occ. eigenvalues --   -0.52974  -0.49534  -0.48001
 Alpha virt. eigenvalues --    0.19959   0.22943   0.30819   0.32417   0.75642
 Alpha virt. eigenvalues --    0.80004   0.83576   0.85652   0.88212   1.03888
 Alpha virt. eigenvalues --    1.17768   1.20227   1.22238   1.24621   2.56880

 Mulliken charges:
               1
     1  O   -0.733277
     2  H    0.360264
     3  H    0.373632
     4  O   -0.727713
     5  H    0.353002
     6  H    0.374091
 Sum of Mulliken charges =  -0.00000

 Dipole moment (field-independent basis, Debye):
    X=             -2.2379    Y=             -1.4031    Z=              0.0000  Tot=              2.6414
 Quadrupole moment (field-independent basis, Debye-Ang):
   XX=             -9.6339   YY=              2.7465   ZZ=            -14.9884
   XY=             -3.3776   XZ=              0.0000   YZ=              0.0000

 MP4DQ=-33.8896359\MP4SDQ=-33.8917058\CCSD=-33.8927511\CCSD(T)=-33.8953
 Normal termination of Gaussian 16 at Sun Dec 10 06:57:14 2023.
