 Gaussian 16, Revision A.03,
 Gaussian 16:  ES64L-G16RevA.03 25-Dec-2016

 ------------------
 #p CCSD(T)/CEP-31G
 ------------------

 ------------
 H2O_H2O_3827
 ------------
 Symbolic Z-matrix:
 Charge =  0 Multiplicity = 1

                         Standard orientation:
 ---------------------------------------------------------------------
 Center     Atomic      Atomic             Coordinates (Angstroms)
 Number     Number       Type             X           Y           Z
 ---------------------------------------------------------------------
      1          8           0        0.007455   -2.837344    0.000000
      2          1           0       -0.792245   -3.408295    0.000000
      3          1           0        0.806897   -3.408657    0.000000
      4          8           0        0.007455    2.838318    0.000000
      5          1           0        0.725789    3.508767    0.000000
      6          1           0       -0.859720    3.300395    0.000000
 ---------------------------------------------------------------------

 SCF Done:  E(RHF) =  -33.6501501312     A.U. after   11 cycles
 E2 =    -0.2284681284D+00 EUMP2 =    -0.33878618259635D+02
 CCSD(T)
 CCSD(T)= -0.33895665707D+02

 The electronic state is 1-A'.
 Alpha  occ. eigenvalues --   -1.34854  -1.34844  -0.70480  -0.70470  -0.54497
 Alpha  occ. eigenvalues --   -0.54486  -0.49400  -0.49391
 Alpha virt. eigenvalues --    0.20824   0.20841   0.31057   0.31066   0.81152
 Alpha virt. eigenvalues --    0.81163   0.84260   0.84434   0.87381   0.87399
 Alpha virt. eigenvalues --    1.17979   1.17988   1.22450   1.22459   2.58033

 Mulliken charges:
               1
     1  O   -0.735325
     2  H    0.367399
     3  H    0.367926
     4  O   -0.735306
     5  H    0.367297
     6  H    0.368009
 Sum of Mulliken charges =   0.00000

 Dipole moment (field-independent basis, Debye):
    X=             -0.3437    Y=             -0.0229    Z=              0.0000  Tot=              0.3444
 Quadrupole moment (field-independent basis, Debye-Ang):
   XX=             -8.0815   YY=             17.9778   ZZ=            -14.9862
   XY=             -0.7492   XZ=              0.0000   YZ=              0.0000

 Q=-33.8900087\MP4SDQ=-33.8920408\CCSD=-33.8930991\CCSD(T)=-33.8956657\
 Normal termination of Gaussian 16 at Sun Dec 10 06:48:54 2023.
