 Gaussian 16, Revision A.03,
 Gaussian 16:  ES64L-G16RevA.03 25-Dec-2016

 ------------------
 #p CCSD(T)/CEP-31G
 ------------------

 ----------
 H2O_H2O_11
 ----------
 Symbolic Z-matrix:
 Charge =  0 Multiplicity = 1

                         Standard orientation:
 ---------------------------------------------------------------------
 Center     Atomic      Atomic             Coordinates (Angstroms)
 Number     Number       Type             X           Y           Z
 ---------------------------------------------------------------------
      1          8           0        0.037714   -0.788364    0.000000
      2          1           0       -0.764157   -1.356262    0.000000
      3          1           0        0.834972   -1.362722    0.000000
      4          8           0        0.037714    0.816407    0.000000
      5          1           0        0.266153    1.772085    0.000000
      6          1           0       -0.940397    0.722562    0.000000
 ---------------------------------------------------------------------

 SCF Done:  E(RHF) =  -33.4648433890     A.U. after   12 cycles
 E2 =    -0.2391870802D+00 EUMP2 =    -0.33704030469216D+02
 CCSD(T)
 CCSD(T)= -0.33720514399D+02

 The electronic state is 1-A'.
 Alpha  occ. eigenvalues --   -1.39652  -1.28642  -0.74168  -0.69952  -0.60470
 Alpha  occ. eigenvalues --   -0.53531  -0.42611  -0.32778
 Alpha virt. eigenvalues --    0.20170   0.28870   0.31252   0.33509   0.81551
 Alpha virt. eigenvalues --    0.84377   0.88583   0.91916   0.97618   1.19829
 Alpha virt. eigenvalues --    1.21766   1.24423   1.26301   1.40939   2.58062

 Mulliken charges:
               1
     1  O   -0.724560
     2  H    0.327057
     3  H    0.386803
     4  O   -0.649907
     5  H    0.314738
     6  H    0.345868
 Sum of Mulliken charges =  -0.00000

 Dipole moment (field-independent basis, Debye):
    X=             -1.3353    Y=             -0.7927    Z=              0.0000  Tot=              1.5529
 Quadrupole moment (field-independent basis, Debye-Ang):
   XX=             -9.2362   YY=             -8.4505   ZZ=            -14.9429
   XY=             -0.9622   XZ=              0.0000   YZ=              0.0000

 4DQ=-33.7134883\MP4SDQ=-33.7163829\CCSD=-33.7168342\CCSD(T)=-33.720514
 Normal termination of Gaussian 16 at Sun Dec 10 06:24:56 2023.
