 Gaussian 16, Revision A.03,
 Gaussian 16:  ES64L-G16RevA.03 25-Dec-2016

 ------------------
 #p CCSD(T)/CEP-31G
 ------------------

 -----------
 H2O_H2O_325
 -----------
 Symbolic Z-matrix:
 Charge =  0 Multiplicity = 1

                         Standard orientation:
 ---------------------------------------------------------------------
 Center     Atomic      Atomic             Coordinates (Angstroms)
 Number     Number       Type             X           Y           Z
 ---------------------------------------------------------------------
      1          8           0       -0.000000    0.000000    0.976446
      2          1           0        0.000000   -0.799571    1.547578
      3          1           0        0.000000    0.799571    1.547578
      4          8           0        0.000000   -0.000000   -0.976446
      5          1           0        0.000000    0.799571   -1.547578
      6          1           0        0.000000   -0.799571   -1.547578
 ---------------------------------------------------------------------

 SCF Done:  E(RHF) =  -33.5811119636     A.U. after   10 cycles
 E2 =    -0.2330626487D+00 EUMP2 =    -0.33814174612293D+02
 CCSD(T)
 CCSD(T)= -0.33831226301D+02

 The electronic state is 1-AG.
 Alpha  occ. eigenvalues --   -1.33442  -1.30129  -0.68387  -0.66119  -0.59875
 Alpha  occ. eigenvalues --   -0.48417  -0.43688  -0.39699
 Alpha virt. eigenvalues --    0.21562   0.26395   0.32768   0.33530   0.78310
 Alpha virt. eigenvalues --    0.81194   0.90226   0.93272   1.05990   1.20350
 Alpha virt. eigenvalues --    1.21788   1.23644   1.26079   1.27837   2.48098

 Mulliken charges:
               1
     1  O   -0.697453
     2  H    0.348727
     3  H    0.348727
     4  O   -0.697453
     5  H    0.348727
     6  H    0.348727
 Sum of Mulliken charges =   0.00000

 Dipole moment (field-independent basis, Debye):
    X=              0.0000    Y=              0.0000    Z=              0.0000  Tot=              0.0000
 Quadrupole moment (field-independent basis, Debye-Ang):
   XX=            -15.0324   YY=             -8.3603   ZZ=             -4.3259
   XY=              0.0000   XZ=             -0.0000   YZ=             -0.0000

 .8249278\MP4SDQ=-33.8272476\CCSD=-33.828196\CCSD(T)=-33.8312263\RMSD=3
 Normal termination of Gaussian 16 at Sun Dec 10 06:30:51 2023.
