 Gaussian 16, Revision A.03,
 Gaussian 16:  ES64L-G16RevA.03 25-Dec-2016

 ------------------
 #p CCSD(T)/CEP-31G
 ------------------

 ------------
 H2O_H2O_1977
 ------------
 Symbolic Z-matrix:
 Charge =  0 Multiplicity = 1

                         Standard orientation:
 ---------------------------------------------------------------------
 Center     Atomic      Atomic             Coordinates (Angstroms)
 Number     Number       Type             X           Y           Z
 ---------------------------------------------------------------------
      1          8           0        0.007455   -1.853448    0.000000
      2          1           0       -0.792314   -2.424303    0.000000
      3          1           0        0.806828   -2.424856    0.000000
      4          8           0        0.007455    1.854420    0.000000
      5          1           0        0.725870    2.524782    0.000000
      6          1           0       -0.859664    2.316601    0.000000
 ---------------------------------------------------------------------

 SCF Done:  E(RHF) =  -33.6459985151     A.U. after   11 cycles
 E2 =    -0.2287919945D+00 EUMP2 =    -0.33874790509645D+02
 CCSD(T)
 CCSD(T)= -0.33891967842D+02

 The electronic state is 1-A'.
 Alpha  occ. eigenvalues --   -1.33949  -1.33915  -0.69569  -0.69532  -0.53708
 Alpha  occ. eigenvalues --   -0.52919  -0.48481  -0.48361
 Alpha virt. eigenvalues --    0.21087   0.21975   0.31635   0.31890   0.77955
 Alpha virt. eigenvalues --    0.81170   0.83074   0.86292   0.90720   0.96079
 Alpha virt. eigenvalues --    1.18721   1.18758   1.23078   1.23470   2.58216

 Mulliken charges:
               1
     1  O   -0.721496
     2  H    0.359917
     3  H    0.361587
     4  O   -0.721369
     5  H    0.359702
     6  H    0.361660
 Sum of Mulliken charges =  -0.00000

 Dipole moment (field-independent basis, Debye):
    X=             -0.3395    Y=             -0.0238    Z=              0.0000  Tot=              0.3404
 Quadrupole moment (field-independent basis, Debye-Ang):
   XX=             -8.1463   YY=              7.3454   ZZ=            -14.9836
   XY=             -0.4256   XZ=              0.0000   YZ=              0.0000

 P4DQ=-33.8862569\MP4SDQ=-33.8883139\CCSD=-33.8893739\CCSD(T)=-33.89196
 Normal termination of Gaussian 16 at Sun Dec 10 07:02:47 2023.
