 Gaussian 16, Revision A.03,
 Gaussian 16:  ES64L-G16RevA.03 25-Dec-2016

 ------------------
 #p CCSD(T)/CEP-31G
 ------------------

 ------------
 H2O_H2O_1015
 ------------
 Symbolic Z-matrix:
 Charge =  0 Multiplicity = 1

                         Standard orientation:
 ---------------------------------------------------------------------
 Center     Atomic      Atomic             Coordinates (Angstroms)
 Number     Number       Type             X           Y           Z
 ---------------------------------------------------------------------
      1          8           0        0.047566   -1.308019    0.000000
      2          1           0       -0.753753   -1.876697    0.000000
      3          1           0        0.845382   -1.881600    0.000000
      4          8           0        0.047566    1.358493    0.000000
      5          1           0        0.019916    2.340707    0.000000
      6          1           0       -0.872593    1.013798    0.000000
 ---------------------------------------------------------------------

 SCF Done:  E(RHF) =  -33.6431647875     A.U. after   11 cycles
 E2 =    -0.2298133737D+00 EUMP2 =    -0.33872978161197D+02
 CCSD(T)
 CCSD(T)= -0.33890286651D+02

 The electronic state is 1-A'.
 Alpha  occ. eigenvalues --   -1.34481  -1.32344  -0.70121  -0.68033  -0.54573
 Alpha  occ. eigenvalues --   -0.50919  -0.49054  -0.46770
 Alpha virt. eigenvalues --    0.20097   0.24724   0.31284   0.33062   0.78434
 Alpha virt. eigenvalues --    0.81980   0.85550   0.87471   0.93262   1.16439
 Alpha virt. eigenvalues --    1.18541   1.22299   1.22836   1.28699   2.60905

 Mulliken charges:
               1
     1  O   -0.733166
     2  H    0.352733
     3  H    0.376972
     4  O   -0.705912
     5  H    0.342031
     6  H    0.367342
 Sum of Mulliken charges =   0.00000

 Dipole moment (field-independent basis, Debye):
    X=             -2.0687    Y=             -1.2648    Z=              0.0000  Tot=              2.4247
 Quadrupole moment (field-independent basis, Debye-Ang):
   XX=             -9.5402   YY=             -0.4947   ZZ=            -14.9913
   XY=             -2.3524   XZ=              0.0000   YZ=              0.0000

 1\MP4DQ=-33.8844064\MP4SDQ=-33.8865448\CCSD=-33.8876037\CCSD(T)=-33.89
 Normal termination of Gaussian 16 at Sun Dec 10 06:43:44 2023.
