 Gaussian 16, Revision A.03,
 Gaussian 16:  ES64L-G16RevA.03 25-Dec-2016

 ------------------
 #p CCSD(T)/CEP-31G
 ------------------

 -----------
 H2O_H2O_457
 -----------
 Symbolic Z-matrix:
 Charge =  0 Multiplicity = 1

                         Standard orientation:
 ---------------------------------------------------------------------
 Center     Atomic      Atomic             Coordinates (Angstroms)
 Number     Number       Type             X           Y           Z
 ---------------------------------------------------------------------
      1          8           0        0.025273   -1.036584    0.000000
      2          1           0       -0.775488   -1.606046    0.000000
      3          1           0        0.823651   -1.609382    0.000000
      4          8           0        0.025273    1.048258    0.000000
      5          1           0        0.491586    1.913161    0.000000
      6          1           0       -0.944113    1.208872    0.000000
 ---------------------------------------------------------------------

 SCF Done:  E(RHF) =  -33.6055658336     A.U. after   11 cycles
 E2 =    -0.2317567551D+00 EUMP2 =    -0.33837322588744D+02
 CCSD(T)
 CCSD(T)= -0.33854587691D+02

 The electronic state is 1-A'.
 Alpha  occ. eigenvalues --   -1.33302  -1.30824  -0.68629  -0.66865  -0.57563
 Alpha  occ. eigenvalues --   -0.48204  -0.44575  -0.43267
 Alpha virt. eigenvalues --    0.21205   0.25909   0.32534   0.33266   0.80263
 Alpha virt. eigenvalues --    0.80298   0.90106   0.98120   1.00274   1.16776
 Alpha virt. eigenvalues --    1.19875   1.23375   1.25524   1.28674   2.50045

 Mulliken charges:
               1
     1  O   -0.715234
     2  H    0.341797
     3  H    0.366163
     4  O   -0.687804
     5  H    0.350288
     6  H    0.344790
 Sum of Mulliken charges =   0.00000

 Dipole moment (field-independent basis, Debye):
    X=             -1.0030    Y=             -0.2756    Z=              0.0000  Tot=              1.0402
 Quadrupole moment (field-independent basis, Debye-Ang):
   XX=             -8.6890   YY=             -3.1943   ZZ=            -15.0128
   XY=             -0.6636   XZ=              0.0000   YZ=              0.0000

 P4DQ=-33.848439\MP4SDQ=-33.850672\CCSD=-33.8516932\CCSD(T)=-33.8545877
 Normal termination of Gaussian 16 at Sun Dec 10 06:33:19 2023.
