 Gaussian 16, Revision A.03,
 Gaussian 16:  ES64L-G16RevA.03 25-Dec-2016

 ------------------
 #p CCSD(T)/CEP-31G
 ------------------

 ------------
 H2O_H2O_2338
 ------------
 Symbolic Z-matrix:
 Charge =  0 Multiplicity = 1

                         Standard orientation:
 ---------------------------------------------------------------------
 Center     Atomic      Atomic             Coordinates (Angstroms)
 Number     Number       Type             X           Y           Z
 ---------------------------------------------------------------------
      1          8           0        0.042975   -2.019069    0.000000
      2          1           0       -0.757630   -2.588750    0.000000
      3          1           0        0.841509   -2.591650    0.000000
      4          8           0        0.042975    2.057825    0.000000
      5          1           0        0.142542    3.035369    0.000000
      6          1           0       -0.914024    1.834984    0.000000
 ---------------------------------------------------------------------

 SCF Done:  E(RHF) =  -33.6493980145     A.U. after   11 cycles
 E2 =    -0.2286183215D+00 EUMP2 =    -0.33878016336017D+02
 CCSD(T)
 CCSD(T)= -0.33895089161D+02

 The electronic state is 1-A'.
 Alpha  occ. eigenvalues --   -1.34826  -1.34099  -0.70454  -0.69692  -0.54439
 Alpha  occ. eigenvalues --   -0.53668  -0.49363  -0.48640
 Alpha virt. eigenvalues --    0.20549   0.21785   0.31029   0.31758   0.80019
 Alpha virt. eigenvalues --    0.80992   0.82094   0.85996   0.87602   0.92692
 Alpha virt. eigenvalues --    1.17974   1.18762   1.22420   1.23238   2.57938

 Mulliken charges:
               1
     1  O   -0.732917
     2  H    0.362820
     3  H    0.370214
     4  O   -0.730631
     5  H    0.359754
     6  H    0.370760
 Sum of Mulliken charges =  -0.00000

 Dipole moment (field-independent basis, Debye):
    X=             -1.9634    Y=             -0.9325    Z=              0.0000  Tot=              2.1736
 Quadrupole moment (field-independent basis, Debye-Ang):
   XX=             -9.2477   YY=              6.8088   ZZ=            -14.9866
   XY=             -3.2946   XZ=              0.0000   YZ=              0.0000

 MP4DQ=-33.8894175\MP4SDQ=-33.8914585\CCSD=-33.8925124\CCSD(T)=-33.8950
 Normal termination of Gaussian 16 at Sun Dec 10 07:09:28 2023.
