 Gaussian 16, Revision A.03,
 Gaussian 16:  ES64L-G16RevA.03 25-Dec-2016

 ------------------
 #p CCSD(T)/CEP-31G
 ------------------

 ------------
 H2O_H2O_3624
 ------------
 Symbolic Z-matrix:
 Charge =  0 Multiplicity = 1

                         Standard orientation:
 ---------------------------------------------------------------------
 Center     Atomic      Atomic             Coordinates (Angstroms)
 Number     Number       Type             X           Y           Z
 ---------------------------------------------------------------------
      1          8           0        0.057217   -2.656288    0.000000
      2          1           0       -0.743388   -3.225971    0.000000
      3          1           0        0.855751   -3.228868    0.000000
      4          8           0        0.057217    2.770308    0.000000
      5          1           0       -0.512466    3.570912    0.000000
      6          1           0       -0.515363    1.971772    0.000000
 ---------------------------------------------------------------------

 SCF Done:  E(RHF) =  -33.6523792058     A.U. after   11 cycles
 E2 =    -0.2283676735D+00 EUMP2 =    -0.33880746879246D+02
 CCSD(T)
 CCSD(T)= -0.33897729657D+02

 The electronic state is 1-A'.
 Alpha  occ. eigenvalues --   -1.35812  -1.34652  -0.71448  -0.70264  -0.55582
 Alpha  occ. eigenvalues --   -0.54397  -0.50392  -0.49232
 Alpha virt. eigenvalues --    0.19976   0.21205   0.30233   0.31437   0.80162
 Alpha virt. eigenvalues --    0.81297   0.83095   0.84336   0.86261   0.87515
 Alpha virt. eigenvalues --    1.17115   1.18272   1.21566   1.22772   2.57107

 Mulliken charges:
               1
     1  O   -0.743231
     2  H    0.369582
     3  H    0.373657
     4  O   -0.743023
     5  H    0.366129
     6  H    0.376885
 Sum of Mulliken charges =   0.00000

 Dipole moment (field-independent basis, Debye):
    X=             -2.6348    Y=             -2.6845    Z=              0.0000  Tot=              3.7615
 Quadrupole moment (field-independent basis, Debye-Ang):
   XX=            -10.1638   YY=              4.0305   ZZ=            -14.9901
   XY=             -7.5074   XZ=              0.0000   YZ=              0.0000

 9\MP4DQ=-33.8920896\MP4SDQ=-33.8941161\CCSD=-33.8951694\CCSD(T)=-33.89
 Normal termination of Gaussian 16 at Sun Dec 10 06:45:09 2023.
