 Gaussian 16, Revision A.03,
 Gaussian 16:  ES64L-G16RevA.03 25-Dec-2016

 ------------------
 #p CCSD(T)/CEP-31G
 ------------------

 ------------
 H2O_H2O_4292
 ------------
 Symbolic Z-matrix:
 Charge =  0 Multiplicity = 1

                         Standard orientation:
 ---------------------------------------------------------------------
 Center     Atomic      Atomic             Coordinates (Angstroms)
 Number     Number       Type             X           Y           Z
 ---------------------------------------------------------------------
      1          8           0        0.051269   -3.042681    0.000000
      2          1           0       -0.749120   -3.612666    0.000000
      3          1           0        0.850020   -3.614960    0.000000
      4          8           0        0.051269    3.106240    0.000000
      5          1           0       -0.105931    4.076185    0.000000
      6          1           0       -0.815270    2.642973    0.000000
 ---------------------------------------------------------------------

 SCF Done:  E(RHF) =  -33.6514409439     A.U. after   11 cycles
 E2 =    -0.2284065226D+00 EUMP2 =    -0.33879847466463D+02
 CCSD(T)
 CCSD(T)= -0.33896857665D+02

 The electronic state is 1-A'.
 Alpha  occ. eigenvalues --   -1.35415  -1.34912  -0.71046  -0.70532  -0.55131
 Alpha  occ. eigenvalues --   -0.54623  -0.49981  -0.49478
 Alpha virt. eigenvalues --    0.20337   0.20852   0.30575   0.31079   0.80571
 Alpha virt. eigenvalues --    0.81067   0.83628   0.84132   0.86728   0.87290
 Alpha virt. eigenvalues --    1.17472   1.17972   1.21933   1.22439   2.57497

 Mulliken charges:
               1
     1  O   -0.739901
     2  H    0.368556
     3  H    0.371345
     4  O   -0.739524
     5  H    0.367131
     6  H    0.372394
 Sum of Mulliken charges =   0.00000

 Dipole moment (field-independent basis, Debye):
    X=             -2.3656    Y=             -1.4881    Z=              0.0000  Tot=              2.7947
 Quadrupole moment (field-independent basis, Debye-Ang):
   XX=             -9.7447   YY=             12.9768   ZZ=            -14.9882
   XY=             -6.7388   XZ=              0.0000   YZ=              0.0000

 \MP4DQ=-33.8912108\MP4SDQ=-33.8932395\CCSD=-33.8942953\CCSD(T)=-33.896
 Normal termination of Gaussian 16 at Sun Dec 10 06:57:19 2023.
