 Gaussian 16, Revision A.03,
 Gaussian 16:  ES64L-G16RevA.03 25-Dec-2016

 ------------------
 #p CCSD(T)/CEP-31G
 ------------------

 -----------
 H2O_H2O_576
 -----------
 Symbolic Z-matrix:
 Charge =  0 Multiplicity = 1

                         Standard orientation:
 ---------------------------------------------------------------------
 Center     Atomic      Atomic             Coordinates (Angstroms)
 Number     Number       Type             X           Y           Z
 ---------------------------------------------------------------------
      1          8           0        0.003735   -1.109273    0.000000
      2          1           0       -0.796001   -1.680174    0.000000
      3          1           0        0.803141   -1.680637    0.000000
      4          8           0        0.003735    1.109516    0.000000
      5          1           0        0.764422    1.731498    0.000000
      6          1           0       -0.831328    1.627372    0.000000
 ---------------------------------------------------------------------

 SCF Done:  E(RHF) =  -33.6150939311     A.U. after   10 cycles
 E2 =    -0.2310389549D+00 EUMP2 =    -0.33846132885959D+02
 CCSD(T)
 CCSD(T)= -0.33863457453D+02

 The electronic state is 1-A'.
 Alpha  occ. eigenvalues --   -1.32732  -1.31174  -0.68086  -0.66963  -0.56591
 Alpha  occ. eigenvalues --   -0.47584  -0.44947  -0.44428
 Alpha virt. eigenvalues --    0.21594   0.25127   0.32901   0.33241   0.78212
 Alpha virt. eigenvalues --    0.80056   0.89979   0.98566   1.00069   1.16047
 Alpha virt. eigenvalues --    1.20017   1.22492   1.23607   1.26643   2.51134

 Mulliken charges:
               1
     1  O   -0.697811
     2  H    0.347172
     3  H    0.350510
     4  O   -0.697323
     5  H    0.349184
     6  H    0.348268
 Sum of Mulliken charges =  -0.00000

 Dipole moment (field-independent basis, Debye):
    X=             -0.1516    Y=             -0.0057    Z=              0.0000  Tot=              0.1517
 Quadrupole moment (field-independent basis, Debye-Ang):
   XX=             -8.3016   YY=             -2.0061   ZZ=            -15.0122
   XY=             -0.0943   XZ=              0.0000   YZ=              0.0000

 4DQ=-33.8574067\MP4SDQ=-33.8595661\CCSD=-33.8606273\CCSD(T)=-33.863457
 Normal termination of Gaussian 16 at Sun Dec 10 06:35:31 2023.
