 Gaussian 16, Revision A.03,
 Gaussian 16:  ES64L-G16RevA.03 25-Dec-2016

 ------------------
 #p CCSD(T)/CEP-31G
 ------------------

 ------------
 H2O_H2O_2450
 ------------
 Symbolic Z-matrix:
 Charge =  0 Multiplicity = 1

                         Standard orientation:
 ---------------------------------------------------------------------
 Center     Atomic      Atomic             Coordinates (Angstroms)
 Number     Number       Type             X           Y           Z
 ---------------------------------------------------------------------
      1          8           0        0.000000   -0.000000    2.106598
      2          1           0        0.000000    0.799571    2.677730
      3          1           0       -0.000000   -0.799571    2.677730
      4          8           0        0.000000   -0.000000   -2.106598
      5          1           0       -0.000000   -0.799571   -2.677730
      6          1           0        0.000000    0.799571   -2.677730
 ---------------------------------------------------------------------

 SCF Done:  E(RHF) =  -33.6477859341     A.U. after   10 cycles
 E2 =    -0.2286317206D+00 EUMP2 =    -0.33876417654623D+02
 CCSD(T)
 CCSD(T)= -0.33893534402D+02

 The electronic state is 1-AG.
 Alpha  occ. eigenvalues --   -1.34273  -1.34267  -0.69895  -0.69887  -0.53914
 Alpha  occ. eigenvalues --   -0.53615  -0.48801  -0.48765
 Alpha virt. eigenvalues --    0.21066   0.21500   0.31452   0.31573   0.81345
 Alpha virt. eigenvalues --    0.81463   0.82065   0.87408   0.88811   0.89485
 Alpha virt. eigenvalues --    1.18465   1.18467   1.22878   1.23050   2.58358

 Mulliken charges:
               1
     1  O   -0.727270
     2  H    0.363635
     3  H    0.363635
     4  O   -0.727270
     5  H    0.363635
     6  H    0.363635
 Sum of Mulliken charges =   0.00000

 Dipole moment (field-independent basis, Debye):
    X=             -0.0000    Y=              0.0000    Z=             -0.0000  Tot=              0.0000
 Quadrupole moment (field-independent basis, Debye-Ang):
   XX=            -14.9844   YY=             -8.0830   ZZ=             10.1740
   XY=              0.0000   XZ=              0.0000   YZ=             -0.0000

 33.8878538\MP4SDQ=-33.8898956\CCSD=-33.8909556\CCSD(T)=-33.8935344\RMS
 Normal termination of Gaussian 16 at Sun Dec 10 07:11:29 2023.
