 Gaussian 16, Revision A.03,
 Gaussian 16:  ES64L-G16RevA.03 25-Dec-2016

 ------------------
 #p CCSD(T)/CEP-31G
 ------------------

 ------------
 H2O_H2O_3071
 ------------
 Symbolic Z-matrix:
 Charge =  0 Multiplicity = 1

                         Standard orientation:
 ---------------------------------------------------------------------
 Center     Atomic      Atomic             Coordinates (Angstroms)
 Number     Number       Type             X           Y           Z
 ---------------------------------------------------------------------
      1          8           0        0.056107   -2.375888    0.000000
      2          1           0       -0.744599   -2.945427    0.000000
      3          1           0        0.854539   -2.948611    0.000000
      4          8           0        0.056107    2.467607    0.000000
      5          1           0       -0.346278    3.364040    0.000000
      6          1           0       -0.661378    1.796249    0.000000
 ---------------------------------------------------------------------

 SCF Done:  E(RHF) =  -33.6519969600     A.U. after   11 cycles
 E2 =    -0.2284162997D+00 EUMP2 =    -0.33880413259718D+02
 CCSD(T)
 CCSD(T)= -0.33897407461D+02

 The electronic state is 1-A'.
 Alpha  occ. eigenvalues --   -1.35636  -1.34435  -0.71271  -0.70035  -0.55386
 Alpha  occ. eigenvalues --   -0.54160  -0.50210  -0.49010
 Alpha virt. eigenvalues --    0.20067   0.21449   0.30377   0.31616   0.80345
 Alpha virt. eigenvalues --    0.81517   0.83044   0.84782   0.86449   0.87944
 Alpha virt. eigenvalues --    1.17274   1.18492   1.21715   1.23039   2.57282

 Mulliken charges:
               1
     1  O   -0.741886
     2  H    0.368094
     3  H    0.373838
     4  O   -0.741021
     5  H    0.364055
     6  H    0.376920
 Sum of Mulliken charges =  -0.00000

 Dipole moment (field-independent basis, Debye):
    X=             -2.5789    Y=             -2.1743    Z=              0.0000  Tot=              3.3732
 Quadrupole moment (field-independent basis, Debye-Ang):
   XX=            -10.0775   YY=              4.9631   ZZ=            -14.9897
   XY=             -6.2143   XZ=              0.0000   YZ=              0.0000

 MP4DQ=-33.8917631\MP4SDQ=-33.8937918\CCSD=-33.8948444\CCSD(T)=-33.8974
 Normal termination of Gaussian 16 at Sun Dec 10 06:35:12 2023.
