 Gaussian 16, Revision A.03,
 Gaussian 16:  ES64L-G16RevA.03 25-Dec-2016

 ------------------
 #p CCSD(T)/CEP-31G
 ------------------

 ------------
 H2O_H2O_2246
 ------------
 Symbolic Z-matrix:
 Charge =  0 Multiplicity = 1

                         Standard orientation:
 ---------------------------------------------------------------------
 Center     Atomic      Atomic             Coordinates (Angstroms)
 Number     Number       Type             X           Y           Z
 ---------------------------------------------------------------------
      1          8           0        0.056127   -1.937149    0.000000
      2          1           0       -0.744830   -2.506335    0.000000
      3          1           0        0.854307   -2.510223    0.000000
      4          8           0        0.056127    2.028818    0.000000
      5          1           0       -0.345862    2.925428    0.000000
      6          1           0       -0.661653    1.357776    0.000000
 ---------------------------------------------------------------------

 SCF Done:  E(RHF) =  -33.6523454690     A.U. after   11 cycles
 E2 =    -0.2285544128D+00 EUMP2 =    -0.33880899881777D+02
 CCSD(T)
 CCSD(T)= -0.33897893975D+02

 The electronic state is 1-A'.
 Alpha  occ. eigenvalues --   -1.35714  -1.33846  -0.71353  -0.69414  -0.55481
 Alpha  occ. eigenvalues --   -0.53568  -0.50293  -0.48427
 Alpha virt. eigenvalues --    0.19581   0.22447   0.30247   0.32323   0.79894
 Alpha virt. eigenvalues --    0.80122   0.82233   0.85697   0.86378   0.92835
 Alpha virt. eigenvalues --    1.17193   1.19455   1.21575   1.24763   2.56537

 Mulliken charges:
               1
     1  O   -0.742722
     2  H    0.366668
     3  H    0.376657
     4  O   -0.740929
     5  H    0.359078
     6  H    0.381248
 Sum of Mulliken charges =  -0.00000

 Dipole moment (field-independent basis, Debye):
    X=             -2.5627    Y=             -2.2217    Z=              0.0000  Tot=              3.3917
 Quadrupole moment (field-independent basis, Debye-Ang):
   XX=            -10.0702   YY=              2.1046   ZZ=            -14.9911
   XY=             -5.1036   XZ=              0.0000   YZ=              0.0000

 4\MP4DQ=-33.8922318\MP4SDQ=-33.8942747\CCSD=-33.8953184\CCSD(T)=-33.89
 Normal termination of Gaussian 16 at Sun Dec 10 07:07:49 2023.
