 Gaussian 16, Revision A.03,
 Gaussian 16:  ES64L-G16RevA.03 25-Dec-2016

 ------------------
 #p CCSD(T)/CEP-31G
 ------------------

 ------------
 H2O_H2O_1075
 ------------
 Symbolic Z-matrix:
 Charge =  0 Multiplicity = 1

                         Standard orientation:
 ---------------------------------------------------------------------
 Center     Atomic      Atomic             Coordinates (Angstroms)
 Number     Number       Type             X           Y           Z
 ---------------------------------------------------------------------
      1          8           0        0.000000   -0.000000    1.375323
      2          1           0        0.000000    0.799571    1.946455
      3          1           0       -0.000000   -0.799571    1.946455
      4          8           0        0.000000   -0.000000   -1.375323
      5          1           0       -0.000000   -0.799571   -1.946455
      6          1           0        0.000000    0.799571   -1.946455
 ---------------------------------------------------------------------

 SCF Done:  E(RHF) =  -33.6365055767     A.U. after   10 cycles
 E2 =    -0.2295329433D+00 EUMP2 =    -0.33866038520043D+02
 CCSD(T)
 CCSD(T)= -0.33883459848D+02

 The electronic state is 1-AG.
 Alpha  occ. eigenvalues --   -1.32978  -1.32614  -0.68550  -0.68261  -0.54034
 Alpha  occ. eigenvalues --   -0.49510  -0.47614  -0.46754
 Alpha virt. eigenvalues --    0.21428   0.23499   0.32375   0.32728   0.79601
 Alpha virt. eigenvalues --    0.80557   0.82747   0.87479   1.02398   1.08363
 Alpha virt. eigenvalues --    1.19463   1.20428   1.24411   1.24457   2.58254

 Mulliken charges:
               1
     1  O   -0.702912
     2  H    0.351456
     3  H    0.351456
     4  O   -0.702912
     5  H    0.351456
     6  H    0.351456
 Sum of Mulliken charges =   0.00000

 Dipole moment (field-independent basis, Debye):
    X=             -0.0000    Y=              0.0000    Z=              0.0000  Tot=              0.0000
 Quadrupole moment (field-independent basis, Debye-Ang):
   XX=            -14.9883   YY=             -8.2137   ZZ=              1.7637
   XY=              0.0000   XZ=             -0.0000   YZ=             -0.0000

 -33.8776031\MP4SDQ=-33.8796969\CCSD=-33.8807888\CCSD(T)=-33.8834598\RM
 Normal termination of Gaussian 16 at Sun Dec 10 06:44:51 2023.
