 Gaussian 16, Revision A.03,
 Gaussian 16:  ES64L-G16RevA.03 25-Dec-2016

 ------------------
 #p CCSD(T)/CEP-31G
 ------------------

 ------------
 H2O_H2O_4741
 ------------
 Symbolic Z-matrix:
 Charge =  0 Multiplicity = 1

                         Standard orientation:
 ---------------------------------------------------------------------
 Center     Atomic      Atomic             Coordinates (Angstroms)
 Number     Number       Type             X           Y           Z
 ---------------------------------------------------------------------
      1          8           0        0.049498   -3.285577    0.000000
      2          1           0       -0.750806   -3.855681    0.000000
      3          1           0        0.848335   -3.857736    0.000000
      4          8           0        0.049498    3.342563    0.000000
      5          1           0       -0.044074    4.320699    0.000000
      6          1           0       -0.845424    2.936830    0.000000
 ---------------------------------------------------------------------

 SCF Done:  E(RHF) =  -33.6514364673     A.U. after   11 cycles
 E2 =    -0.2284020028D+00 EUMP2 =    -0.33879838470071D+02
 CCSD(T)
 CCSD(T)= -0.33896848886D+02

 The electronic state is 1-A'.
 Alpha  occ. eigenvalues --   -1.35401  -1.35015  -0.71032  -0.70639  -0.55116
 Alpha  occ. eigenvalues --   -0.54728  -0.49968  -0.49582
 Alpha virt. eigenvalues --    0.20351   0.20745   0.30588   0.30974   0.80585
 Alpha virt. eigenvalues --    0.80966   0.83643   0.84028   0.86742   0.87170
 Alpha virt. eigenvalues --    1.17485   1.17869   1.21946   1.22334   2.57511

 Mulliken charges:
               1
     1  O   -0.739872
     2  H    0.368840
     3  H    0.371033
     4  O   -0.739606
     5  H    0.367790
     6  H    0.371816
 Sum of Mulliken charges =  -0.00000

 Dipole moment (field-independent basis, Debye):
    X=             -2.2856    Y=             -1.3312    Z=              0.0000  Tot=              2.6450
 Quadrupole moment (field-independent basis, Debye-Ang):
   XX=             -9.6289   YY=             15.7517   ZZ=            -14.9881
   XY=             -6.9436   XZ=              0.0000   YZ=              0.0000

 2\MP4DQ=-33.891202\MP4SDQ=-33.8932307\CCSD=-33.8942867\CCSD(T)=-33.896
 Normal termination of Gaussian 16 at Sun Dec 10 07:07:02 2023.
