 Gaussian 16, Revision A.03,
 Gaussian 16:  ES64L-G16RevA.03 25-Dec-2016

 ------------------
 #p CCSD(T)/CEP-31G
 ------------------

 -----------
 H2O_H2O_713
 -----------
 Symbolic Z-matrix:
 Charge =  0 Multiplicity = 1

                         Standard orientation:
 ---------------------------------------------------------------------
 Center     Atomic      Atomic             Coordinates (Angstroms)
 Number     Number       Type             X           Y           Z
 ---------------------------------------------------------------------
      1          8           0        0.043001   -1.154895    0.000000
      2          1           0       -0.758364   -1.723507    0.000000
      3          1           0        0.840770   -1.728541    0.000000
      4          8           0        0.043001    1.193536    0.000000
      5          1           0        0.143872    2.170946    0.000000
      6          1           0       -0.914295    0.971972    0.000000
 ---------------------------------------------------------------------

 SCF Done:  E(RHF) =  -33.6319137016     A.U. after   11 cycles
 E2 =    -0.2305746319D+00 EUMP2 =    -0.33862488333509D+02
 CCSD(T)
 CCSD(T)= -0.33879861970D+02

 The electronic state is 1-A'.
 Alpha  occ. eigenvalues --   -1.33952  -1.31733  -0.69559  -0.67681  -0.55184
 Alpha  occ. eigenvalues --   -0.48644  -0.48392  -0.45921
 Alpha virt. eigenvalues --    0.20426   0.25459   0.31749   0.33141   0.78744
 Alpha virt. eigenvalues --    0.83301   0.89162   0.92170   0.97691   1.14782
 Alpha virt. eigenvalues --    1.18995   1.22335   1.23844   1.30586   2.56331

 Mulliken charges:
               1
     1  O   -0.735255
     2  H    0.348164
     3  H    0.377009
     4  O   -0.688253
     5  H    0.341364
     6  H    0.356971
 Sum of Mulliken charges =   0.00000

 Dipole moment (field-independent basis, Debye):
    X=             -1.8043    Y=             -0.9493    Z=              0.0000  Tot=              2.0388
 Quadrupole moment (field-independent basis, Debye-Ang):
   XX=             -9.3273   YY=             -1.8625   ZZ=            -14.9953
   XY=             -1.6862   XZ=              0.0000   YZ=              0.0000

 P4DQ=-33.8738641\MP4SDQ=-33.8760425\CCSD=-33.8770999\CCSD(T)=-33.87986
 Normal termination of Gaussian 16 at Sun Dec 10 06:38:04 2023.
