 Gaussian 16, Revision A.03,
 Gaussian 16:  ES64L-G16RevA.03 25-Dec-2016

 ------------------
 #p CCSD(T)/CEP-31G
 ------------------

 ------------
 H2O_H2O_4507
 ------------
 Symbolic Z-matrix:
 Charge =  0 Multiplicity = 1

                         Standard orientation:
 ---------------------------------------------------------------------
 Center     Atomic      Atomic             Coordinates (Angstroms)
 Number     Number       Type             X           Y           Z
 ---------------------------------------------------------------------
      1          8           0        0.025265   -3.190483    0.000000
      2          1           0       -0.774695   -3.761071    0.000000
      3          1           0        0.824447   -3.762159    0.000000
      4          8           0        0.025265    3.202229    0.000000
      5          1           0        0.490362    4.067787    0.000000
      6          1           0       -0.944346    3.361480    0.000000
 ---------------------------------------------------------------------

 SCF Done:  E(RHF) =  -33.6507941186     A.U. after   11 cycles
 E2 =    -0.2284328551D+00 EUMP2 =    -0.33879226973771D+02
 CCSD(T)
 CCSD(T)= -0.33896255958D+02

 The electronic state is 1-A'.
 Alpha  occ. eigenvalues --   -1.35084  -1.34998  -0.70712  -0.70624  -0.54764
 Alpha  occ. eigenvalues --   -0.54677  -0.49640  -0.49554
 Alpha virt. eigenvalues --    0.20632   0.20720   0.30865   0.30949   0.80913
 Alpha virt. eigenvalues --    0.80998   0.84034   0.84119   0.87109   0.87210
 Alpha virt. eigenvalues --    1.17775   1.17861   1.22241   1.22327   2.57816

 Mulliken charges:
               1
     1  O   -0.737579
     2  H    0.368151
     3  H    0.369428
     4  O   -0.737459
     5  H    0.367792
     6  H    0.369667
 Sum of Mulliken charges =   0.00000

 Dipole moment (field-independent basis, Debye):
    X=             -1.1663    Y=             -0.2746    Z=              0.0000  Tot=              1.1982
 Quadrupole moment (field-independent basis, Debye-Ang):
   XX=             -8.4516   YY=             20.5339   ZZ=            -14.9870
   XY=             -3.0381   XZ=              0.0000   YZ=              0.0000

 MP4DQ=-33.8906041\MP4SDQ=-33.8926344\CCSD=-33.8936917\CCSD(T)=-33.8962
 Normal termination of Gaussian 16 at Sun Dec 10 07:02:07 2023.
