 Gaussian 16, Revision A.03,
 Gaussian 16:  ES64L-G16RevA.03 25-Dec-2016

 ------------------
 #p CCSD(T)/CEP-31G
 ------------------

 ------------
 H2O_H2O_1622
 ------------
 Symbolic Z-matrix:
 Charge =  0 Multiplicity = 1

                         Standard orientation:
 ---------------------------------------------------------------------
 Center     Atomic      Atomic             Coordinates (Angstroms)
 Number     Number       Type             X           Y           Z
 ---------------------------------------------------------------------
      1          8           0        0.056771   -1.600778    0.000000
      2          1           0       -0.744483   -2.169546    0.000000
      3          1           0        0.854652   -2.174270    0.000000
      4          8           0        0.056771    1.699760    0.000000
      5          1           0       -0.402546    2.568400    0.000000
      6          1           0       -0.615958    0.983561    0.000000
 ---------------------------------------------------------------------

 SCF Done:  E(RHF) =  -33.6533734396     A.U. after   11 cycles
 E2 =    -0.2289043572D+00 EUMP2 =    -0.33882277796753D+02
 CCSD(T)
 CCSD(T)= -0.33899291776D+02

 The electronic state is 1-A'.
 Alpha  occ. eigenvalues --   -1.36028  -1.33016  -0.71674  -0.68593  -0.55851
 Alpha  occ. eigenvalues --   -0.52769  -0.50621  -0.47613
 Alpha virt. eigenvalues --    0.19131   0.24028   0.29992   0.33723   0.76691
 Alpha virt. eigenvalues --    0.78913   0.83991   0.86288   0.87965   1.04038
 Alpha virt. eigenvalues --    1.16823   1.20409   1.21618   1.28239   2.54000

 Mulliken charges:
               1
     1  O   -0.747778
     2  H    0.365918
     3  H    0.383365
     4  O   -0.742725
     5  H    0.351497
     6  H    0.389723
 Sum of Mulliken charges =  -0.00000

 Dipole moment (field-independent basis, Debye):
    X=             -2.5597    Y=             -2.4736    Z=              0.0000  Tot=              3.5596
 Quadrupole moment (field-independent basis, Debye-Ang):
   XX=            -10.1043   YY=             -0.6838   ZZ=            -14.9950
   XY=             -4.4452   XZ=              0.0000   YZ=              0.0000

 P4DQ=-33.8935619\MP4SDQ=-33.8956424\CCSD=-33.8966751\CCSD(T)=-33.89929
 Normal termination of Gaussian 16 at Sun Dec 10 06:55:02 2023.
