 Gaussian 16, Revision A.03,
 Gaussian 16:  ES64L-G16RevA.03 25-Dec-2016

 ------------------
 #p CCSD(T)/CEP-31G
 ------------------

 ------------
 H2O_H2O_3723
 ------------
 Symbolic Z-matrix:
 Charge =  0 Multiplicity = 1

                         Standard orientation:
 ---------------------------------------------------------------------
 Center     Atomic      Atomic             Coordinates (Angstroms)
 Number     Number       Type             X           Y           Z
 ---------------------------------------------------------------------
      1          8           0        0.057086   -2.713526    0.000000
      2          1           0       -0.743497   -3.283240    0.000000
      3          1           0        0.855643   -3.286075    0.000000
      4          8           0        0.057086    2.820080    0.000000
      5          1           0       -0.459048    3.656209    0.000000
      6          1           0       -0.566466    2.060679    0.000000
 ---------------------------------------------------------------------

 SCF Done:  E(RHF) =  -33.6521918420     A.U. after   11 cycles
 E2 =    -0.2283755719D+00 EUMP2 =    -0.33880567413840D+02
 CCSD(T)
 CCSD(T)= -0.33897555659D+02

 The electronic state is 1-A'.
 Alpha  occ. eigenvalues --   -1.35741  -1.34699  -0.71376  -0.70312  -0.55501
 Alpha  occ. eigenvalues --   -0.54437  -0.50319  -0.49276
 Alpha virt. eigenvalues --    0.20043   0.21137   0.30293   0.31369   0.80235
 Alpha virt. eigenvalues --    0.81256   0.83197   0.84294   0.86345   0.87478
 Alpha virt. eigenvalues --    1.17178   1.18216   1.21631   1.22704   2.57177

 Mulliken charges:
               1
     1  O   -0.742574
     2  H    0.369331
     3  H    0.373247
     4  O   -0.742288
     5  H    0.366270
     6  H    0.376014
 Sum of Mulliken charges =   0.00000

 Dipole moment (field-independent basis, Debye):
    X=             -2.6299    Y=             -2.5061    Z=              0.0000  Tot=              3.6327
 Quadrupole moment (field-independent basis, Debye-Ang):
   XX=            -10.1542   YY=              5.3003   ZZ=            -14.9897
   XY=             -7.4928   XZ=              0.0000   YZ=              0.0000

 4\MP4DQ=-33.8919144\MP4SDQ=-33.8939412\CCSD=-33.894995\CCSD(T)=-33.897
 Normal termination of Gaussian 16 at Sun Dec 10 06:46:58 2023.
