 Gaussian 16, Revision A.03,
 Gaussian 16:  ES64L-G16RevA.03 25-Dec-2016

 ------------------
 #p CCSD(T)/CEP-31G
 ------------------

 ------------
 H2O_H2O_2381
 ------------
 Symbolic Z-matrix:
 Charge =  0 Multiplicity = 1

                         Standard orientation:
 ---------------------------------------------------------------------
 Center     Atomic      Atomic             Coordinates (Angstroms)
 Number     Number       Type             X           Y           Z
 ---------------------------------------------------------------------
      1          8           0        0.021860   -2.062009    0.000000
      2          1           0       -0.778231   -2.632413    0.000000
      3          1           0        0.820911   -2.633869    0.000000
      4          8           0        0.021860    2.070664    0.000000
      5          1           0        0.542764    2.903830    0.000000
      6          1           0       -0.935208    2.293211    0.000000
 ---------------------------------------------------------------------

 SCF Done:  E(RHF) =  -33.6479825991     A.U. after   11 cycles
 E2 =    -0.2286436361D+00 EUMP2 =    -0.33876626235125D+02
 CCSD(T)
 CCSD(T)= -0.33893738261D+02

 The electronic state is 1-A'.
 Alpha  occ. eigenvalues --   -1.34361  -1.34205  -0.69984  -0.69819  -0.53971
 Alpha  occ. eigenvalues --   -0.53609  -0.48880  -0.48719
 Alpha virt. eigenvalues --    0.20983   0.21570   0.31427   0.31585   0.80728
 Alpha virt. eigenvalues --    0.81370   0.82123   0.86838   0.88437   0.91162
 Alpha virt. eigenvalues --    1.18383   1.18539   1.22869   1.23056   2.58299

 Mulliken charges:
               1
     1  O   -0.727989
     2  H    0.362178
     3  H    0.365835
     4  O   -0.727325
     5  H    0.361345
     6  H    0.365955
 Sum of Mulliken charges =  -0.00000

 Dipole moment (field-independent basis, Debye):
    X=             -0.9999    Y=             -0.2082    Z=              0.0000  Tot=              1.0213
 Quadrupole moment (field-independent basis, Debye-Ang):
   XX=             -8.3863   YY=              9.1770   ZZ=            -14.9847
   XY=             -1.4980   XZ=              0.0000   YZ=              0.0000

 \MP4DQ=-33.8880575\MP4SDQ=-33.8901002\CCSD=-33.8911588\CCSD(T)=-33.893
 Normal termination of Gaussian 16 at Sun Dec 10 07:10:15 2023.
