 Gaussian 16, Revision A.03,
 Gaussian 16:  ES64L-G16RevA.03 25-Dec-2016

 ------------------
 #p CCSD(T)/CEP-31G
 ------------------

 ------------
 H2O_H2O_1465
 ------------
 Symbolic Z-matrix:
 Charge =  0 Multiplicity = 1

                         Standard orientation:
 ---------------------------------------------------------------------
 Center     Atomic      Atomic             Coordinates (Angstroms)
 Number     Number       Type             X           Y           Z
 ---------------------------------------------------------------------
      1          8           0        0.047554   -1.547323    0.000000
      2          1           0       -0.753499   -2.116374    0.000000
      3          1           0        0.845637   -2.120531    0.000000
      4          8           0        0.047554    1.597841    0.000000
      5          1           0        0.019446    2.580040    0.000000
      6          1           0       -0.872444    1.252716    0.000000
 ---------------------------------------------------------------------

 SCF Done:  E(RHF) =  -33.6476416152     A.U. after   11 cycles
 E2 =    -0.2291336563D+00 EUMP2 =    -0.33876775271527D+02
 CCSD(T)
 CCSD(T)= -0.33893965520D+02

 The electronic state is 1-A'.
 Alpha  occ. eigenvalues --   -1.34725  -1.33121  -0.70360  -0.68684  -0.54443
 Alpha  occ. eigenvalues --   -0.52409  -0.49259  -0.47639
 Alpha virt. eigenvalues --    0.20052   0.23455   0.31050   0.32592   0.75791
 Alpha virt. eigenvalues --    0.79456   0.84851   0.85060   0.89906   1.10559
 Alpha virt. eigenvalues --    1.17953   1.21213   1.22557   1.25176   2.58070

 Mulliken charges:
               1
     1  O   -0.729851
     2  H    0.356962
     3  H    0.373143
     4  O   -0.720604
     5  H    0.348960
     6  H    0.371390
 Sum of Mulliken charges =  -0.00000

 Dipole moment (field-independent basis, Debye):
    X=             -2.1281    Y=             -1.2593    Z=              0.0000  Tot=              2.4727
 Quadrupole moment (field-independent basis, Debye-Ang):
   XX=             -9.5228   YY=              1.8235   ZZ=            -14.9882
   XY=             -2.8466   XZ=              0.0000   YZ=              0.0000

 \MP4DQ=-33.8882015\MP4SDQ=-33.8902944\CCSD=-33.8913443\CCSD(T)=-33.893
 Normal termination of Gaussian 16 at Sun Dec 10 06:52:08 2023.
