 Gaussian 16, Revision A.03,
 Gaussian 16:  ES64L-G16RevA.03 25-Dec-2016

 ------------------
 #p CCSD(T)/CEP-31G
 ------------------

 ------------
 H2O_H2O_3617
 ------------
 Symbolic Z-matrix:
 Charge =  0 Multiplicity = 1

                         Standard orientation:
 ---------------------------------------------------------------------
 Center     Atomic      Atomic             Coordinates (Angstroms)
 Number     Number       Type             X           Y           Z
 ---------------------------------------------------------------------
      1          8           0        0.051275   -2.683702    0.000000
      2          1           0       -0.749222   -3.253535    0.000000
      3          1           0        0.849917   -3.256132    0.000000
      4          8           0        0.051275    2.747241    0.000000
      5          1           0       -0.105741    3.717216    0.000000
      6          1           0       -0.815352    2.284139    0.000000
 ---------------------------------------------------------------------

 SCF Done:  E(RHF) =  -33.6512862867     A.U. after   11 cycles
 E2 =    -0.2284268630D+00 EUMP2 =    -0.33879713149777D+02
 CCSD(T)
 CCSD(T)= -0.33896727883D+02

 The electronic state is 1-A'.
 Alpha  occ. eigenvalues --   -1.35366  -1.34713  -0.70997  -0.70326  -0.55073
 Alpha  occ. eigenvalues --   -0.54413  -0.49929  -0.49278
 Alpha virt. eigenvalues --    0.20373   0.21051   0.30615   0.31267   0.80624
 Alpha virt. eigenvalues --    0.81264   0.83662   0.84371   0.86787   0.87545
 Alpha virt. eigenvalues --    1.17515   1.18162   1.21977   1.22635   2.57541

 Mulliken charges:
               1
     1  O   -0.739386
     2  H    0.367719
     3  H    0.371668
     4  O   -0.738704
     5  H    0.365676
     6  H    0.373027
 Sum of Mulliken charges =  -0.00000

 Dipole moment (field-independent basis, Debye):
    X=             -2.3620    Y=             -1.4950    Z=              0.0000  Tot=              2.7953
 Quadrupole moment (field-independent basis, Debye-Ang):
   XX=             -9.7439   YY=             10.1951   ZZ=            -14.9882
   XY=             -5.8993   XZ=              0.0000   YZ=              0.0000

 \MP4DQ=-33.8910796\MP4SDQ=-33.8931089\CCSD=-33.8941644\CCSD(T)=-33.896
 Normal termination of Gaussian 16 at Sun Dec 10 06:45:01 2023.
