 Gaussian 16, Revision A.03,
 Gaussian 16:  ES64L-G16RevA.03 25-Dec-2016

 ------------------
 #p CCSD(T)/CEP-31G
 ------------------

 ------------
 H2O_H2O_1380
 ------------
 Symbolic Z-matrix:
 Charge =  0 Multiplicity = 1

                         Standard orientation:
 ---------------------------------------------------------------------
 Center     Atomic      Atomic             Coordinates (Angstroms)
 Number     Number       Type             X           Y           Z
 ---------------------------------------------------------------------
      1          8           0        0.018362   -1.531602    0.000000
      2          1           0       -0.781797   -2.101910    0.000000
      3          1           0        0.817344   -2.103557    0.000000
      4          8           0        0.018362    1.537626    0.000000
      5          1           0        0.592737    2.334871    0.000000
      6          1           0       -0.922068    1.822403    0.000000
 ---------------------------------------------------------------------

 SCF Done:  E(RHF) =  -33.6418797820     A.U. after   11 cycles
 E2 =    -0.2291798815D+00 EUMP2 =    -0.33871059663541D+02
 CCSD(T)
 CCSD(T)= -0.33888391688D+02

 The electronic state is 1-A'.
 Alpha  occ. eigenvalues --   -1.33455  -1.33208  -0.69065  -0.68819  -0.53729
 Alpha  occ. eigenvalues --   -0.51296  -0.48017  -0.47528
 Alpha virt. eigenvalues --    0.21130   0.22916   0.32034   0.32350   0.77477
 Alpha virt. eigenvalues --    0.80032   0.83028   0.85619   0.95611   1.08478
 Alpha virt. eigenvalues --    1.19078   1.19728   1.23704   1.24028   2.59739

 Mulliken charges:
               1
     1  O   -0.711871
     2  H    0.352484
     3  H    0.359268
     4  O   -0.709780
     5  H    0.351854
     6  H    0.358045
 Sum of Mulliken charges =  -0.00000

 Dipole moment (field-independent basis, Debye):
    X=             -0.8218    Y=             -0.1503    Z=              0.0000  Tot=              0.8355
 Quadrupole moment (field-independent basis, Debye-Ang):
   XX=             -8.3750   YY=              3.5049   ZZ=            -14.9844
   XY=             -0.8298   XZ=              0.0000   YZ=              0.0000

 MP4DQ=-33.8825972\MP4SDQ=-33.8846855\CCSD=-33.8857591\CCSD(T)=-33.8883
 Normal termination of Gaussian 16 at Sun Dec 10 06:50:33 2023.
