 Gaussian 16, Revision A.03,
 Gaussian 16:  ES64L-G16RevA.03 25-Dec-2016

 ------------------
 #p CCSD(T)/CEP-31G
 ------------------

 -----------
 H2O_H2O_249
 -----------
 Symbolic Z-matrix:
 Charge =  0 Multiplicity = 1

                         Standard orientation:
 ---------------------------------------------------------------------
 Center     Atomic      Atomic             Coordinates (Angstroms)
 Number     Number       Type             X           Y           Z
 ---------------------------------------------------------------------
      1          8           0        0.057418   -0.861552    0.000000
      2          1           0       -0.745199   -1.428395    0.000000
      3          1           0        0.853920   -1.436956    0.000000
      4          8           0        0.057418    0.975165    0.000000
      5          1           0       -0.509425    1.777782    0.000000
      6          1           0       -0.517986    0.178663    0.000000
 ---------------------------------------------------------------------

 SCF Done:  E(RHF) =  -33.5284373875     A.U. after   11 cycles
 E2 =    -0.2329188632D+00 EUMP2 =    -0.33761356250708D+02
 CCSD(T)
 CCSD(T)= -0.33776624328D+02

 The electronic state is 1-A'.
 Alpha  occ. eigenvalues --   -1.43390  -1.27700  -0.80131  -0.73469  -0.55874
 Alpha  occ. eigenvalues --   -0.48532  -0.45950  -0.41997
 Alpha virt. eigenvalues --    0.18222   0.26730   0.30607   0.39720   0.77149
 Alpha virt. eigenvalues --    0.84553   0.90935   0.92677   0.97768   1.15209
 Alpha virt. eigenvalues --    1.17366   1.24008   1.33372   1.36866   2.92424

 Mulliken charges:
               1
     1  O   -0.783561
     2  H    0.375166
     3  H    0.466988
     4  O   -0.706902
     5  H    0.284726
     6  H    0.363583
 Sum of Mulliken charges =  -0.00000

 Dipole moment (field-independent basis, Debye):
    X=             -2.1294    Y=             -3.5058    Z=              0.0000  Tot=              4.1018
 Quadrupole moment (field-independent basis, Debye-Ang):
   XX=            -10.0773   YY=             -7.9691   ZZ=            -14.9223
   XY=             -2.6663   XZ=              0.0000   YZ=              0.0000

 MP4DQ=-33.7700119\MP4SDQ=-33.7725807\CCSD=-33.7731894\CCSD(T)=-33.7766
 Normal termination of Gaussian 16 at Sun Dec 10 06:29:24 2023.
