 Gaussian 16, Revision A.03,
 Gaussian 16:  ES64L-G16RevA.03 25-Dec-2016

 ------------------
 #p CCSD(T)/CEP-31G
 ------------------

 ------------
 H2O_H2O_2319
 ------------
 Symbolic Z-matrix:
 Charge =  0 Multiplicity = 1

                         Standard orientation:
 ---------------------------------------------------------------------
 Center     Atomic      Atomic             Coordinates (Angstroms)
 Number     Number       Type             X           Y           Z
 ---------------------------------------------------------------------
      1          8           0        0.054171   -1.984862    0.000000
      2          1           0       -0.746712   -2.554152    0.000000
      3          1           0        0.852426   -2.557832    0.000000
      4          8           0        0.054171    2.062122    0.000000
      5          1           0       -0.227473    3.003495    0.000000
      6          1           0       -0.744982    1.490405    0.000000
 ---------------------------------------------------------------------

 SCF Done:  E(RHF) =  -33.6514795864     A.U. after   11 cycles
 E2 =    -0.2285567600D+00 EUMP2 =    -0.33880036346380D+02
 CCSD(T)
 CCSD(T)= -0.33897051199D+02

 The electronic state is 1-A'.
 Alpha  occ. eigenvalues --   -1.35462  -1.33965  -0.71097  -0.69540  -0.55179
 Alpha  occ. eigenvalues --   -0.53653  -0.50028  -0.48536
 Alpha virt. eigenvalues --    0.19886   0.22170   0.30465   0.32082   0.80033
 Alpha virt. eigenvalues --    0.80404   0.82112   0.85715   0.86639   0.92441
 Alpha virt. eigenvalues --    1.17417   1.19185   1.21795   1.23969   2.57125

 Mulliken charges:
               1
     1  O   -0.739942
     2  H    0.365508
     3  H    0.374789
     4  O   -0.737631
     5  H    0.359511
     6  H    0.377765
 Sum of Mulliken charges =   0.00000

 Dipole moment (field-independent basis, Debye):
    X=             -2.4750    Y=             -1.8643    Z=              0.0000  Tot=              3.0986
 Quadrupole moment (field-independent basis, Debye-Ang):
   XX=             -9.9340   YY=              3.6331   ZZ=            -14.9897
   XY=             -4.7761   XZ=              0.0000   YZ=              0.0000

 P4DQ=-33.8913904\MP4SDQ=-33.8934301\CCSD=-33.8944775\CCSD(T)=-33.89705
 Normal termination of Gaussian 16 at Sun Dec 10 07:09:08 2023.
