 Gaussian 16, Revision A.03,
 Gaussian 16:  ES64L-G16RevA.03 25-Dec-2016

 ------------------
 #p CCSD(T)/CEP-31G
 ------------------

 -----------
 H2O_H2O_537
 -----------
 Symbolic Z-matrix:
 Charge =  0 Multiplicity = 1

                         Standard orientation:
 ---------------------------------------------------------------------
 Center     Atomic      Atomic             Coordinates (Angstroms)
 Number     Number       Type             X           Y           Z
 ---------------------------------------------------------------------
      1          8           0        0.040439   -1.064780    0.000000
      2          1           0       -0.760964   -1.633339    0.000000
      3          1           0        0.838169   -1.638480    0.000000
      4          8           0        0.040439    1.097977    0.000000
      5          1           0        0.205085    2.066686    0.000000
      6          1           0       -0.929310    0.939563    0.000000
 ---------------------------------------------------------------------

 SCF Done:  E(RHF) =  -33.6187229114     A.U. after   11 cycles
 E2 =    -0.2313151444D+00 EUMP2 =    -0.33850038055735D+02
 CCSD(T)
 CCSD(T)= -0.33867380131D+02

 The electronic state is 1-A'.
 Alpha  occ. eigenvalues --   -1.33915  -1.31203  -0.69467  -0.67468  -0.56116
 Alpha  occ. eigenvalues --   -0.48702  -0.46084  -0.45209
 Alpha virt. eigenvalues --    0.20577   0.26048   0.31907   0.33228   0.79361
 Alpha virt. eigenvalues --    0.83241   0.89798   0.96258   0.99683   1.14292
 Alpha virt. eigenvalues --    1.19183   1.22991   1.24626   1.31069   2.53571

 Mulliken charges:
               1
     1  O   -0.738620
     2  H    0.345796
     3  H    0.378257
     4  O   -0.678898
     5  H    0.342477
     6  H    0.350987
 Sum of Mulliken charges =  -0.00000

 Dipole moment (field-independent basis, Debye):
    X=             -1.6436    Y=             -0.8033    Z=              0.0000  Tot=              1.8294
 Quadrupole moment (field-independent basis, Debye-Ang):
   XX=             -9.2295   YY=             -2.9559   ZZ=            -14.9995
   XY=             -1.3656   XZ=              0.0000   YZ=              0.0000

 MP4DQ=-33.8612799\MP4SDQ=-33.8635061\CCSD=-33.8645372\CCSD(T)=-33.8673
 Normal termination of Gaussian 16 at Sun Dec 10 06:34:47 2023.
