 Gaussian 16, Revision A.03,
 Gaussian 16:  ES64L-G16RevA.03 25-Dec-2016

 ------------------
 #p CCSD(T)/CEP-31G
 ------------------

 ------------
 H2O_H2O_1346
 ------------
 Symbolic Z-matrix:
 Charge =  0 Multiplicity = 1

                         Standard orientation:
 ---------------------------------------------------------------------
 Center     Atomic      Atomic             Coordinates (Angstroms)
 Number     Number       Type             X           Y           Z
 ---------------------------------------------------------------------
      1          8           0        0.056163   -1.458542    0.000000
      2          1           0       -0.745235   -2.027108    0.000000
      3          1           0        0.853899   -2.032234    0.000000
      4          8           0        0.056163    1.550124    0.000000
      5          1           0       -0.345133    2.447045    0.000000
      6          1           0       -0.662137    0.879637    0.000000
 ---------------------------------------------------------------------

 SCF Done:  E(RHF) =  -33.6521763341     A.U. after   11 cycles
 E2 =    -0.2292285364D+00 EUMP2 =    -0.33881404870531D+02
 CCSD(T)
 CCSD(T)= -0.33898467145D+02

 The electronic state is 1-A'.
 Alpha  occ. eigenvalues --   -1.35918  -1.32586  -0.71569  -0.68245  -0.55639
 Alpha  occ. eigenvalues --   -0.52312  -0.50506  -0.47173
 Alpha virt. eigenvalues --    0.19228   0.24732   0.30108   0.34078   0.76847
 Alpha virt. eigenvalues --    0.78249   0.85377   0.86731   0.89986   1.11008
 Alpha virt. eigenvalues --    1.16940   1.20458   1.22040   1.28797   2.55413

 Mulliken charges:
               1
     1  O   -0.748570
     2  H    0.363404
     3  H    0.386309
     4  O   -0.735923
     5  H    0.346143
     6  H    0.388637
 Sum of Mulliken charges =  -0.00000

 Dipole moment (field-independent basis, Debye):
    X=             -2.5012    Y=             -2.3184    Z=              0.0000  Tot=              3.4104
 Quadrupole moment (field-independent basis, Debye-Ang):
   XX=            -10.0573   YY=             -1.1907   ZZ=            -14.9960
   XY=             -3.8984   XZ=              0.0000   YZ=              0.0000

 3\MP4DQ=-33.89268\MP4SDQ=-33.894787\CCSD=-33.8958178\CCSD(T)=-33.89846
 Normal termination of Gaussian 16 at Sun Dec 10 06:49:55 2023.
