 Gaussian 16, Revision A.03,
 Gaussian 16:  ES64L-G16RevA.03 25-Dec-2016

 ------------------
 #p CCSD(T)/CEP-31G
 ------------------

 -----------
 H2O_H2O_497
 -----------
 Symbolic Z-matrix:
 Charge =  0 Multiplicity = 1

                         Standard orientation:
 ---------------------------------------------------------------------
 Center     Atomic      Atomic             Coordinates (Angstroms)
 Number     Number       Type             X           Y           Z
 ---------------------------------------------------------------------
      1          8           0        0.056854   -1.002562    0.000000
      2          1           0       -0.745355   -1.569983    0.000000
      3          1           0        0.853770   -1.577393    0.000000
      4          8           0        0.056854    1.101353    0.000000
      5          1           0       -0.401003    1.970762    0.000000
      6          1           0       -0.617078    0.386285    0.000000
 ---------------------------------------------------------------------

 SCF Done:  E(RHF) =  -33.6143901947     A.U. after   11 cycles
 E2 =    -0.2316012031D+00 EUMP2 =    -0.33845991397843D+02
 CCSD(T)
 CCSD(T)= -0.33862435773D+02

 The electronic state is 1-A'.
 Alpha  occ. eigenvalues --   -1.38057  -1.29882  -0.74067  -0.69958  -0.52322
 Alpha  occ. eigenvalues --   -0.52144  -0.49891  -0.44319
 Alpha virt. eigenvalues --    0.18898   0.28337   0.28974   0.37000   0.77228
 Alpha virt. eigenvalues --    0.84699   0.90005   0.94104   0.98919   1.14305
 Alpha virt. eigenvalues --    1.18806   1.21191   1.28567   1.31579   2.77773

 Mulliken charges:
               1
     1  O   -0.793495
     2  H    0.367864
     3  H    0.426799
     4  O   -0.695894
     5  H    0.314105
     6  H    0.380622
 Sum of Mulliken charges =  -0.00000

 Dipole moment (field-independent basis, Debye):
    X=             -2.2753    Y=             -2.7035    Z=              0.0000  Tot=              3.5336
 Quadrupole moment (field-independent basis, Debye-Ang):
   XX=            -10.0829   YY=             -5.5978   ZZ=            -14.9944
   XY=             -2.8313   XZ=              0.0000   YZ=              0.0000

 4DQ=-33.8562201\MP4SDQ=-33.8585426\CCSD=-33.8594033\CCSD(T)=-33.862435
 Normal termination of Gaussian 16 at Sun Dec 10 06:34:03 2023.
