 Gaussian 16, Revision A.03,
 Gaussian 16:  ES64L-G16RevA.03 25-Dec-2016

 ------------------
 #p CCSD(T)/CEP-31G
 ------------------

 ------------
 H2O_H2O_4497
 ------------
 Symbolic Z-matrix:
 Charge =  0 Multiplicity = 1

                         Standard orientation:
 ---------------------------------------------------------------------
 Center     Atomic      Atomic             Coordinates (Angstroms)
 Number     Number       Type             X           Y           Z
 ---------------------------------------------------------------------
      1          8           0        0.056701   -3.129724    0.000000
      2          1           0       -0.743745   -3.699630    0.000000
      3          1           0        0.855395   -3.702081    0.000000
      4          8           0        0.056701    3.228867    0.000000
      5          1           0       -0.403850    4.096853    0.000000
      6          1           0       -0.615011    2.511713    0.000000
 ---------------------------------------------------------------------

 SCF Done:  E(RHF) =  -33.6519423919     A.U. after   11 cycles
 E2 =    -0.2283768829D+00 EUMP2 =    -0.33880319274761D+02
 CCSD(T)
 CCSD(T)= -0.33897314875D+02

 The electronic state is 1-A'.
 Alpha  occ. eigenvalues --   -1.35657  -1.34933  -0.71291  -0.70554  -0.55401
 Alpha  occ. eigenvalues --   -0.54667  -0.50231  -0.49507
 Alpha virt. eigenvalues --    0.20123   0.20867   0.30364   0.31103   0.80321
 Alpha virt. eigenvalues --    0.81034   0.83329   0.84065   0.86447   0.87225
 Alpha virt. eigenvalues --    1.17251   1.17972   1.21708   1.22443   2.57264

 Mulliken charges:
               1
     1  O   -0.741683
     2  H    0.369505
     3  H    0.372177
     4  O   -0.741494
     5  H    0.367631
     6  H    0.373862
 Sum of Mulliken charges =   0.00000

 Dipole moment (field-independent basis, Debye):
    X=             -2.6166    Y=             -2.3190    Z=              0.0000  Tot=              3.4963
 Quadrupole moment (field-independent basis, Debye-Ang):
   XX=            -10.1283   YY=              8.7648   ZZ=            -14.9890
   XY=             -8.3784   XZ=              0.0000   YZ=              0.0000

 P4DQ=-33.891672\MP4SDQ=-33.8936992\CCSD=-33.8947541\CCSD(T)=-33.897314
 Normal termination of Gaussian 16 at Sun Dec 10 07:01:41 2023.
