 Gaussian 16, Revision A.03,
 Gaussian 16:  ES64L-G16RevA.03 25-Dec-2016

 ------------------
 #p CCSD(T)/CEP-31G
 ------------------

 ------------
 H2O_H2O_1019
 ------------
 Symbolic Z-matrix:
 Charge =  0 Multiplicity = 1

                         Standard orientation:
 ---------------------------------------------------------------------
 Center     Atomic      Atomic             Coordinates (Angstroms)
 Number     Number       Type             X           Y           Z
 ---------------------------------------------------------------------
      1          8           0        0.054217   -1.293542    0.000000
      2          1           0       -0.747345   -1.861876    0.000000
      3          1           0        0.851787   -1.867465    0.000000
      4          8           0        0.054217    1.370673    0.000000
      5          1           0       -0.226302    2.312382    0.000000
      6          1           0       -0.745618    0.799910    0.000000
 ---------------------------------------------------------------------

 SCF Done:  E(RHF) =  -33.6472170233     A.U. after   11 cycles
 E2 =    -0.2298310036D+00 EUMP2 =    -0.33877048026881D+02
 CCSD(T)
 CCSD(T)= -0.33894208289D+02

 The electronic state is 1-A'.
 Alpha  occ. eigenvalues --   -1.35496  -1.32061  -0.71158  -0.67963  -0.54991
 Alpha  occ. eigenvalues --   -0.51522  -0.50077  -0.46586
 Alpha virt. eigenvalues --    0.19506   0.25456   0.30480   0.34020   0.77759
 Alpha virt. eigenvalues --    0.80905   0.87359   0.87909   0.92727   1.15488
 Alpha virt. eigenvalues --    1.19100   1.20605   1.22563   1.29436   2.63784

 Mulliken charges:
               1
     1  O   -0.748784
     2  H    0.358673
     3  H    0.388189
     4  O   -0.717595
     5  H    0.339104
     6  H    0.380413
 Sum of Mulliken charges =   0.00000

 Dipole moment (field-independent basis, Debye):
    X=             -2.3570    Y=             -1.9660    Z=              0.0000  Tot=              3.0694
 Quadrupole moment (field-independent basis, Debye-Ang):
   XX=             -9.9295   YY=             -1.7548   ZZ=            -14.9964
   XY=             -3.1018   XZ=              0.0000   YZ=              0.0000

 4DQ=-33.8883228\MP4SDQ=-33.8904716\CCSD=-33.8915038\CCSD(T)=-33.894208
 Normal termination of Gaussian 16 at Sun Dec 10 06:43:48 2023.
