 Gaussian 16, Revision A.03,
 Gaussian 16:  ES64L-G16RevA.03 25-Dec-2016

 ------------------
 #p CCSD(T)/CEP-31G
 ------------------

 -----------
 H2O_H2O_947
 -----------
 Symbolic Z-matrix:
 Charge =  0 Multiplicity = 1

                         Standard orientation:
 ---------------------------------------------------------------------
 Center     Atomic      Atomic             Coordinates (Angstroms)
 Number     Number       Type             X           Y           Z
 ---------------------------------------------------------------------
      1          8           0        0.056812   -1.241837    0.000000
      2          1           0       -0.744910   -1.809947    0.000000
      3          1           0        0.854221   -1.815984    0.000000
      4          8           0        0.056812    1.340726    0.000000
      5          1           0       -0.401792    2.209742    0.000000
      6          1           0       -0.616506    0.625080    0.000000
 ---------------------------------------------------------------------

 SCF Done:  E(RHF) =  -33.6490403703     A.U. after   11 cycles
 E2 =    -0.2299319856D+00 EUMP2 =    -0.33878972355901D+02
 CCSD(T)
 CCSD(T)= -0.33895914005D+02

 The electronic state is 1-A'.
 Alpha  occ. eigenvalues --   -1.36509  -1.31527  -0.72179  -0.68051  -0.55504
 Alpha  occ. eigenvalues --   -0.51363  -0.51106  -0.46090
 Alpha virt. eigenvalues --    0.19034   0.26331   0.29711   0.35794   0.76988
 Alpha virt. eigenvalues --    0.80915   0.87815   0.88220   0.96007   1.12869
 Alpha virt. eigenvalues --    1.18820   1.19913   1.23473   1.30687   2.63162

 Mulliken charges:
               1
     1  O   -0.766583
     2  H    0.365248
     3  H    0.402007
     4  O   -0.727695
     5  H    0.335266
     6  H    0.391758
 Sum of Mulliken charges =  -0.00000

 Dipole moment (field-independent basis, Debye):
    X=             -2.4497    Y=             -2.5815    Z=              0.0000  Tot=              3.5588
 Quadrupole moment (field-independent basis, Debye-Ang):
   XX=            -10.0908   YY=             -3.2935   ZZ=            -15.0038
   XY=             -3.5124   XZ=              0.0000   YZ=              0.0000

 P4DQ=-33.889992\MP4SDQ=-33.8921599\CCSD=-33.8931543\CCSD(T)=-33.895914
 Normal termination of Gaussian 16 at Sun Dec 10 06:42:28 2023.
