 Gaussian 16, Revision A.03,
 Gaussian 16:  ES64L-G16RevA.03 25-Dec-2016

 ------------------
 #p CCSD(T)/CEP-31G
 ------------------

 -----------
 H2O_H2O_174
 -----------
 Symbolic Z-matrix:
 Charge =  0 Multiplicity = 1

                         Standard orientation:
 ---------------------------------------------------------------------
 Center     Atomic      Atomic             Coordinates (Angstroms)
 Number     Number       Type             X           Y           Z
 ---------------------------------------------------------------------
      1          8           0        0.057432   -0.821679    0.000000
      2          1           0       -0.745323   -1.388327    0.000000
      3          1           0        0.853794   -1.397277    0.000000
      4          8           0        0.057432    0.935264    0.000000
      5          1           0       -0.509216    1.738019    0.000000
      6          1           0       -0.518166    0.138901    0.000000
 ---------------------------------------------------------------------

 SCF Done:  E(RHF) =  -33.4829069643     A.U. after   11 cycles
 E2 =    -0.2337489255D+00 EUMP2 =    -0.33716655889770D+02
 CCSD(T)
 CCSD(T)= -0.33731721565D+02

 The electronic state is 1-A'.
 Alpha  occ. eigenvalues --   -1.45463  -1.27184  -0.82081  -0.74351  -0.56969
 Alpha  occ. eigenvalues --   -0.48124  -0.43530  -0.41441
 Alpha virt. eigenvalues --    0.18126   0.26137   0.31256   0.39700   0.77240
 Alpha virt. eigenvalues --    0.84016   0.91032   0.92049   0.97171   1.13692
 Alpha virt. eigenvalues --    1.17213   1.27318   1.33577   1.40696   2.94475

 Mulliken charges:
               1
     1  O   -0.761287
     2  H    0.371936
     3  H    0.474520
     4  O   -0.710440
     5  H    0.274090
     6  H    0.351180
 Sum of Mulliken charges =   0.00000

 Dipole moment (field-independent basis, Debye):
    X=             -2.0661    Y=             -3.6073    Z=              0.0000  Tot=              4.1571
 Quadrupole moment (field-independent basis, Debye-Ang):
   XX=            -10.0749   YY=             -8.5822   ZZ=            -14.8861
   XY=             -2.5290   XZ=              0.0000   YZ=              0.0000

 MP4DQ=-33.7249102\MP4SDQ=-33.7276055\CCSD=-33.7281303\CCSD(T)=-33.7317
 Normal termination of Gaussian 16 at Sun Dec 10 06:28:00 2023.
