 Gaussian 16, Revision A.03,
 Gaussian 16:  ES64L-G16RevA.03 25-Dec-2016

 ------------------
 #p CCSD(T)/CEP-31G
 ------------------

 ------------
 H2O_H2O_1887
 ------------
 Symbolic Z-matrix:
 Charge =  0 Multiplicity = 1

                         Standard orientation:
 ---------------------------------------------------------------------
 Center     Atomic      Atomic             Coordinates (Angstroms)
 Number     Number       Type             X           Y           Z
 ---------------------------------------------------------------------
      1          8           0        0.040417   -1.782705    0.000000
      2          1           0       -0.760256   -2.352291    0.000000
      3          1           0        0.838883   -2.355381    0.000000
      4          8           0        0.040417    1.816005    0.000000
      5          1           0        0.203821    2.784925    0.000000
      6          1           0       -0.929127    1.656347    0.000000
 ---------------------------------------------------------------------

 SCF Done:  E(RHF) =  -33.6478943693     A.U. after   11 cycles
 E2 =    -0.2288183209D+00 EUMP2 =    -0.33876712690244D+02
 CCSD(T)
 CCSD(T)= -0.33893845818D+02

 The electronic state is 1-A'.
 Alpha  occ. eigenvalues --   -1.34534  -1.33724  -0.70161  -0.69306  -0.54163
 Alpha  occ. eigenvalues --   -0.53095  -0.49056  -0.48243
 Alpha virt. eigenvalues --    0.20496   0.22351   0.31243   0.32038   0.76422
 Alpha virt. eigenvalues --    0.80641   0.83156   0.85623   0.88953   1.00588
 Alpha virt. eigenvalues --    1.18199   1.19312   1.22678   1.23629   2.57812

 Mulliken charges:
               1
     1  O   -0.728068
     2  H    0.359316
     3  H    0.369028
     4  O   -0.724427
     5  H    0.355417
     6  H    0.368734
 Sum of Mulliken charges =  -0.00000

 Dipole moment (field-independent basis, Debye):
    X=             -1.8334    Y=             -0.8161    Z=              0.0000  Tot=              2.0068
 Quadrupole moment (field-independent basis, Debye-Ang):
   XX=             -9.1255   YY=              4.9404   ZZ=            -14.9859
   XY=             -2.6062   XZ=              0.0000   YZ=              0.0000

 MP4DQ=-33.8881393\MP4SDQ=-33.8902\CCSD=-33.8912518\CCSD(T)=-33.8938458
 Normal termination of Gaussian 16 at Sun Dec 10 06:59:56 2023.
