 Gaussian 16, Revision A.03,
 Gaussian 16:  ES64L-G16RevA.03 25-Dec-2016

 ------------------
 #p CCSD(T)/CEP-31G
 ------------------

 -----------
 H2O_H2O_836
 -----------
 Symbolic Z-matrix:
 Charge =  0 Multiplicity = 1

                         Standard orientation:
 ---------------------------------------------------------------------
 Center     Atomic      Atomic             Coordinates (Angstroms)
 Number     Number       Type             X           Y           Z
 ---------------------------------------------------------------------
      1          8           0        0.037694   -1.227073    0.000000
      2          1           0       -0.763366   -1.796115    0.000000
      3          1           0        0.835771   -1.800292    0.000000
      4          8           0        0.037694    1.255223    0.000000
      5          1           0        0.264768    2.211226    0.000000
      6          1           0       -0.940282    1.159982    0.000000
 ---------------------------------------------------------------------

 SCF Done:  E(RHF) =  -33.6351255997     A.U. after   11 cycles
 E2 =    -0.2301420384D+00 EUMP2 =    -0.33865267638131D+02
 CCSD(T)
 CCSD(T)= -0.33882672311D+02

 The electronic state is 1-A'.
 Alpha  occ. eigenvalues --   -1.33573  -1.32101  -0.69168  -0.67818  -0.54856
 Alpha  occ. eigenvalues --   -0.48905  -0.48238  -0.46293
 Alpha virt. eigenvalues --    0.20694   0.24742   0.32021   0.32896   0.78882
 Alpha virt. eigenvalues --    0.82215   0.88135   0.88636   0.98017   1.14885
 Alpha virt. eigenvalues --    1.19077   1.22502   1.23845   1.28724   2.56344

 Mulliken charges:
               1
     1  O   -0.723000
     2  H    0.347213
     3  H    0.369981
     4  O   -0.694494
     5  H    0.344532
     6  H    0.355768
 Sum of Mulliken charges =   0.00000

 Dipole moment (field-independent basis, Debye):
    X=             -1.6087    Y=             -0.6905    Z=              0.0000  Tot=              1.7507
 Quadrupole moment (field-independent basis, Debye-Ang):
   XX=             -9.0721   YY=             -0.7216   ZZ=            -14.9931
   XY=             -1.4745   XZ=              0.0000   YZ=              0.0000

 4DQ=-33.8767343\MP4SDQ=-33.8788791\CCSD=-33.8799554\CCSD(T)=-33.882672
 Normal termination of Gaussian 16 at Sun Dec 10 06:40:23 2023.
