 Gaussian 16, Revision A.03,
 Gaussian 16:  ES64L-G16RevA.03 25-Dec-2016

 ------------------
 #p CCSD(T)/CEP-31G
 ------------------

 -----------
 H2O_H2O_950
 -----------
 Symbolic Z-matrix:
 Charge =  0 Multiplicity = 1

                         Standard orientation:
 ---------------------------------------------------------------------
 Center     Atomic      Atomic             Coordinates (Angstroms)
 Number     Number       Type             X           Y           Z
 ---------------------------------------------------------------------
      1          8           0        0.000000   -0.000000    1.308844
      2          1           0        0.000000    0.799571    1.879976
      3          1           0       -0.000000   -0.799571    1.879976
      4          8           0        0.000000   -0.000000   -1.308844
      5          1           0       -0.000000   -0.799571   -1.879976
      6          1           0        0.000000    0.799571   -1.879976
 ---------------------------------------------------------------------

 SCF Done:  E(RHF) =  -33.6335563432     A.U. after   10 cycles
 E2 =    -0.2297643120D+00 EUMP2 =    -0.33863320655194D+02
 CCSD(T)
 CCSD(T)= -0.33880753423D+02

 The electronic state is 1-AG.
 Alpha  occ. eigenvalues --   -1.32842  -1.32321  -0.68389  -0.67986  -0.54368
 Alpha  occ. eigenvalues --   -0.48590  -0.47516  -0.46384
 Alpha virt. eigenvalues --    0.21489   0.23827   0.32536   0.32851   0.79506
 Alpha virt. eigenvalues --    0.79711   0.85956   0.88231   1.05238   1.07585
 Alpha virt. eigenvalues --    1.19589   1.20905   1.24382   1.24900   2.56965

 Mulliken charges:
               1
     1  O   -0.700746
     2  H    0.350373
     3  H    0.350373
     4  O   -0.700746
     5  H    0.350373
     6  H    0.350373
 Sum of Mulliken charges =  -0.00000

 Dipole moment (field-independent basis, Debye):
    X=             -0.0000    Y=              0.0000    Z=              0.0000  Tot=              0.0000
 Quadrupole moment (field-independent basis, Debye-Ang):
   XX=            -14.9918   YY=             -8.2315   ZZ=              0.8914
   XY=              0.0000   XZ=             -0.0000   YZ=             -0.0000

 33.8748644\MP4SDQ=-33.8769633\CCSD=-33.8780584\CCSD(T)=-33.8807534\RMS
 Normal termination of Gaussian 16 at Sun Dec 10 06:42:31 2023.
