 Gaussian 16, Revision A.03,
 Gaussian 16:  ES64L-G16RevA.03 25-Dec-2016

 ------------------
 #p CCSD(T)/CEP-31G
 ------------------

 ------------
 H2O_H2O_4737
 ------------
 Symbolic Z-matrix:
 Charge =  0 Multiplicity = 1

                         Standard orientation:
 ---------------------------------------------------------------------
 Center     Atomic      Atomic             Coordinates (Angstroms)
 Number     Number       Type             X           Y           Z
 ---------------------------------------------------------------------
      1          8           0        0.040403   -3.298402    0.000000
      2          1           0       -0.759767   -3.868695    0.000000
      3          1           0        0.839374   -3.870372    0.000000
      4          8           0        0.040403    3.331773    0.000000
      5          1           0        0.202950    4.300837    0.000000
      6          1           0       -0.929000    3.171259    0.000000
 ---------------------------------------------------------------------

 SCF Done:  E(RHF) =  -33.6511577186     A.U. after   11 cycles
 E2 =    -0.2284152964D+00 EUMP2 =    -0.33879573014972D+02
 CCSD(T)
 CCSD(T)= -0.33896591538D+02

 The electronic state is 1-A'.
 Alpha  occ. eigenvalues --   -1.35256  -1.35029  -0.70886  -0.70654  -0.54956
 Alpha  occ. eigenvalues --   -0.54728  -0.49818  -0.49591
 Alpha virt. eigenvalues --    0.20480   0.20711   0.30716   0.30940   0.80735
 Alpha virt. eigenvalues --    0.80959   0.83820   0.84044   0.86909   0.87166
 Alpha virt. eigenvalues --    1.17619   1.17844   1.22082   1.22308   2.57651

 Mulliken charges:
               1
     1  O   -0.738874
     2  H    0.368526
     3  H    0.370348
     4  O   -0.738651
     5  H    0.367837
     6  H    0.370814
 Sum of Mulliken charges =  -0.00000

 Dipole moment (field-independent basis, Debye):
    X=             -1.8657    Y=             -0.7795    Z=              0.0000  Tot=              2.0220
 Quadrupole moment (field-independent basis, Debye-Ang):
   XX=             -9.0964   YY=             18.9630   ZZ=            -14.9876
   XY=             -5.3603   XZ=              0.0000   YZ=              0.0000

 MP4DQ=-33.8909425\MP4SDQ=-33.8929719\CCSD=-33.8940284\CCSD(T)=-33.8965
 Normal termination of Gaussian 16 at Sun Dec 10 07:06:57 2023.
