 Gaussian 16, Revision A.03,
 Gaussian 16:  ES64L-G16RevA.03 25-Dec-2016

 ------------------
 #p CCSD(T)/CEP-31G
 ------------------

 ------------
 H2O_H2O_2817
 ------------
 Symbolic Z-matrix:
 Charge =  0 Multiplicity = 1

                         Standard orientation:
 ---------------------------------------------------------------------
 Center     Atomic      Atomic             Coordinates (Angstroms)
 Number     Number       Type             X           Y           Z
 ---------------------------------------------------------------------
      1          8           0        0.051284   -2.258249    0.000000
      2          1           0       -0.749385   -2.827840    0.000000
      3          1           0        0.849754   -2.830919    0.000000
      4          8           0        0.051284    2.321757    0.000000
      5          1           0       -0.105439    3.291779    0.000000
      6          1           0       -0.815482    1.858917    0.000000
 ---------------------------------------------------------------------

 SCF Done:  E(RHF) =  -33.6509932480     A.U. after   11 cycles
 E2 =    -0.2284832853D+00 EUMP2 =    -0.33879476533307D+02
 CCSD(T)
 CCSD(T)= -0.33896500521D+02

 The electronic state is 1-A'.
 Alpha  occ. eigenvalues --   -1.35288  -1.34352  -0.70920  -0.69949  -0.54979
 Alpha  occ. eigenvalues --   -0.54030  -0.49847  -0.48914
 Alpha virt. eigenvalues --    0.20333   0.21488   0.30662   0.31612   0.80695
 Alpha virt. eigenvalues --    0.81631   0.82701   0.85242   0.86870   0.88714
 Alpha virt. eigenvalues --    1.17580   1.18535   1.22021   1.23043   2.57620

 Mulliken charges:
               1
     1  O   -0.738417
     2  H    0.366062
     3  H    0.372400
     4  O   -0.736887
     5  H    0.362683
     6  H    0.374160
 Sum of Mulliken charges =   0.00000

 Dipole moment (field-independent basis, Debye):
    X=             -2.3535    Y=             -1.5105    Z=              0.0000  Tot=              2.7965
 Quadrupole moment (field-independent basis, Debye-Ang):
   XX=             -9.7426   YY=              6.8747   ZZ=            -14.9883
   XY=             -4.9111   XZ=              0.0000   YZ=              0.0000

 \MP4DQ=-33.8908478\MP4SDQ=-33.8928796\CCSD=-33.8939335\CCSD(T)=-33.896
 Normal termination of Gaussian 16 at Sun Dec 10 06:30:37 2023.
