 Gaussian 16, Revision A.03,
 Gaussian 16:  ES64L-G16RevA.03 25-Dec-2016

 ------------------
 #p CCSD(T)/CEP-31G
 ------------------

 ------------
 H2O_H2O_2839
 ------------
 Symbolic Z-matrix:
 Charge =  0 Multiplicity = 1

                         Standard orientation:
 ---------------------------------------------------------------------
 Center     Atomic      Atomic             Coordinates (Angstroms)
 Number     Number       Type             X           Y           Z
 ---------------------------------------------------------------------
      1          8           0        0.045349   -2.281849    0.000000
      2          1           0       -0.755188   -2.851626    0.000000
      3          1           0        0.843952   -2.854333    0.000000
      4          8           0        0.045349    2.326385    0.000000
      5          1           0        0.080650    3.308352    0.000000
      6          1           0       -0.894993    2.041316    0.000000
 ---------------------------------------------------------------------

 SCF Done:  E(RHF) =  -33.6503064858     A.U. after   11 cycles
 E2 =    -0.2285087760D+00 EUMP2 =    -0.33878815261803D+02
 CCSD(T)
 CCSD(T)= -0.33895859097D+02

 The electronic state is 1-A'.
 Alpha  occ. eigenvalues --   -1.35048  -1.34402  -0.70677  -0.70006  -0.54699
 Alpha  occ. eigenvalues --   -0.54047  -0.49597  -0.48955
 Alpha virt. eigenvalues --    0.20570   0.21363   0.30870   0.31508   0.80940
 Alpha virt. eigenvalues --    0.81601   0.82902   0.85381   0.87175   0.88657
 Alpha virt. eigenvalues --    1.17792   1.18438   1.22252   1.22920   2.57847

 Mulliken charges:
               1
     1  O   -0.736023
     2  H    0.365233
     3  H    0.370811
     4  O   -0.734613
     5  H    0.362835
     6  H    0.371757
 Sum of Mulliken charges =  -0.00000

 Dipole moment (field-independent basis, Debye):
    X=             -2.0813    Y=             -1.0582    Z=              0.0000  Tot=              2.3348
 Quadrupole moment (field-independent basis, Debye-Ang):
   XX=             -9.3761   YY=              8.7135   ZZ=            -14.9872
   XY=             -4.0971   XZ=              0.0000   YZ=              0.0000

 MP4DQ=-33.8902016\MP4SDQ=-33.8922347\CCSD=-33.8932905\CCSD(T)=-33.8958
 Normal termination of Gaussian 16 at Sun Dec 10 06:31:03 2023.
