 Gaussian 16, Revision A.03,
 Gaussian 16:  ES64L-G16RevA.03 25-Dec-2016

 ------------------
 #p CCSD(T)/CEP-31G
 ------------------

 ------------
 H2O_H2O_1661
 ------------
 Symbolic Z-matrix:
 Charge =  0 Multiplicity = 1

                         Standard orientation:
 ---------------------------------------------------------------------
 Center     Atomic      Atomic             Coordinates (Angstroms)
 Number     Number       Type             X           Y           Z
 ---------------------------------------------------------------------
      1          8           0        0.037685   -1.665812    0.000000
      2          1           0       -0.762987   -2.235400    0.000000
      3          1           0        0.836152   -2.238485    0.000000
      4          8           0        0.037685    1.694013    0.000000
      5          1           0        0.264106    2.650171    0.000000
      6          1           0       -0.940226    1.598105    0.000000
 ---------------------------------------------------------------------

 SCF Done:  E(RHF) =  -33.6464457448     A.U. after   11 cycles
 E2 =    -0.2289694733D+00 EUMP2 =    -0.33875415218194D+02
 CCSD(T)
 CCSD(T)= -0.33892609615D+02

 The electronic state is 1-A'.
 Alpha  occ. eigenvalues --   -1.34279  -1.33497  -0.69905  -0.69077  -0.54008
 Alpha  occ. eigenvalues --   -0.52611  -0.48793  -0.47988
 Alpha virt. eigenvalues --    0.20565   0.22672   0.31447   0.32177   0.75581
 Alpha virt. eigenvalues --    0.80299   0.84042   0.84937   0.90454   1.05630
 Alpha virt. eigenvalues --    1.18393   1.19744   1.22950   1.23802   2.58247

 Mulliken charges:
               1
     1  O   -0.724042
     2  H    0.356703
     3  H    0.367549
     4  O   -0.719410
     5  H    0.352761
     6  H    0.366438
 Sum of Mulliken charges =   0.00000

 Dipole moment (field-independent basis, Debye):
    X=             -1.7001    Y=             -0.6981    Z=              0.0000  Tot=              1.8378
 Quadrupole moment (field-independent basis, Debye-Ang):
   XX=             -9.0047   YY=              4.0549   ZZ=            -14.9854
   XY=             -2.1778   XZ=              0.0000   YZ=              0.0000

 P4DQ=-33.8868711\MP4SDQ=-33.8889471\CCSD=-33.8900018\CCSD(T)=-33.89260
 Normal termination of Gaussian 16 at Sun Dec 10 06:55:46 2023.
