 Gaussian 16, Revision A.03,
 Gaussian 16:  ES64L-G16RevA.03 25-Dec-2016

 ------------------
 #p CCSD(T)/CEP-31G
 ------------------

 ------------
 H2O_H2O_1239
 ------------
 Symbolic Z-matrix:
 Charge =  0 Multiplicity = 1

                         Standard orientation:
 ---------------------------------------------------------------------
 Center     Atomic      Atomic             Coordinates (Angstroms)
 Number     Number       Type             X           Y           Z
 ---------------------------------------------------------------------
      1          8           0        0.045371   -1.430957    0.000000
      2          1           0       -0.755730   -1.999941    0.000000
      3          1           0        0.843406   -2.004233    0.000000
      4          8           0        0.045371    1.475403    0.000000
      5          1           0        0.081646    2.457336    0.000000
      6          1           0       -0.895253    1.191268    0.000000
 ---------------------------------------------------------------------

 SCF Done:  E(RHF) =  -33.6452363199     A.U. after   11 cycles
 E2 =    -0.2294126886D+00 EUMP2 =    -0.33874649008433D+02
 CCSD(T)
 CCSD(T)= -0.33891924735D+02

 The electronic state is 1-A'.
 Alpha  occ. eigenvalues --   -1.34415  -1.32805  -0.70049  -0.68391  -0.54349
 Alpha  occ. eigenvalues --   -0.51670  -0.48954  -0.47272
 Alpha virt. eigenvalues --    0.20206   0.23910   0.31320   0.32719   0.78161
 Alpha virt. eigenvalues --    0.79002   0.84341   0.86149   0.91971   1.14645
 Alpha virt. eigenvalues --    1.18222   1.22196   1.22871   1.26107   2.60777

 Mulliken charges:
               1
     1  O   -0.727288
     2  H    0.353790
     3  H    0.372560
     4  O   -0.712549
     5  H    0.345843
     6  H    0.367642
 Sum of Mulliken charges =   0.00000

 Dipole moment (field-independent basis, Debye):
    X=             -2.0073    Y=             -1.1118    Z=              0.0000  Tot=              2.2946
 Quadrupole moment (field-independent basis, Debye-Ang):
   XX=             -9.4105   YY=              0.9856   ZZ=            -14.9885
   XY=             -2.3993   XZ=              0.0000   YZ=              0.0000

 MP4DQ=-33.8861086\MP4SDQ=-33.888221\CCSD=-33.88928\CCSD(T)=-33.8919247
 Normal termination of Gaussian 16 at Sun Dec 10 06:47:55 2023.
