 Gaussian 16, Revision A.03,
 Gaussian 16:  ES64L-G16RevA.03 25-Dec-2016

 ------------------
 #p CCSD(T)/CEP-31G
 ------------------

 -----------
 H2O_H2O_783
 -----------
 Symbolic Z-matrix:
 Charge =  0 Multiplicity = 1

                         Standard orientation:
 ---------------------------------------------------------------------
 Center     Atomic      Atomic             Coordinates (Angstroms)
 Number     Number       Type             X           Y           Z
 ---------------------------------------------------------------------
      1          8           0        0.028572   -1.207522    0.000000
      2          1           0       -0.772153   -1.777035    0.000000
      3          1           0        0.826986   -1.780271    0.000000
      4          8           0        0.028572    1.222710    0.000000
      5          1           0        0.437265    2.116285    0.000000
      6          1           0       -0.949249    1.319518    0.000000
 ---------------------------------------------------------------------

 SCF Done:  E(RHF) =  -33.6307541866     A.U. after   11 cycles
 E2 =    -0.2302322965D+00 EUMP2 =    -0.33860986483179D+02
 CCSD(T)
 CCSD(T)= -0.33878405667D+02

 The electronic state is 1-A'.
 Alpha  occ. eigenvalues --   -1.33110  -1.31975  -0.68654  -0.67688  -0.55096
 Alpha  occ. eigenvalues --   -0.47840  -0.47786  -0.46017
 Alpha virt. eigenvalues --    0.21079   0.24631   0.32409   0.32899   0.79232
 Alpha virt. eigenvalues --    0.80624   0.89016   0.90187   1.00896   1.13189
 Alpha virt. eigenvalues --    1.19466   1.22686   1.24247   1.27154   2.54808

 Mulliken charges:
               1
     1  O   -0.713296
     2  H    0.345073
     3  H    0.363910
     4  O   -0.694295
     5  H    0.347342
     6  H    0.351266
 Sum of Mulliken charges =  -0.00000

 Dipole moment (field-independent basis, Debye):
    X=             -1.2093    Y=             -0.3670    Z=              0.0000  Tot=              1.2637
 Quadrupole moment (field-independent basis, Debye-Ang):
   XX=             -8.7326   YY=             -0.7085   ZZ=            -14.9960
   XY=             -0.9788   XZ=              0.0000   YZ=              0.0000

 MP4DQ=-33.8724524\MP4SDQ=-33.874589\CCSD=-33.8756728\CCSD(T)=-33.87840
 Normal termination of Gaussian 16 at Sun Dec 10 06:39:23 2023.
