 Gaussian 16, Revision A.03,
 Gaussian 16:  ES64L-G16RevA.03 25-Dec-2016

 ------------------
 #p CCSD(T)/CEP-31G
 ------------------

 -----------
 H2O_H2O_999
 -----------
 Symbolic Z-matrix:
 Charge =  0 Multiplicity = 1

                         Standard orientation:
 ---------------------------------------------------------------------
 Center     Atomic      Atomic             Coordinates (Angstroms)
 Number     Number       Type             X           Y           Z
 ---------------------------------------------------------------------
      1          8           0        0.057326   -1.260332    0.000000
      2          1           0       -0.744371   -1.828476    0.000000
      3          1           0        0.854760   -1.834445    0.000000
      4          8           0        0.057326    1.374132    0.000000
      5          1           0       -0.510818    2.175829    0.000000
      6          1           0       -0.516786    0.576697    0.000000
 ---------------------------------------------------------------------

 SCF Done:  E(RHF) =  -33.6525212394     A.U. after   11 cycles
 E2 =    -0.2297081358D+00 EUMP2 =    -0.33882229375224D+02
 CCSD(T)
 CCSD(T)= -0.33899019128D+02

 The electronic state is 1-A'.
 Alpha  occ. eigenvalues --   -1.37137  -1.31390  -0.72786  -0.68142  -0.56254
 Alpha  occ. eigenvalues --   -0.51755  -0.51269  -0.45979
 Alpha virt. eigenvalues --    0.18726   0.26511   0.29241   0.37291   0.76607
 Alpha virt. eigenvalues --    0.79329   0.87549   0.87700   0.96759   1.10584
 Alpha virt. eigenvalues --    1.17652   1.19920   1.23559   1.31576   2.59562

 Mulliken charges:
               1
     1  O   -0.775377
     2  H    0.370668
     3  H    0.408279
     4  O   -0.740705
     5  H    0.336400
     6  H    0.400734
 Sum of Mulliken charges =  -0.00000

 Dipole moment (field-independent basis, Debye):
    X=             -2.4849    Y=             -3.0031    Z=              0.0000  Tot=              3.8979
 Quadrupole moment (field-independent basis, Debye-Ang):
   XX=            -10.1196   YY=             -4.0064   ZZ=            -15.0078
   XY=             -3.8747   XZ=              0.0000   YZ=              0.0000

 \MP4DQ=-33.8931164\MP4SDQ=-33.8952744\CCSD=-33.896251\CCSD(T)=-33.8990
 Normal termination of Gaussian 16 at Sun Dec 10 06:43:26 2023.
