 Gaussian 16, Revision A.03,
 Gaussian 16:  ES64L-G16RevA.03 25-Dec-2016

 ------------------
 #p CCSD(T)/CEP-31G
 ------------------

 ------------
 H2O_H2O_1533
 ------------
 Symbolic Z-matrix:
 Charge =  0 Multiplicity = 1

                         Standard orientation:
 ---------------------------------------------------------------------
 Center     Atomic      Atomic             Coordinates (Angstroms)
 Number     Number       Type             X           Y           Z
 ---------------------------------------------------------------------
      1          8           0        0.028568   -1.606384    0.000000
      2          1           0       -0.771872   -2.176298    0.000000
      3          1           0        0.827268   -2.178734    0.000000
      4          8           0        0.028568    1.621601    0.000000
      5          1           0        0.436814    2.515381    0.000000
      6          1           0       -0.949301    1.717920    0.000000
 ---------------------------------------------------------------------

 SCF Done:  E(RHF) =  -33.6443307220     A.U. after   11 cycles
 E2 =    -0.2290639105D+00 EUMP2 =    -0.33873394632519D+02
 CCSD(T)
 CCSD(T)= -0.33890656852D+02

 The electronic state is 1-A'.
 Alpha  occ. eigenvalues --   -1.33852  -1.33394  -0.69473  -0.68988  -0.53800
 Alpha  occ. eigenvalues --   -0.52056  -0.48370  -0.47823
 Alpha virt. eigenvalues --    0.20868   0.22739   0.31793   0.32197   0.76096
 Alpha virt. eigenvalues --    0.80221   0.84157   0.84732   0.92648   1.07361
 Alpha virt. eigenvalues --    1.18753   1.19660   1.23396   1.23783   2.59237

 Mulliken charges:
               1
     1  O   -0.718032
     2  H    0.354431
     3  H    0.363604
     4  O   -0.714446
     5  H    0.352185
     6  H    0.362259
 Sum of Mulliken charges =   0.00000

 Dipole moment (field-independent basis, Debye):
    X=             -1.2851    Y=             -0.3787    Z=              0.0000  Tot=              1.3398
 Quadrupole moment (field-independent basis, Debye-Ang):
   XX=             -8.6473   YY=              4.0063   ZZ=            -14.9845
   XY=             -1.4618   XZ=              0.0000   YZ=              0.0000

 \MP4DQ=-33.8848922\MP4SDQ=-33.8869754\CCSD=-33.8880382\CCSD(T)=-33.890
 Normal termination of Gaussian 16 at Sun Dec 10 06:53:23 2023.
