 Gaussian 16, Revision A.03,
 Gaussian 16:  ES64L-G16RevA.03 25-Dec-2016

 ------------------
 #p CCSD(T)/CEP-31G
 ------------------

 ------------
 H2O_H2O_3389
 ------------
 Symbolic Z-matrix:
 Charge =  0 Multiplicity = 1

                         Standard orientation:
 ---------------------------------------------------------------------
 Center     Atomic      Atomic             Coordinates (Angstroms)
 Number     Number       Type             X           Y           Z
 ---------------------------------------------------------------------
      1          8           0        0.045344   -2.574349    0.000000
      2          1           0       -0.755084   -3.144279    0.000000
      3          1           0        0.844057   -3.146682    0.000000
      4          8           0        0.045344    2.618903    0.000000
      5          1           0        0.080459    3.600877    0.000000
      6          1           0       -0.894943    2.333656    0.000000
 ---------------------------------------------------------------------

 SCF Done:  E(RHF) =  -33.6507380761     A.U. after   11 cycles
 E2 =    -0.2284590770D+00 EUMP2 =    -0.33879197153138D+02
 CCSD(T)
 CCSD(T)= -0.33896227912D+02

 The electronic state is 1-A'.
 Alpha  occ. eigenvalues --   -1.35156  -1.34653  -0.70785  -0.70266  -0.54831
 Alpha  occ. eigenvalues --   -0.54325  -0.49711  -0.49210
 Alpha virt. eigenvalues --    0.20550   0.21078   0.30792   0.31286   0.80842
 Alpha virt. eigenvalues --    0.81335   0.83822   0.84580   0.87036   0.87673
 Alpha virt. eigenvalues --    1.17702   1.18199   1.22168   1.22671   2.57742

 Mulliken charges:
               1
     1  O   -0.737468
     2  H    0.366727
     3  H    0.370742
     4  O   -0.736661
     5  H    0.365024
     6  H    0.371636
 Sum of Mulliken charges =  -0.00000

 Dipole moment (field-independent basis, Debye):
    X=             -2.0871    Y=             -1.0504    Z=              0.0000  Tot=              2.3365
 Quadrupole moment (field-independent basis, Debye-Ang):
   XX=             -9.3739   YY=             11.2619   ZZ=            -14.9874
   XY=             -4.6955   XZ=              0.0000   YZ=              0.0000

 \MP4DQ=-33.8905752\MP4SDQ=-33.8926061\CCSD=-33.8936625\CCSD(T)=-33.896
 Normal termination of Gaussian 16 at Sun Dec 10 06:40:52 2023.
