 Gaussian 16, Revision A.03,
 Gaussian 16:  ES64L-G16RevA.03 25-Dec-2016

 ------------------
 #p CCSD(T)/CEP-31G
 ------------------

 -----------
 H2O_H2O_173
 -----------
 Symbolic Z-matrix:
 Charge =  0 Multiplicity = 1

                         Standard orientation:
 ---------------------------------------------------------------------
 Center     Atomic      Atomic             Coordinates (Angstroms)
 Number     Number       Type             X           Y           Z
 ---------------------------------------------------------------------
      1          8           0        0.057288   -0.825734    0.000000
      2          1           0       -0.745459   -1.392394    0.000000
      3          1           0        0.853658   -1.401321    0.000000
      4          8           0        0.057288    0.931852    0.000000
      5          1           0       -0.455656    1.769942    0.000000
      6          1           0       -0.569152    0.174831    0.000000
 ---------------------------------------------------------------------

 SCF Done:  E(RHF) =  -33.4933691382     A.U. after   11 cycles
 E2 =    -0.2342696614D+00 EUMP2 =    -0.33727638799579D+02
 CCSD(T)
 CCSD(T)= -0.33743058924D+02

 The electronic state is 1-A'.
 Alpha  occ. eigenvalues --   -1.44036  -1.27659  -0.80679  -0.73477  -0.56016
 Alpha  occ. eigenvalues --   -0.48684  -0.43960  -0.42017
 Alpha virt. eigenvalues --    0.18441   0.26872   0.30900   0.38323   0.77800
 Alpha virt. eigenvalues --    0.83879   0.90634   0.92867   0.97622   1.15261
 Alpha virt. eigenvalues --    1.17530   1.26423   1.33015   1.39024   2.87562

 Mulliken charges:
               1
     1  O   -0.778383
     2  H    0.367408
     3  H    0.462619
     4  O   -0.691466
     5  H    0.277546
     6  H    0.362276
 Sum of Mulliken charges =   0.00000

 Dipole moment (field-independent basis, Debye):
    X=             -2.0723    Y=             -3.2358    Z=              0.0000  Tot=              3.8425
 Quadrupole moment (field-independent basis, Debye-Ang):
   XX=            -10.0835   YY=             -8.2978   ZZ=            -14.9027
   XY=             -2.3968   XZ=              0.0000   YZ=              0.0000

 MP4DQ=-33.7362697\MP4SDQ=-33.738944\CCSD=-33.7395044\CCSD(T)=-33.74305
 Normal termination of Gaussian 16 at Sun Dec 10 06:27:59 2023.
