 Gaussian 16, Revision A.03,
 Gaussian 16:  ES64L-G16RevA.03 25-Dec-2016

 ------------------
 #p CCSD(T)/CEP-31G
 ------------------

 ------------
 H2O_H2O_1913
 ------------
 Symbolic Z-matrix:
 Charge =  0 Multiplicity = 1

                         Standard orientation:
 ---------------------------------------------------------------------
 Center     Atomic      Atomic             Coordinates (Angstroms)
 Number     Number       Type             X           Y           Z
 ---------------------------------------------------------------------
      1          8           0        0.042980   -1.793049    0.000000
      2          1           0       -0.757755   -2.362549    0.000000
      3          1           0        0.841384   -2.365810    0.000000
      4          8           0        0.042980    1.831785    0.000000
      5          1           0        0.142767    2.809307    0.000000
      6          1           0       -0.914070    1.609160    0.000000
 ---------------------------------------------------------------------

 SCF Done:  E(RHF) =  -33.6483905409     A.U. after   11 cycles
 E2 =    -0.2287966939D+00 EUMP2 =    -0.33877187234784D+02
 CCSD(T)
 CCSD(T)= -0.33894304877D+02

 The electronic state is 1-A'.
 Alpha  occ. eigenvalues --   -1.34660  -1.33730  -0.70289  -0.69308  -0.54282
 Alpha  occ. eigenvalues --   -0.53166  -0.49187  -0.48257
 Alpha virt. eigenvalues --    0.20394   0.22372   0.31130   0.32065   0.76533
 Alpha virt. eigenvalues --    0.80602   0.83049   0.85688   0.88563   1.00127
 Alpha virt. eigenvalues --    1.18090   1.19371   1.22543   1.23691   2.57667

 Mulliken charges:
               1
     1  O   -0.729685
     2  H    0.359943
     3  H    0.370061
     4  O   -0.725863
     5  H    0.355560
     6  H    0.369985
 Sum of Mulliken charges =  -0.00000

 Dipole moment (field-independent basis, Debye):
    X=             -1.9503    Y=             -0.9480    Z=              0.0000  Tot=              2.1685
 Quadrupole moment (field-independent basis, Debye-Ang):
   XX=             -9.2567   YY=              4.7300   ZZ=            -14.9864
   XY=             -2.8674   XZ=              0.0000   YZ=              0.0000

 \MP4DQ=-33.8886035\MP4SDQ=-33.8906624\CCSD=-33.8917129\CCSD(T)=-33.894
 Normal termination of Gaussian 16 at Sun Dec 10 07:00:40 2023.
