 Gaussian 16, Revision A.03,
 Gaussian 16:  ES64L-G16RevA.03 25-Dec-2016

 ------------------
 #p CCSD(T)/CEP-31G
 ------------------

 ------------
 H2O_H2O_2543
 ------------
 Symbolic Z-matrix:
 Charge =  0 Multiplicity = 1

                         Standard orientation:
 ---------------------------------------------------------------------
 Center     Atomic      Atomic             Coordinates (Angstroms)
 Number     Number       Type             X           Y           Z
 ---------------------------------------------------------------------
      1          8           0        0.052840   -2.108310    0.000000
      2          1           0       -0.747939   -2.677747    0.000000
      3          1           0        0.851199   -2.681136    0.000000
      4          8           0        0.052840    2.178600    0.000000
      5          1           0       -0.166805    3.136339    0.000000
      6          1           0       -0.781900    1.660223    0.000000
 ---------------------------------------------------------------------

 SCF Done:  E(RHF) =  -33.6511697850     A.U. after   11 cycles
 E2 =    -0.2285147342D+00 EUMP2 =    -0.33879684519151D+02
 CCSD(T)
 CCSD(T)= -0.33896704631D+02

 The electronic state is 1-A'.
 Alpha  occ. eigenvalues --   -1.35358  -1.34161  -0.70991  -0.69747  -0.55059
 Alpha  occ. eigenvalues --   -0.53842  -0.49920  -0.48727
 Alpha virt. eigenvalues --    0.20136   0.21807   0.30579   0.31833   0.80587
 Alpha virt. eigenvalues --    0.81435   0.81849   0.85546   0.86768   0.90294
 Alpha virt. eigenvalues --    1.17515   1.18815   1.21921   1.23403   2.57503

 Mulliken charges:
               1
     1  O   -0.738994
     2  H    0.365679
     3  H    0.373465
     4  O   -0.737015
     5  H    0.361117
     6  H    0.375749
 Sum of Mulliken charges =  -0.00000

 Dipole moment (field-independent basis, Debye):
    X=             -2.4197    Y=             -1.6832    Z=              0.0000  Tot=              2.9476
 Quadrupole moment (field-independent basis, Debye-Ang):
   XX=             -9.8450   YY=              5.1281   ZZ=            -14.9889
   XY=             -4.8260   XZ=              0.0000   YZ=              0.0000

 8\MP4DQ=-33.8910492\MP4SDQ=-33.8930838\CCSD=-33.8941351\CCSD(T)=-33.89
 Normal termination of Gaussian 16 at Sun Dec 10 06:25:31 2023.
