 Gaussian 16, Revision A.03,
 Gaussian 16:  ES64L-G16RevA.03 25-Dec-2016

 ------------------
 #p CCSD(T)/CEP-31G
 ------------------

 ------------
 H2O_H2O_3532
 ------------
 Symbolic Z-matrix:
 Charge =  0 Multiplicity = 1

                         Standard orientation:
 ---------------------------------------------------------------------
 Center     Atomic      Atomic             Coordinates (Angstroms)
 Number     Number       Type             X           Y           Z
 ---------------------------------------------------------------------
      1          8           0        0.025265   -2.671947    0.000000
      2          1           0       -0.774769   -3.242429    0.000000
      3          1           0        0.824372   -3.243728    0.000000
      4          8           0        0.025265    2.683685    0.000000
      5          1           0        0.490476    3.549183    0.000000
      6          1           0       -0.944325    2.843065    0.000000
 ---------------------------------------------------------------------

 SCF Done:  E(RHF) =  -33.6500801210     A.U. after   11 cycles
 E2 =    -0.2284793346D+00 EUMP2 =    -0.33878559455659D+02
 CCSD(T)
 CCSD(T)= -0.33895609032D+02

 The electronic state is 1-A'.
 Alpha  occ. eigenvalues --   -1.34867  -1.34743  -0.70494  -0.70365  -0.54506
 Alpha  occ. eigenvalues --   -0.54381  -0.49413  -0.49290
 Alpha virt. eigenvalues --    0.20807   0.20939   0.31041   0.31160   0.81139
 Alpha virt. eigenvalues --    0.81262   0.84169   0.84620   0.87372   0.87537
 Alpha virt. eigenvalues --    1.17962   1.18084   1.22435   1.22557   2.58020

 Mulliken charges:
               1
     1  O   -0.735112
     2  H    0.366512
     3  H    0.368600
     4  O   -0.734839
     5  H    0.365964
     6  H    0.368874
 Sum of Mulliken charges =   0.00000

 Dipole moment (field-independent basis, Debye):
    X=             -1.1636    Y=             -0.2763    Z=              0.0000  Tot=              1.1960
 Quadrupole moment (field-independent basis, Debye-Ang):
   XX=             -8.4608   YY=             15.2604   ZZ=            -14.9863
   XY=             -2.4435   XZ=              0.0000   YZ=              0.0000

 \MP4DQ=-33.8899513\MP4SDQ=-33.8919837\CCSD=-33.8930419\CCSD(T)=-33.895
 Normal termination of Gaussian 16 at Sun Dec 10 06:43:28 2023.
