 Gaussian 16, Revision A.03,
 Gaussian 16:  ES64L-G16RevA.03 25-Dec-2016

 ------------------
 #p CCSD(T)/CEP-31G
 ------------------

 -----------
 H2O_H2O_169
 -----------
 Symbolic Z-matrix:
 Charge =  0 Multiplicity = 1

                         Standard orientation:
 ---------------------------------------------------------------------
 Center     Atomic      Atomic             Coordinates (Angstroms)
 Number     Number       Type             X           Y           Z
 ---------------------------------------------------------------------
      1          8           0        0.054287   -0.841582    0.000000
      2          1           0       -0.748295   -1.408476    0.000000
      3          1           0        0.850825   -1.416936    0.000000
      4          8           0        0.054287    0.918518    0.000000
      5          1           0       -0.224542    1.860730    0.000000
      6          1           0       -0.746572    0.349193    0.000000
 ---------------------------------------------------------------------

 SCF Done:  E(RHF) =  -33.5243490641     A.U. after   11 cycles
 E2 =    -0.2349689907D+00 EUMP2 =    -0.33759318054810D+02
 CCSD(T)
 CCSD(T)= -0.33775903154D+02

 The electronic state is 1-A'.
 Alpha  occ. eigenvalues --   -1.39906  -1.28918  -0.76230  -0.70938  -0.53268
 Alpha  occ. eigenvalues --   -0.52692  -0.43304  -0.42785
 Alpha virt. eigenvalues --    0.19348   0.29232   0.29732   0.34789   0.79493
 Alpha virt. eigenvalues --    0.83571   0.89726   0.95218   0.97769   1.17679
 Alpha virt. eigenvalues --    1.20655   1.25564   1.30510   1.36390   2.68991

 Mulliken charges:
               1
     1  O   -0.791575
     2  H    0.353526
     3  H    0.423394
     4  O   -0.644097
     5  H    0.294618
     6  H    0.364135
 Sum of Mulliken charges =  -0.00000

 Dipole moment (field-independent basis, Debye):
    X=             -1.9845    Y=             -2.0647    Z=              0.0000  Tot=              2.8638
 Quadrupole moment (field-independent basis, Debye-Ang):
   XX=             -9.9506   YY=             -7.3329   ZZ=            -14.9410
   XY=             -1.8726   XZ=              0.0000   YZ=              0.0000

 MP4DQ=-33.7692254\MP4SDQ=-33.7718359\CCSD=-33.7725254\CCSD(T)=-33.7759
 Normal termination of Gaussian 16 at Sun Dec 10 06:27:54 2023.
