 Gaussian 16, Revision A.03,
 Gaussian 16:  ES64L-G16RevA.03 25-Dec-2016

 ------------------
 #p CCSD(T)/CEP-31G
 ------------------

 ----------
 H2O_H2O_91
 ----------
 Symbolic Z-matrix:
 Charge =  0 Multiplicity = 1

                         Standard orientation:
 ---------------------------------------------------------------------
 Center     Atomic      Atomic             Coordinates (Angstroms)
 Number     Number       Type             X           Y           Z
 ---------------------------------------------------------------------
      1          8           0        0.049605   -0.812733    0.000000
      2          1           0       -0.752847   -1.379810    0.000000
      3          1           0        0.846275   -1.387906    0.000000
      4          8           0        0.049605    0.869345    0.000000
      5          1           0       -0.040271    1.847828    0.000000
      6          1           0       -0.846843    0.466995    0.000000
 ---------------------------------------------------------------------

 SCF Done:  E(RHF) =  -33.4998907382     A.U. after   11 cycles
 E2 =    -0.2364910397D+00 EUMP2 =    -0.33736381777869D+02
 CCSD(T)
 CCSD(T)= -0.33753196524D+02

 The electronic state is 1-A'.
 Alpha  occ. eigenvalues --   -1.39651  -1.28855  -0.75357  -0.70474  -0.55761
 Alpha  occ. eigenvalues --   -0.53197  -0.43117  -0.38664
 Alpha virt. eigenvalues --    0.19719   0.29273   0.30400   0.33688   0.80555
 Alpha virt. eigenvalues --    0.83674   0.89190   0.95544   0.96683   1.19011
 Alpha virt. eigenvalues --    1.21879   1.26057   1.27881   1.38706   2.63368

 Mulliken charges:
               1
     1  O   -0.771903
     2  H    0.342381
     3  H    0.406786
     4  O   -0.630923
     5  H    0.299486
     6  H    0.354173
 Sum of Mulliken charges =   0.00000

 Dipole moment (field-independent basis, Debye):
    X=             -1.7712    Y=             -1.4859    Z=              0.0000  Tot=              2.3119
 Quadrupole moment (field-independent basis, Debye-Ang):
   XX=             -9.7217   YY=             -7.7063   ZZ=            -14.9312
   XY=             -1.4224   XZ=              0.0000   YZ=              0.0000

 P4DQ=-33.746384\MP4SDQ=-33.7491064\CCSD=-33.7497282\CCSD(T)=-33.753196
 Normal termination of Gaussian 16 at Sun Dec 10 06:26:26 2023.
