 Gaussian 16, Revision A.03,
 Gaussian 16:  ES64L-G16RevA.03 25-Dec-2016

 ------------------
 #p CCSD(T)/CEP-31G
 ------------------

 ------------
 H2O_H2O_4647
 ------------
 Symbolic Z-matrix:
 Charge =  0 Multiplicity = 1

                         Standard orientation:
 ---------------------------------------------------------------------
 Center     Atomic      Atomic             Coordinates (Angstroms)
 Number     Number       Type             X           Y           Z
 ---------------------------------------------------------------------
      1          8           0        0.056699   -3.209497    0.000000
      2          1           0       -0.743726   -3.779433    0.000000
      3          1           0        0.855415   -3.781825    0.000000
      4          8           0        0.056699    3.308645    0.000000
      5          1           0       -0.403885    4.176613    0.000000
      6          1           0       -0.614986    2.591465    0.000000
 ---------------------------------------------------------------------

 SCF Done:  E(RHF) =  -33.6519303781     A.U. after   11 cycles
 E2 =    -0.2283760752D+00 EUMP2 =    -0.33880306453267D+02
 CCSD(T)
 CCSD(T)= -0.33897302438D+02

 The electronic state is 1-A'.
 Alpha  occ. eigenvalues --   -1.35654  -1.34968  -0.71288  -0.70590  -0.55397
 Alpha  occ. eigenvalues --   -0.54701  -0.50228  -0.49541
 Alpha virt. eigenvalues --    0.20125   0.20831   0.30366   0.31066   0.80323
 Alpha virt. eigenvalues --    0.81001   0.83334   0.84031   0.86451   0.87186
 Alpha virt. eigenvalues --    1.17254   1.17937   1.21710   1.22407   2.57267

 Mulliken charges:
               1
     1  O   -0.741638
     2  H    0.369573
     3  H    0.372065
     4  O   -0.741471
     5  H    0.367836
     6  H    0.373634
 Sum of Mulliken charges =   0.00000

 Dipole moment (field-independent basis, Debye):
    X=             -2.6171    Y=             -2.3174    Z=              0.0000  Tot=              3.4956
 Quadrupole moment (field-independent basis, Debye-Ang):
   XX=            -10.1286   YY=              9.2479   ZZ=            -14.9890
   XY=             -8.5859   XZ=              0.0000   YZ=              0.0000

 P4DQ=-33.8916594\MP4SDQ=-33.8936867\CCSD=-33.8947417\CCSD(T)=-33.89730
 Normal termination of Gaussian 16 at Sun Dec 10 07:05:18 2023.
