 Gaussian 16, Revision A.03,
 Gaussian 16:  ES64L-G16RevA.03 25-Dec-2016

 ------------------
 #p CCSD(T)/CEP-31G
 ------------------

 ------------
 H2O_H2O_4808
 ------------
 Symbolic Z-matrix:
 Charge =  0 Multiplicity = 1

                         Standard orientation:
 ---------------------------------------------------------------------
 Center     Atomic      Atomic             Coordinates (Angstroms)
 Number     Number       Type             X           Y           Z
 ---------------------------------------------------------------------
      1          8           0        0.028562   -3.348125    0.000000
      2          1           0       -0.771427   -3.918671    0.000000
      3          1           0        0.827715   -3.919843    0.000000
      4          8           0        0.028562    3.363387    0.000000
      5          1           0        0.436101    4.257488    0.000000
      6          1           0       -0.949383    3.458932    0.000000
 ---------------------------------------------------------------------

 SCF Done:  E(RHF) =  -33.6509746236     A.U. after   11 cycles
 E2 =    -0.2284223866D+00 EUMP2 =    -0.33879397010295D+02
 CCSD(T)
 CCSD(T)= -0.33896420839D+02

 The electronic state is 1-A'.
 Alpha  occ. eigenvalues --   -1.35154  -1.35053  -0.70783  -0.70680  -0.54844
 Alpha  occ. eigenvalues --   -0.54743  -0.49713  -0.49612
 Alpha virt. eigenvalues --    0.20572   0.20675   0.30806   0.30905   0.80840
 Alpha virt. eigenvalues --    0.80940   0.83943   0.84042   0.87026   0.87142
 Alpha virt. eigenvalues --    1.17713   1.17813   1.22177   1.22278   2.57749

 Mulliken charges:
               1
     1  O   -0.738214
     2  H    0.368478
     3  H    0.369736
     4  O   -0.738094
     5  H    0.368098
     6  H    0.369996
 Sum of Mulliken charges =  -0.00000

 Dipole moment (field-independent basis, Debye):
    X=             -1.3191    Y=             -0.3564    Z=              0.0000  Tot=              1.3664
 Quadrupole moment (field-independent basis, Debye-Ang):
   XX=             -8.5652   YY=             21.7017   ZZ=            -14.9872
   XY=             -3.6749   XZ=              0.0000   YZ=              0.0000

 MP4DQ=-33.8907704\MP4SDQ=-33.8928002\CCSD=-33.8938572\CCSD(T)=-33.8964
 Normal termination of Gaussian 16 at Sun Dec 10 07:08:16 2023.
