 Gaussian 16, Revision A.03,
 Gaussian 16:  ES64L-G16RevA.03 25-Dec-2016

 ------------------
 #p CCSD(T)/CEP-31G
 ------------------

 ------------
 H2O_H2O_3491
 ------------
 Symbolic Z-matrix:
 Charge =  0 Multiplicity = 1

                         Standard orientation:
 ---------------------------------------------------------------------
 Center     Atomic      Atomic             Coordinates (Angstroms)
 Number     Number       Type             X           Y           Z
 ---------------------------------------------------------------------
      1          8           0        0.049507   -2.620798    0.000000
      2          1           0       -0.750981   -3.190645    0.000000
      3          1           0        0.848159   -3.193215    0.000000
      4          8           0        0.049507    2.677752    0.000000
      5          1           0       -0.043750    3.655919    0.000000
      6          1           0       -0.845546    2.272308    0.000000
 ---------------------------------------------------------------------

 SCF Done:  E(RHF) =  -33.6510932035     A.U. after   11 cycles
 E2 =    -0.2284397105D+00 EUMP2 =    -0.33879532913980D+02
 CCSD(T)
 CCSD(T)= -0.33896553316D+02

 The electronic state is 1-A'.
 Alpha  occ. eigenvalues --   -1.35292  -1.34675  -0.70922  -0.70288  -0.54988
 Alpha  occ. eigenvalues --   -0.54366  -0.49853  -0.49238
 Alpha virt. eigenvalues --    0.20434   0.21078   0.30677   0.31289   0.80701
 Alpha virt. eigenvalues --    0.81305   0.83720   0.84458   0.86875   0.87612
 Alpha virt. eigenvalues --    1.17581   1.18192   1.22044   1.22664   2.57611

 Mulliken charges:
               1
     1  O   -0.738713
     2  H    0.367303
     3  H    0.371411
     4  O   -0.737940
     5  H    0.365310
     6  H    0.372628
 Sum of Mulliken charges =   0.00000

 Dipole moment (field-independent basis, Debye):
    X=             -2.2796    Y=             -1.3415    Z=              0.0000  Tot=              2.6450
 Quadrupole moment (field-independent basis, Debye-Ang):
   XX=             -9.6285   YY=             10.4005   ZZ=            -14.9879
   XY=             -5.4420   XZ=              0.0000   YZ=              0.0000

 7\MP4DQ=-33.8909034\MP4SDQ=-33.8929333\CCSD=-33.8939891\CCSD(T)=-33.89
 Normal termination of Gaussian 16 at Sun Dec 10 06:42:43 2023.
