 Gaussian 16, Revision A.03,
 Gaussian 16:  ES64L-G16RevA.03 25-Dec-2016

 ------------------
 #p CCSD(T)/CEP-31G
 ------------------

 ------------
 H2O_H2O_1911
 ------------
 Symbolic Z-matrix:
 Charge =  0 Multiplicity = 1

                         Standard orientation:
 ---------------------------------------------------------------------
 Center     Atomic      Atomic             Coordinates (Angstroms)
 Number     Number       Type             X           Y           Z
 ---------------------------------------------------------------------
      1          8           0        0.037683   -1.798765    0.000000
      2          1           0       -0.762908   -2.368466    0.000000
      3          1           0        0.836231   -2.371326    0.000000
      4          8           0        0.037683    1.826977    0.000000
      5          1           0        0.263969    2.783168    0.000000
      6          1           0       -0.940215    1.730931    0.000000
 ---------------------------------------------------------------------

 SCF Done:  E(RHF) =  -33.6476048691     A.U. after   11 cycles
 E2 =    -0.2288106075D+00 EUMP2 =    -0.33876415476520D+02
 CCSD(T)
 CCSD(T)= -0.33893554639D+02

 The electronic state is 1-A'.
 Alpha  occ. eigenvalues --   -1.34442  -1.33768  -0.70068  -0.69355  -0.54075
 Alpha  occ. eigenvalues --   -0.53099  -0.48960  -0.48281
 Alpha virt. eigenvalues --    0.20604   0.22258   0.31330   0.31978   0.76669
 Alpha virt. eigenvalues --    0.80749   0.83105   0.85677   0.89139   0.99893
 Alpha virt. eigenvalues --    1.18283   1.19167   1.22782   1.23535   2.57934

 Mulliken charges:
               1
     1  O   -0.727057
     2  H    0.359195
     3  H    0.368086
     4  O   -0.723897
     5  H    0.355906
     6  H    0.367767
 Sum of Mulliken charges =   0.00000

 Dipole moment (field-independent basis, Debye):
    X=             -1.7105    Y=             -0.6908    Z=              0.0000  Tot=              1.8448
 Quadrupole moment (field-independent basis, Debye-Ang):
   XX=             -8.9927   YY=              5.3764   ZZ=            -14.9855
   XY=             -2.3935   XZ=              0.0000   YZ=              0.0000

 P4DQ=-33.8878484\MP4SDQ=-33.889908\CCSD=-33.8909611\CCSD(T)=-33.893554
 Normal termination of Gaussian 16 at Sun Dec 10 07:00:37 2023.
