 Gaussian 16, Revision A.03,
 Gaussian 16:  ES64L-G16RevA.03 25-Dec-2016

 ------------------
 #p CCSD(T)/CEP-31G
 ------------------

 ------------
 H2O_H2O_2127
 ------------
 Symbolic Z-matrix:
 Charge =  0 Multiplicity = 1

                         Standard orientation:
 ---------------------------------------------------------------------
 Center     Atomic      Atomic             Coordinates (Angstroms)
 Number     Number       Type             X           Y           Z
 ---------------------------------------------------------------------
      1          8           0        0.007455   -1.933223    0.000000
      2          1           0       -0.792305   -2.504090    0.000000
      3          1           0        0.806836   -2.504620    0.000000
      4          8           0        0.007455    1.934195    0.000000
      5          1           0        0.725860    2.604568    0.000000
      6          1           0       -0.859671    2.396364    0.000000
 ---------------------------------------------------------------------

 SCF Done:  E(RHF) =  -33.6466940438     A.U. after   11 cycles
 E2 =    -0.2287309032D+00 EUMP2 =    -0.33875424946965D+02
 CCSD(T)
 CCSD(T)= -0.33892577444D+02

 The electronic state is 1-A'.
 Alpha  occ. eigenvalues --   -1.34067  -1.34041  -0.69688  -0.69658  -0.53771
 Alpha  occ. eigenvalues --   -0.53186  -0.48594  -0.48509
 Alpha virt. eigenvalues --    0.21076   0.21807   0.31570   0.31776   0.79019
 Alpha virt. eigenvalues --    0.81312   0.82672   0.86765   0.89900   0.93659
 Alpha virt. eigenvalues --    1.18629   1.18653   1.23005   1.23316   2.58249

 Mulliken charges:
               1
     1  O   -0.723684
     2  H    0.361098
     3  H    0.362591
     4  O   -0.723578
     5  H    0.360897
     6  H    0.362675
 Sum of Mulliken charges =   0.00000

 Dipole moment (field-independent basis, Debye):
    X=             -0.3402    Y=             -0.0236    Z=              0.0000  Tot=              0.3410
 Quadrupole moment (field-independent basis, Debye-Ang):
   XX=             -8.1357   YY=              8.2243   ZZ=            -14.9839
   XY=             -0.4508   XZ=              0.0000   YZ=              0.0000

 4DQ=-33.8868792\MP4SDQ=-33.88893\CCSD=-33.8899896\CCSD(T)=-33.8925774\
 Normal termination of Gaussian 16 at Sun Dec 10 07:05:41 2023.
