 Gaussian 16, Revision A.03,
 Gaussian 16:  ES64L-G16RevA.03 25-Dec-2016

 ------------------
 #p CCSD(T)/CEP-31G
 ------------------

 ------------
 H2O_H2O_4977
 ------------
 Symbolic Z-matrix:
 Charge =  0 Multiplicity = 1

                         Standard orientation:
 ---------------------------------------------------------------------
 Center     Atomic      Atomic             Coordinates (Angstroms)
 Number     Number       Type             X           Y           Z
 ---------------------------------------------------------------------
      1          8           0        0.007455   -3.448956    0.000000
      2          1           0       -0.792222   -4.019939    0.000000
      3          1           0        0.806920   -4.020237    0.000000
      4          8           0        0.007455    3.449930    0.000000
      5          1           0        0.725763    4.120408    0.000000
      6          1           0       -0.859738    3.911973    0.000000
 ---------------------------------------------------------------------

 SCF Done:  E(RHF) =  -33.6508920646     A.U. after   10 cycles
 E2 =    -0.2284240593D+00 EUMP2 =    -0.33879316123891D+02
 CCSD(T)
 CCSD(T)= -0.33896342357D+02

 The electronic state is 1-A'.
 Alpha  occ. eigenvalues --   -1.35096  -1.35090  -0.70724  -0.70718  -0.54781
 Alpha  occ. eigenvalues --   -0.54775  -0.49654  -0.49648
 Alpha virt. eigenvalues --    0.20626   0.20632   0.30859   0.30865   0.80900
 Alpha virt. eigenvalues --    0.80906   0.84010   0.84016   0.87091   0.87098
 Alpha virt. eigenvalues --    1.17767   1.17773   1.22232   1.22238   2.57806

 Mulliken charges:
               1
     1  O   -0.737911
     2  H    0.368803
     3  H    0.369109
     4  O   -0.737904
     5  H    0.368733
     6  H    0.369171
 Sum of Mulliken charges =   0.00000

 Dipole moment (field-independent basis, Debye):
    X=             -0.3444    Y=             -0.0227    Z=              0.0000  Tot=              0.3451
 Quadrupole moment (field-independent basis, Debye-Ang):
   XX=             -8.0700   YY=             24.4898   ZZ=            -14.9871
   XY=             -0.9566   XZ=              0.0000   YZ=              0.0000

 4DQ=-33.8906912\MP4SDQ=-33.8927213\CCSD=-33.8937785\CCSD(T)=-33.896342
 Normal termination of Gaussian 16 at Sun Dec 10 07:11:25 2023.
