 Gaussian 16, Revision A.03,
 Gaussian 16:  ES64L-G16RevA.03 25-Dec-2016

 ------------------
 #p CCSD(T)/CEP-31G
 ------------------

 -----------
 H2O_H2O_469
 -----------
 Symbolic Z-matrix:
 Charge =  0 Multiplicity = 1

                         Standard orientation:
 ---------------------------------------------------------------------
 Center     Atomic      Atomic             Coordinates (Angstroms)
 Number     Number       Type             X           Y           Z
 ---------------------------------------------------------------------
      1          8           0        0.054255   -1.001087    0.000000
      2          1           0       -0.747865   -1.568633    0.000000
      3          1           0        0.851261   -1.575794    0.000000
      4          8           0        0.054255    1.078112    0.000000
      5          1           0       -0.225338    2.020096    0.000000
      6          1           0       -0.746141    0.508136    0.000000
 ---------------------------------------------------------------------

 SCF Done:  E(RHF) =  -33.6125197215     A.U. after   11 cycles
 E2 =    -0.2319405373D+00 EUMP2 =    -0.33844460258811D+02
 CCSD(T)
 CCSD(T)= -0.33861403743D+02

 The electronic state is 1-A'.
 Alpha  occ. eigenvalues --   -1.36499  -1.30422  -0.72420  -0.68927  -0.53583
 Alpha  occ. eigenvalues --   -0.50949  -0.48456  -0.44768
 Alpha virt. eigenvalues --    0.19465   0.27721   0.30112   0.34899   0.78217
 Alpha virt. eigenvalues --    0.84667   0.89866   0.95579   0.99251   1.14523
 Alpha virt. eigenvalues --    1.19099   1.22859   1.27020   1.32013   2.65555

 Mulliken charges:
               1
     1  O   -0.781013
     2  H    0.358344
     3  H    0.408376
     4  O   -0.676765
     5  H    0.320435
     6  H    0.370625
 Sum of Mulliken charges =  -0.00000

 Dipole moment (field-independent basis, Debye):
    X=             -2.1671    Y=             -1.9985    Z=              0.0000  Tot=              2.9480
 Quadrupole moment (field-independent basis, Debye-Ang):
   XX=             -9.9392   YY=             -4.8473   ZZ=            -14.9939
   XY=             -2.3439   XZ=              0.0000   YZ=              0.0000

 MP4DQ=-33.8551906\MP4SDQ=-33.8575036\CCSD=-33.8584268\CCSD(T)=-33.8614
 Normal termination of Gaussian 16 at Sun Dec 10 06:33:32 2023.
