 Gaussian 16, Revision A.03,
 Gaussian 16:  ES64L-G16RevA.03 25-Dec-2016

 ------------------
 #p CCSD(T)/CEP-31G
 ------------------

 -----------
 H2O_H2O_865
 -----------
 Symbolic Z-matrix:
 Charge =  0 Multiplicity = 1

                         Standard orientation:
 ---------------------------------------------------------------------
 Center     Atomic      Atomic             Coordinates (Angstroms)
 Number     Number       Type             X           Y           Z
 ---------------------------------------------------------------------
      1          8           0        0.047570   -1.228254    0.000000
      2          1           0       -0.753859   -1.796775    0.000000
      3          1           0        0.845275   -1.801990    0.000000
      4          8           0        0.047570    1.278710    0.000000
      5          1           0        0.020113    2.260927    0.000000
      6          1           0       -0.872655    0.934193    0.000000
 ---------------------------------------------------------------------

 SCF Done:  E(RHF) =  -33.6397099250     A.U. after   11 cycles
 E2 =    -0.2301677533D+00 EUMP2 =    -0.33869877678291D+02
 CCSD(T)
 CCSD(T)= -0.33887205345D+02

 The electronic state is 1-A'.
 Alpha  occ. eigenvalues --   -1.34427  -1.32019  -0.70068  -0.67861  -0.54731
 Alpha  occ. eigenvalues --   -0.50121  -0.49036  -0.46383
 Alpha virt. eigenvalues --    0.20115   0.25228   0.31340   0.33234   0.78319
 Alpha virt. eigenvalues --    0.83435   0.88341   0.88556   0.94625   1.16157
 Alpha virt. eigenvalues --    1.18897   1.22094   1.23122   1.29984   2.59957

 Mulliken charges:
               1
     1  O   -0.737628
     2  H    0.351665
     3  H    0.379483
     4  O   -0.698473
     5  H    0.339913
     6  H    0.365040
 Sum of Mulliken charges =  -0.00000

 Dipole moment (field-independent basis, Debye):
    X=             -2.0370    Y=             -1.2608    Z=              0.0000  Tot=              2.3956
 Quadrupole moment (field-independent basis, Debye-Ang):
   XX=             -9.5482   YY=             -1.3414   ZZ=            -14.9933
   XY=             -2.1866   XZ=              0.0000   YZ=              0.0000

 MP4DQ=-33.8812699\MP4SDQ=-33.8834296\CCSD=-33.8844852\CCSD(T)=-33.8872
 Normal termination of Gaussian 16 at Sun Dec 10 06:40:56 2023.
