 Gaussian 16, Revision A.03,
 Gaussian 16:  ES64L-G16RevA.03 25-Dec-2016

 ------------------
 #p CCSD(T)/CEP-31G
 ------------------

 -----------
 H2O_H2O_488
 -----------
 Symbolic Z-matrix:
 Charge =  0 Multiplicity = 1

                         Standard orientation:
 ---------------------------------------------------------------------
 Center     Atomic      Atomic             Coordinates (Angstroms)
 Number     Number       Type             X           Y           Z
 ---------------------------------------------------------------------
      1          8           0        0.043008   -1.035248    0.000000
      2          1           0       -0.758560   -1.603574    0.000000
      3          1           0        0.840572   -1.609179    0.000000
      4          8           0        0.043008    1.073858    0.000000
      5          1           0        0.144229    2.051232    0.000000
      6          1           0       -0.914367    0.852637    0.000000
 ---------------------------------------------------------------------

 SCF Done:  E(RHF) =  -33.6144093711     A.U. after   11 cycles
 E2 =    -0.2316356796D+00 EUMP2 =    -0.33846045050704D+02
 CCSD(T)
 CCSD(T)= -0.33863356543D+02

 The electronic state is 1-A'.
 Alpha  occ. eigenvalues --   -1.34270  -1.31004  -0.69856  -0.67583  -0.56144
 Alpha  occ. eigenvalues --   -0.49040  -0.45805  -0.45028
 Alpha virt. eigenvalues --    0.20428   0.26424   0.31702   0.33345   0.79398
 Alpha virt. eigenvalues --    0.83944   0.89864   0.96721   0.99527   1.14777
 Alpha virt. eigenvalues --    1.19109   1.23270   1.24865   1.31581   2.54127

 Mulliken charges:
               1
     1  O   -0.746741
     2  H    0.346727
     3  H    0.382569
     4  O   -0.674187
     5  H    0.339577
     6  H    0.352054
 Sum of Mulliken charges =  -0.00000

 Dipole moment (field-independent basis, Debye):
    X=             -1.7310    Y=             -0.9394    Z=              0.0000  Tot=              1.9694
 Quadrupole moment (field-independent basis, Debye-Ang):
   XX=             -9.3529   YY=             -3.4702   ZZ=            -14.9984
   XY=             -1.4651   XZ=              0.0000   YZ=              0.0000

 P4DQ=-33.8572125\MP4SDQ=-33.8594683\CCSD=-33.8604775\CCSD(T)=-33.86335
 Normal termination of Gaussian 16 at Sun Dec 10 06:33:53 2023.
