 Gaussian 16, Revision A.03,
 Gaussian 16:  ES64L-G16RevA.03 25-Dec-2016

 ------------------
 #p CCSD(T)/CEP-31G
 ------------------

 ------------
 H2O_H2O_3709
 ------------
 Symbolic Z-matrix:
 Charge =  0 Multiplicity = 1

                         Standard orientation:
 ---------------------------------------------------------------------
 Center     Atomic      Atomic             Coordinates (Angstroms)
 Number     Number       Type             X           Y           Z
 ---------------------------------------------------------------------
      1          8           0        0.031740   -2.760972    0.000000
      2          1           0       -0.768394   -3.331316    0.000000
      3          1           0        0.830747   -3.332892    0.000000
      4          8           0        0.031740    2.780160    0.000000
      5          1           0        0.380161    3.698914    0.000000
      6          1           0       -0.950352    2.811790    0.000000
 ---------------------------------------------------------------------

 SCF Done:  E(RHF) =  -33.6503998009     A.U. after   11 cycles
 E2 =    -0.2284626616D+00 EUMP2 =    -0.33878862462453D+02
 CCSD(T)
 CCSD(T)= -0.33895902814D+02

 The electronic state is 1-A'.
 Alpha  occ. eigenvalues --   -1.34981  -1.34792  -0.70608  -0.70413  -0.54638
 Alpha  occ. eigenvalues --   -0.54448  -0.49532  -0.49343
 Alpha virt. eigenvalues --    0.20713   0.20906   0.30946   0.31129   0.81022
 Alpha virt. eigenvalues --    0.81208   0.84128   0.84423   0.87237   0.87472
 Alpha virt. eigenvalues --    1.17862   1.18049   1.22332   1.22519   2.57912

 Mulliken charges:
               1
     1  O   -0.736229
     2  H    0.366924
     3  H    0.369305
     4  O   -0.735876
     5  H    0.366200
     6  H    0.369677
 Sum of Mulliken charges =   0.00000

 Dipole moment (field-independent basis, Debye):
    X=             -1.4626    Y=             -0.4509    Z=              0.0000  Tot=              1.5305
 Quadrupole moment (field-independent basis, Debye-Ang):
   XX=             -8.6964   YY=             15.4570   ZZ=            -14.9867
   XY=             -3.2785   XZ=              0.0000   YZ=              0.0000

 \MP4DQ=-33.8902477\MP4SDQ=-33.8922792\CCSD=-33.8933368\CCSD(T)=-33.895
 Normal termination of Gaussian 16 at Sun Dec 10 06:46:43 2023.
