 Gaussian 16, Revision A.03,
 Gaussian 16:  ES64L-G16RevA.03 25-Dec-2016

 ------------------
 #p CCSD(T)/CEP-31G
 ------------------

 ------------
 H2O_H2O_2257
 ------------
 Symbolic Z-matrix:
 Charge =  0 Multiplicity = 1

                         Standard orientation:
 ---------------------------------------------------------------------
 Center     Atomic      Atomic             Coordinates (Angstroms)
 Number     Number       Type             X           Y           Z
 ---------------------------------------------------------------------
      1          8           0        0.025267   -1.993862    0.000000
      2          1           0       -0.774925   -2.564125    0.000000
      3          1           0        0.824216   -2.565863    0.000000
      4          8           0        0.025267    2.005587    0.000000
      5          1           0        0.490716    2.870956    0.000000
      6          1           0       -0.944279    2.165233    0.000000
 ---------------------------------------------------------------------

 SCF Done:  E(RHF) =  -33.6477676344     A.U. after   11 cycles
 E2 =    -0.2286784677D+00 EUMP2 =    -0.33876446102091D+02
 CCSD(T)
 CCSD(T)= -0.33893566038D+02

 The electronic state is 1-A'.
 Alpha  occ. eigenvalues --   -1.34339  -1.34111  -0.69962  -0.69722  -0.53953
 Alpha  occ. eigenvalues --   -0.53482  -0.48856  -0.48623
 Alpha virt. eigenvalues --    0.20940   0.21702   0.31445   0.31659   0.79740
 Alpha virt. eigenvalues --    0.81287   0.82324   0.86599   0.88672   0.92896
 Alpha virt. eigenvalues --    1.18397   1.18630   1.22896   1.23143   2.58243

 Mulliken charges:
               1
     1  O   -0.727299
     2  H    0.361367
     3  H    0.365979
     4  O   -0.726294
     5  H    0.360201
     6  H    0.366045
 Sum of Mulliken charges =  -0.00000

 Dipole moment (field-independent basis, Debye):
    X=             -1.1540    Y=             -0.2832    Z=              0.0000  Tot=              1.1883
 Quadrupole moment (field-independent basis, Debye-Ang):
   XX=             -8.4921   YY=              8.2810   ZZ=            -14.9847
   XY=             -1.6821   XZ=              0.0000   YZ=              0.0000

 \MP4DQ=-33.8878802\MP4SDQ=-33.8899259\CCSD=-33.8909837\CCSD(T)=-33.893
 Normal termination of Gaussian 16 at Sun Dec 10 07:08:01 2023.
