 Gaussian 16, Revision A.03,
 Gaussian 16:  ES64L-G16RevA.03 25-Dec-2016

 ------------------
 #p CCSD(T)/CEP-31G
 ------------------

 ------------
 H2O_H2O_3174
 ------------
 Symbolic Z-matrix:
 Charge =  0 Multiplicity = 1

                         Standard orientation:
 ---------------------------------------------------------------------
 Center     Atomic      Atomic             Coordinates (Angstroms)
 Number     Number       Type             X           Y           Z
 ---------------------------------------------------------------------
      1          8           0        0.057227   -2.416972    0.000000
      2          1           0       -0.743478   -2.986514    0.000000
      3          1           0        0.855661   -2.989692    0.000000
      4          8           0        0.057227    2.530971    0.000000
      5          1           0       -0.512315    3.331676    0.000000
      6          1           0       -0.515493    1.732537    0.000000
 ---------------------------------------------------------------------

 SCF Done:  E(RHF) =  -33.6526248996     A.U. after   11 cycles
 E2 =    -0.2283773707D+00 EUMP2 =    -0.33881002270315D+02
 CCSD(T)
 CCSD(T)= -0.33897977912D+02

 The electronic state is 1-A'.
 Alpha  occ. eigenvalues --   -1.35867  -1.34449  -0.71504  -0.70051  -0.55653
 Alpha  occ. eigenvalues --   -0.54197  -0.50451  -0.49031
 Alpha virt. eigenvalues --    0.19867   0.21482   0.30185   0.31670   0.80106
 Alpha virt. eigenvalues --    0.81489   0.82902   0.84645   0.86178   0.87770
 Alpha virt. eigenvalues --    1.17070   1.18511   1.21509   1.23106   2.57060

 Mulliken charges:
               1
     1  O   -0.744047
     2  H    0.369419
     3  H    0.374694
     4  O   -0.743726
     5  H    0.364780
     6  H    0.378882
 Sum of Mulliken charges =  -0.00000

 Dipole moment (field-independent basis, Debye):
    X=             -2.6309    Y=             -2.7000    Z=              0.0000  Tot=              3.7699
 Quadrupole moment (field-independent basis, Debye-Ang):
   XX=            -10.1616   YY=              2.7366   ZZ=            -14.9907
   XY=             -6.8828   XZ=              0.0000   YZ=              0.0000

 \MP4DQ=-33.8923381\MP4SDQ=-33.8943654\CCSD=-33.8954167\CCSD(T)=-33.897
 Normal termination of Gaussian 16 at Sun Dec 10 06:37:00 2023.
