 Gaussian 16, Revision A.03,
 Gaussian 16:  ES64L-G16RevA.03 25-Dec-2016

 ------------------
 #p CCSD(T)/CEP-31G
 ------------------

 ------------
 H2O_H2O_2901
 ------------
 Symbolic Z-matrix:
 Charge =  0 Multiplicity = 1

                         Standard orientation:
 ---------------------------------------------------------------------
 Center     Atomic      Atomic             Coordinates (Angstroms)
 Number     Number       Type             X           Y           Z
 ---------------------------------------------------------------------
      1          8           0        0.003735   -2.345792    0.000000
      2          1           0       -0.795914   -2.916815    0.000000
      3          1           0        0.803228   -2.917034    0.000000
      4          8           0        0.003735    2.346036    0.000000
      5          1           0        0.764327    2.968135    0.000000
      6          1           0       -0.831407    2.863764    0.000000
 ---------------------------------------------------------------------

 SCF Done:  E(RHF) =  -33.6488710559     A.U. after   10 cycles
 E2 =    -0.2285488547D+00 EUMP2 =    -0.33877419910613D+02
 CCSD(T)
 CCSD(T)= -0.33894504471D+02

 The electronic state is 1-A'.
 Alpha  occ. eigenvalues --   -1.34514  -1.34510  -0.70137  -0.70133  -0.54129
 Alpha  occ. eigenvalues --   -0.54024  -0.49046  -0.49035
 Alpha virt. eigenvalues --    0.21011   0.21189   0.31307   0.31348   0.81428
 Alpha virt. eigenvalues --    0.81592   0.83408   0.86320   0.87622   0.87997
 Alpha virt. eigenvalues --    1.18266   1.18269   1.22725   1.22779   2.58332

 Mulliken charges:
               1
     1  O   -0.730944
     2  H    0.365250
     3  H    0.365694
     4  O   -0.730933
     5  H    0.365186
     6  H    0.365747
 Sum of Mulliken charges =   0.00000

 Dipole moment (field-independent basis, Debye):
    X=             -0.1716    Y=             -0.0058    Z=              0.0000  Tot=              0.1717
 Quadrupole moment (field-independent basis, Debye-Ang):
   XX=             -8.0746   YY=             12.7556   ZZ=            -14.9851
   XY=             -0.2921   XZ=              0.0000   YZ=              0.0000

 \MP4DQ=-33.8888363\MP4SDQ=-33.8908725\CCSD=-33.8919323\CCSD(T)=-33.894
 Normal termination of Gaussian 16 at Sun Dec 10 06:32:13 2023.
