 Gaussian 16, Revision A.03,
 Gaussian 16:  ES64L-G16RevA.03 25-Dec-2016

 ------------------
 #p CCSD(T)/CEP-31G
 ------------------

 ------------
 H2O_H2O_1140
 ------------
 Symbolic Z-matrix:
 Charge =  0 Multiplicity = 1

                         Standard orientation:
 ---------------------------------------------------------------------
 Center     Atomic      Atomic             Coordinates (Angstroms)
 Number     Number       Type             X           Y           Z
 ---------------------------------------------------------------------
      1          8           0        0.047562   -1.374492    0.000000
      2          1           0       -0.753674   -1.943286    0.000000
      3          1           0        0.845461   -1.947957    0.000000
      4          8           0        0.047562    1.424980    0.000000
      5          1           0        0.019769    2.407188    0.000000
      6          1           0       -0.872546    1.080150    0.000000
 ---------------------------------------------------------------------

 SCF Done:  E(RHF) =  -33.6449985712     A.U. after   11 cycles
 E2 =    -0.2295766527D+00 EUMP2 =    -0.33874575223855D+02
 CCSD(T)
 CCSD(T)= -0.33891856335D+02

 The electronic state is 1-A'.
 Alpha  occ. eigenvalues --   -1.34548  -1.32585  -0.70186  -0.68207  -0.54494
 Alpha  occ. eigenvalues --   -0.51443  -0.49100  -0.47050
 Alpha virt. eigenvalues --    0.20080   0.24337   0.31221   0.32923   0.78652
 Alpha virt. eigenvalues --    0.79754   0.84879   0.86712   0.92201   1.15834
 Alpha virt. eigenvalues --    1.18205   1.22278   1.22762   1.27490   2.61384

 Mulliken charges:
               1
     1  O   -0.730978
     2  H    0.353797
     3  H    0.375419
     4  O   -0.710992
     5  H    0.343885
     6  H    0.368869
 Sum of Mulliken charges =   0.00000

 Dipole moment (field-independent basis, Debye):
    X=             -2.0898    Y=             -1.2658    Z=              0.0000  Tot=              2.4432
 Quadrupole moment (field-independent basis, Debye-Ang):
   XX=             -9.5345   YY=              0.1765   ZZ=            -14.9900
   XY=             -2.4898   XZ=              0.0000   YZ=              0.0000

 MP4DQ=-33.8860145\MP4SDQ=-33.8881386\CCSD=-33.8891962\CCSD(T)=-33.8918
 Normal termination of Gaussian 16 at Sun Dec 10 06:46:04 2023.
