 Gaussian 16, Revision A.03,
 Gaussian 16:  ES64L-G16RevA.03 25-Dec-2016

 ------------------
 #p CCSD(T)/CEP-31G
 ------------------

 ------------
 H2O_H2O_1146
 ------------
 Symbolic Z-matrix:
 Charge =  0 Multiplicity = 1

                         Standard orientation:
 ---------------------------------------------------------------------
 Center     Atomic      Atomic             Coordinates (Angstroms)
 Number     Number       Type             X           Y           Z
 ---------------------------------------------------------------------
      1          8           0        0.056174   -1.352188    0.000000
      2          1           0       -0.745362   -1.920559    0.000000
      3          1           0        0.853770   -1.926075    0.000000
      4          8           0        0.056174    1.443743    0.000000
      5          1           0       -0.344903    2.340762    0.000000
      6          1           0       -0.662289    0.773432    0.000000
 ---------------------------------------------------------------------

 SCF Done:  E(RHF) =  -33.6510174494     A.U. after   11 cycles
 E2 =    -0.2295450599D+00 EUMP2 =    -0.33880562509264D+02
 CCSD(T)
 CCSD(T)= -0.33897625702D+02

 The electronic state is 1-A'.
 Alpha  occ. eigenvalues --   -1.36008  -1.32160  -0.71665  -0.68024  -0.55560
 Alpha  occ. eigenvalues --   -0.51892  -0.50599  -0.46736
 Alpha virt. eigenvalues --    0.19215   0.25408   0.30065   0.34602   0.77656
 Alpha virt. eigenvalues --    0.78604   0.86567   0.87279   0.92399   1.13864
 Alpha virt. eigenvalues --    1.17763   1.20109   1.22348   1.29557   2.58342

 Mulliken charges:
               1
     1  O   -0.753567
     2  H    0.362825
     3  H    0.391237
     4  O   -0.730983
     5  H    0.341469
     6  H    0.389019
 Sum of Mulliken charges =   0.00000

 Dipole moment (field-independent basis, Debye):
    X=             -2.4688    Y=             -2.3438    Z=              0.0000  Tot=              3.4042
 Quadrupole moment (field-independent basis, Debye-Ang):
   XX=            -10.0544   YY=             -2.0021   ZZ=            -14.9985
   XY=             -3.6271   XZ=              0.0000   YZ=              0.0000

 8\MP4DQ=-33.8917809\MP4SDQ=-33.8939134\CCSD=-33.8949368\CCSD(T)=-33.89
 Normal termination of Gaussian 16 at Sun Dec 10 06:46:11 2023.
