 Gaussian 16, Revision A.03,
 Gaussian 16:  ES64L-G16RevA.03 25-Dec-2016

 ------------------
 #p CCSD(T)/CEP-31G
 ------------------

 -----------
 H2O_H2O_590
 -----------
 Symbolic Z-matrix:
 Charge =  0 Multiplicity = 1

                         Standard orientation:
 ---------------------------------------------------------------------
 Center     Atomic      Atomic             Coordinates (Angstroms)
 Number     Number       Type             X           Y           Z
 ---------------------------------------------------------------------
      1          8           0        0.047581   -1.082020    0.000000
      2          1           0       -0.754093   -1.650196    0.000000
      3          1           0        0.845038   -1.656100    0.000000
      4          8           0        0.047581    1.132434    0.000000
      5          1           0        0.020547    2.114665    0.000000
      6          1           0       -0.872793    0.788315    0.000000
 ---------------------------------------------------------------------

 SCF Done:  E(RHF) =  -33.6257001756     A.U. after   11 cycles
 E2 =    -0.2311542479D+00 EUMP2 =    -0.33856854423419D+02
 CCSD(T)
 CCSD(T)= -0.33874157337D+02

 The electronic state is 1-A'.
 Alpha  occ. eigenvalues --   -1.34578  -1.31278  -0.70232  -0.67794  -0.55236
 Alpha  occ. eigenvalues --   -0.49266  -0.47902  -0.45478
 Alpha virt. eigenvalues --    0.20130   0.26300   0.31340   0.33526   0.78693
 Alpha virt. eigenvalues --    0.84326   0.89567   0.95652   0.97952   1.14324
 Alpha virt. eigenvalues --    1.18894   1.22396   1.24426   1.31573   2.57526

 Mulliken charges:
               1
     1  O   -0.751495
     2  H    0.350288
     3  H    0.386141
     4  O   -0.680411
     5  H    0.335819
     6  H    0.359658
 Sum of Mulliken charges =   0.00000

 Dipole moment (field-independent basis, Debye):
    X=             -1.9553    Y=             -1.2488    Z=              0.0000  Tot=              2.3200
 Quadrupole moment (field-independent basis, Debye-Ang):
   XX=             -9.5677   YY=             -3.0702   ZZ=            -14.9964
   XY=             -1.8778   XZ=              0.0000   YZ=              0.0000

 MP4DQ=-33.8680773\MP4SDQ=-33.8703045\CCSD=-33.8713253\CCSD(T)=-33.8741
 Normal termination of Gaussian 16 at Sun Dec 10 06:35:46 2023.
