 Gaussian 16, Revision A.03,
 Gaussian 16:  ES64L-G16RevA.03 25-Dec-2016

 ------------------
 #p CCSD(T)/CEP-31G
 ------------------

 ------------
 H2O_H2O_4056
 ------------
 Symbolic Z-matrix:
 Charge =  0 Multiplicity = 1

                         Standard orientation:
 ---------------------------------------------------------------------
 Center     Atomic      Atomic             Coordinates (Angstroms)
 Number     Number       Type             X           Y           Z
 ---------------------------------------------------------------------
      1          8           0        0.021859   -2.952829    0.000000
      2          1           0       -0.778075   -3.523452    0.000000
      3          1           0        0.821066   -3.524470    0.000000
      4          8           0        0.021859    2.961496    0.000000
      5          1           0        0.542534    3.794805    0.000000
      6          1           0       -0.935270    3.183779    0.000000
 ---------------------------------------------------------------------

 SCF Done:  E(RHF) =  -33.6504727265     A.U. after   11 cycles
 E2 =    -0.2284519845D+00 EUMP2 =    -0.33878924711055D+02
 CCSD(T)
 CCSD(T)= -0.33895962905D+02

 The electronic state is 1-A'.
 Alpha  occ. eigenvalues --   -1.34973  -1.34898  -0.70600  -0.70523  -0.54634
 Alpha  occ. eigenvalues --   -0.54559  -0.49524  -0.49450
 Alpha virt. eigenvalues --    0.20726   0.20802   0.30957   0.31030   0.81029
 Alpha virt. eigenvalues --    0.81103   0.84169   0.84271   0.87243   0.87333
 Alpha virt. eigenvalues --    1.17873   1.17947   1.22342   1.22416   2.57922

 Mulliken charges:
               1
     1  O   -0.736457
     2  H    0.367541
     3  H    0.368916
     4  O   -0.736325
     5  H    0.367189
     6  H    0.369136
 Sum of Mulliken charges =   0.00000

 Dipole moment (field-independent basis, Debye):
    X=             -1.0082    Y=             -0.2032    Z=              0.0000  Tot=              1.0285
 Quadrupole moment (field-independent basis, Debye-Ang):
   XX=             -8.3513   YY=             18.4368   ZZ=            -14.9866
   XY=             -2.3690   XZ=              0.0000   YZ=              0.0000

 \MP4DQ=-33.8903085\MP4SDQ=-33.8923397\CCSD=-33.8933974\CCSD(T)=-33.895
 Normal termination of Gaussian 16 at Sun Dec 10 06:53:06 2023.
