 Gaussian 16, Revision A.03,
 Gaussian 16:  ES64L-G16RevA.03 25-Dec-2016

 ------------------
 #p CCSD(T)/CEP-31G
 ------------------

 ------------
 H2O_H2O_4917
 ------------
 Symbolic Z-matrix:
 Charge =  0 Multiplicity = 1

                         Standard orientation:
 ---------------------------------------------------------------------
 Center     Atomic      Atomic             Coordinates (Angstroms)
 Number     Number       Type             X           Y           Z
 ---------------------------------------------------------------------
      1          8           0        0.051264   -3.375072    0.000000
      2          1           0       -0.749045   -3.945168    0.000000
      3          1           0        0.850096   -3.947238    0.000000
      4          8           0        0.051264    3.438644    0.000000
      5          1           0       -0.106071    4.408568    0.000000
      6          1           0       -0.815210    2.975257    0.000000
 ---------------------------------------------------------------------

 SCF Done:  E(RHF) =  -33.6515372797     A.U. after   11 cycles
 E2 =    -0.2283955175D+00 EUMP2 =    -0.33879932797160D+02
 CCSD(T)
 CCSD(T)= -0.33896940315D+02

 The electronic state is 1-A'.
 Alpha  occ. eigenvalues --   -1.35450  -1.35045  -0.71082  -0.70669  -0.55171
 Alpha  occ. eigenvalues --   -0.54762  -0.50018  -0.49612
 Alpha virt. eigenvalues --    0.20307   0.20722   0.30545   0.30953   0.80534
 Alpha virt. eigenvalues --    0.80935   0.83583   0.83989   0.86686   0.87130
 Alpha virt. eigenvalues --    1.17441   1.17844   1.21901   1.22309   2.57464

 Mulliken charges:
               1
     1  O   -0.740230
     2  H    0.369071
     3  H    0.371159
     4  O   -0.739999
     5  H    0.368012
     6  H    0.371987
 Sum of Mulliken charges =  -0.00000

 Dipole moment (field-independent basis, Debye):
    X=             -2.3676    Y=             -1.4841    Z=              0.0000  Tot=              2.7943
 Quadrupole moment (field-independent basis, Debye-Ang):
   XX=             -9.7452   YY=             15.5418   ZZ=            -14.9882
   XY=             -7.5191   XZ=              0.0000   YZ=              0.0000

 \MP4DQ=-33.8912943\MP4SDQ=-33.8933226\CCSD=-33.8943784\CCSD(T)=-33.896
 Normal termination of Gaussian 16 at Sun Dec 10 07:10:18 2023.
