 Gaussian 16, Revision A.03,
 Gaussian 16:  ES64L-G16RevA.03 25-Dec-2016

 ------------------
 #p CCSD(T)/CEP-31G
 ------------------

 ------------
 H2O_H2O_1863
 ------------
 Symbolic Z-matrix:
 Charge =  0 Multiplicity = 1

                         Standard orientation:
 ---------------------------------------------------------------------
 Center     Atomic      Atomic             Coordinates (Angstroms)
 Number     Number       Type             X           Y           Z
 ---------------------------------------------------------------------
      1          8           0        0.042980   -1.766458    0.000000
      2          1           0       -0.757771   -2.335934    0.000000
      3          1           0        0.841367   -2.339244    0.000000
      4          8           0        0.042980    1.805192    0.000000
      5          1           0        0.142798    2.782711    0.000000
      6          1           0       -0.914077    1.582597    0.000000
 ---------------------------------------------------------------------

 SCF Done:  E(RHF) =  -33.6482265799     A.U. after   11 cycles
 E2 =    -0.2288255517D+00 EUMP2 =    -0.33877052131614D+02
 CCSD(T)
 CCSD(T)= -0.33894178218D+02

 The electronic state is 1-A'.
 Alpha  occ. eigenvalues --   -1.34637  -1.33678  -0.70266  -0.69254  -0.54265
 Alpha  occ. eigenvalues --   -0.53089  -0.49163  -0.48203
 Alpha virt. eigenvalues --    0.20378   0.22454   0.31146   0.32106   0.76206
 Alpha virt. eigenvalues --    0.80523   0.83210   0.85597   0.88747   1.01232
 Alpha virt. eigenvalues --    1.18105   1.19483   1.22565   1.23756   2.57654

 Mulliken charges:
               1
     1  O   -0.729218
     2  H    0.359518
     3  H    0.370037
     4  O   -0.725120
     5  H    0.354950
     6  H    0.369832
 Sum of Mulliken charges =   0.00000

 Dipole moment (field-independent basis, Debye):
    X=             -1.9482    Y=             -0.9501    Z=              0.0000  Tot=              2.1675
 Quadrupole moment (field-independent basis, Debye-Ang):
   XX=             -9.2581   YY=              4.4819   ZZ=            -14.9864
   XY=             -2.8175   XZ=              0.0000   YZ=              0.0000

 MP4DQ=-33.8884714\MP4SDQ=-33.8905333\CCSD=-33.8915837\CCSD(T)=-33.8941
 Normal termination of Gaussian 16 at Sun Dec 10 06:59:29 2023.
