 Gaussian 16, Revision A.03,
 Gaussian 16:  ES64L-G16RevA.03 25-Dec-2016

 ------------------
 #p CCSD(T)/CEP-31G
 ------------------

 ------------
 H2O_H2O_1501
 ------------
 Symbolic Z-matrix:
 Charge =  0 Multiplicity = 1

                         Standard orientation:
 ---------------------------------------------------------------------
 Center     Atomic      Atomic             Coordinates (Angstroms)
 Number     Number       Type             X           Y           Z
 ---------------------------------------------------------------------
      1          8           0        0.003735   -1.601221    0.000000
      2          1           0       -0.795950   -2.172193    0.000000
      3          1           0        0.803192   -2.172514    0.000000
      4          8           0        0.003735    1.601465    0.000000
      5          1           0        0.764366    2.223515    0.000000
      6          1           0       -0.831374    2.119247    0.000000
 ---------------------------------------------------------------------

 SCF Done:  E(RHF) =  -33.6425239064     A.U. after   11 cycles
 E2 =    -0.2290631811D+00 EUMP2 =    -0.33871587087572D+02
 CCSD(T)
 CCSD(T)= -0.33888890593D+02

 The electronic state is 1-A'.
 Alpha  occ. eigenvalues --   -1.33480  -1.33373  -0.69091  -0.68993  -0.53618
 Alpha  occ. eigenvalues --   -0.51629  -0.48042  -0.47701
 Alpha virt. eigenvalues --    0.21212   0.22639   0.31923   0.32316   0.76998
 Alpha virt. eigenvalues --    0.80385   0.83735   0.85008   0.95188   1.04658
 Alpha virt. eigenvalues --    1.19076   1.19283   1.23497   1.24059   2.59534

 Mulliken charges:
               1
     1  O   -0.712167
     2  H    0.355464
     3  H    0.356702
     4  O   -0.712099
     5  H    0.355443
     6  H    0.356657
 Sum of Mulliken charges =   0.00000

 Dipole moment (field-independent basis, Debye):
    X=             -0.1683    Y=             -0.0061    Z=              0.0000  Tot=              0.1684
 Quadrupole moment (field-independent basis, Debye-Ang):
   XX=             -8.1669   YY=              4.5168   ZZ=            -14.9835
   XY=             -0.1731   XZ=              0.0000   YZ=              0.0000

 \MP4DQ=-33.8831167\MP4SDQ=-33.885197\CCSD=-33.8862676\CCSD(T)=-33.8888
 Normal termination of Gaussian 16 at Sun Dec 10 06:52:48 2023.
