 Gaussian 16, Revision A.03,
 Gaussian 16:  ES64L-G16RevA.03 25-Dec-2016

 ------------------
 #p CCSD(T)/CEP-31G
 ------------------

 ------------
 H2O_H2O_3453
 ------------
 Symbolic Z-matrix:
 Charge =  0 Multiplicity = 1

                         Standard orientation:
 ---------------------------------------------------------------------
 Center     Atomic      Atomic             Coordinates (Angstroms)
 Number     Number       Type             X           Y           Z
 ---------------------------------------------------------------------
      1          8           0        0.011143   -2.637247    0.000000
      2          1           0       -0.788636   -3.208088    0.000000
      3          1           0        0.810506   -3.208669    0.000000
      4          8           0        0.011143    2.639434    0.000000
      5          1           0        0.684188    3.355335    0.000000
      6          1           0       -0.884340    3.043928    0.000000
 ---------------------------------------------------------------------

 SCF Done:  E(RHF) =  -33.6497756166     A.U. after   11 cycles
 E2 =    -0.2284917600D+00 EUMP2 =    -0.33878267376559D+02
 CCSD(T)
 CCSD(T)= -0.33895325663D+02

 The electronic state is 1-A'.
 Alpha  occ. eigenvalues --   -1.34751  -1.34728  -0.70377  -0.70352  -0.54376
 Alpha  occ. eigenvalues --   -0.54343  -0.49293  -0.49269
 Alpha virt. eigenvalues --    0.20897   0.20947   0.31138   0.31162   0.81255
 Alpha virt. eigenvalues --    0.81289   0.84204   0.84802   0.87494   0.87559
 Alpha virt. eigenvalues --    1.18065   1.18089   1.22540   1.22565   2.58127

 Mulliken charges:
               1
     1  O   -0.734039
     2  H    0.366538
     3  H    0.367501
     4  O   -0.733979
     5  H    0.366351
     6  H    0.367628
 Sum of Mulliken charges =   0.00000

 Dipole moment (field-independent basis, Debye):
    X=             -0.5131    Y=             -0.0515    Z=              0.0000  Tot=              0.5157
 Quadrupole moment (field-independent basis, Debye-Ang):
   XX=             -8.1318   YY=             15.7339   ZZ=            -14.9859
   XY=             -1.0239   XZ=              0.0000   YZ=              0.0000

 \MP4DQ=-33.8896656\MP4SDQ=-33.8916987\CCSD=-33.8927575\CCSD(T)=-33.895
 Normal termination of Gaussian 16 at Sun Dec 10 06:42:02 2023.
