 Gaussian 16, Revision A.03,
 Gaussian 16:  ES64L-G16RevA.03 25-Dec-2016

 ------------------
 #p CCSD(T)/CEP-31G
 ------------------

 ------------
 H2O_H2O_2322
 ------------
 Symbolic Z-matrix:
 Charge =  0 Multiplicity = 1

                         Standard orientation:
 ---------------------------------------------------------------------
 Center     Atomic      Atomic             Coordinates (Angstroms)
 Number     Number       Type             X           Y           Z
 ---------------------------------------------------------------------
      1          8           0        0.056744   -1.973032    0.000000
      2          1           0       -0.744201   -2.542235    0.000000
      3          1           0        0.854936   -2.546089    0.000000
      4          8           0        0.056744    2.072076    0.000000
      5          1           0       -0.403045    2.940464    0.000000
      6          1           0       -0.615596    1.355510    0.000000
 ---------------------------------------------------------------------

 SCF Done:  E(RHF) =  -33.6527270151     A.U. after   11 cycles
 E2 =    -0.2285186818D+00 EUMP2 =    -0.33881245696911D+02
 CCSD(T)
 CCSD(T)= -0.33898227329D+02

 The electronic state is 1-A'.
 Alpha  occ. eigenvalues --   -1.35826  -1.33890  -0.71465  -0.69461  -0.55616
 Alpha  occ. eigenvalues --   -0.53627  -0.50410  -0.48475
 Alpha virt. eigenvalues --    0.19514   0.22397   0.30165   0.32315   0.80055
 Alpha virt. eigenvalues --    0.80613   0.82132   0.85600   0.86243   0.91611
 Alpha virt. eigenvalues --    1.17100   1.19389   1.21485   1.24826   2.56519

 Mulliken charges:
               1
     1  O   -0.743992
     2  H    0.367575
     3  H    0.377021
     4  O   -0.742756
     5  H    0.359856
     6  H    0.382295
 Sum of Mulliken charges =  -0.00000

 Dipole moment (field-independent basis, Debye):
    X=             -2.5934    Y=             -2.3958    Z=              0.0000  Tot=              3.5306
 Quadrupole moment (field-independent basis, Debye-Ang):
   XX=            -10.1158   YY=              1.6931   ZZ=            -14.9916
   XY=             -5.3936   XZ=              0.0000   YZ=              0.0000

 P4DQ=-33.8925695\MP4SDQ=-33.8946105\CCSD=-33.8956539\CCSD(T)=-33.89822
 Normal termination of Gaussian 16 at Sun Dec 10 07:09:11 2023.
