 Gaussian 16, Revision A.03,
 Gaussian 16:  ES64L-G16RevA.03 25-Dec-2016

 ------------------
 #p CCSD(T)/CEP-31G
 ------------------

 ------------
 H2O_H2O_2464
 ------------
 Symbolic Z-matrix:
 Charge =  0 Multiplicity = 1

                         Standard orientation:
 ---------------------------------------------------------------------
 Center     Atomic      Atomic             Coordinates (Angstroms)
 Number     Number       Type             X           Y           Z
 ---------------------------------------------------------------------
      1          8           0        0.045352   -2.082417    0.000000
      2          1           0       -0.755276   -2.652066    0.000000
      3          1           0        0.843863   -2.655030    0.000000
      4          8           0        0.045352    2.126939    0.000000
      5          1           0        0.080811    3.108901    0.000000
      6          1           0       -0.895035    1.842022    0.000000
 ---------------------------------------------------------------------

 SCF Done:  E(RHF) =  -33.6498819288     A.U. after   11 cycles
 E2 =    -0.2285754359D+00 EUMP2 =    -0.33878457364741D+02
 CCSD(T)
 CCSD(T)= -0.33895514973D+02

 The electronic state is 1-A'.
 Alpha  occ. eigenvalues --   -1.34956  -1.34174  -0.70585  -0.69767  -0.54587
 Alpha  occ. eigenvalues --   -0.53783  -0.49499  -0.48722
 Alpha virt. eigenvalues --    0.20499   0.21690   0.30925   0.31714   0.80938
 Alpha virt. eigenvalues --    0.80947   0.81921   0.85851   0.87343   0.91247
 Alpha virt. eigenvalues --    1.17865   1.18693   1.22304   1.23180   2.57885

 Mulliken charges:
               1
     1  O   -0.734580
     2  H    0.363766
     3  H    0.370906
     4  O   -0.732463
     5  H    0.360618
     6  H    0.371755
 Sum of Mulliken charges =  -0.00000

 Dipole moment (field-independent basis, Debye):
    X=             -2.0748    Y=             -1.0671    Z=              0.0000  Tot=              2.3332
 Quadrupole moment (field-independent basis, Debye-Ang):
   XX=             -9.3787   YY=              6.9642   ZZ=            -14.9871
   XY=             -3.6926   XZ=              0.0000   YZ=              0.0000

 \MP4DQ=-33.8898499\MP4SDQ=-33.8918875\CCSD=-33.8929416\CCSD(T)=-33.895
 Normal termination of Gaussian 16 at Sun Dec 10 07:11:44 2023.
