 Gaussian 16, Revision A.03,
 Gaussian 16:  ES64L-G16RevA.03 25-Dec-2016

 ------------------
 #p CCSD(T)/CEP-31G
 ------------------

 -----------
 H2O_H2O_436
 -----------
 Symbolic Z-matrix:
 Charge =  0 Multiplicity = 1

                         Standard orientation:
 ---------------------------------------------------------------------
 Center     Atomic      Atomic             Coordinates (Angstroms)
 Number     Number       Type             X           Y           Z
 ---------------------------------------------------------------------
      1          8           0        0.037702   -1.014360    0.000000
      2          1           0       -0.763665   -1.582969    0.000000
      3          1           0        0.835469   -1.588009    0.000000
      4          8           0        0.037702    1.042469    0.000000
      5          1           0        0.265292    1.998350    0.000000
      6          1           0       -0.940326    0.947756    0.000000
 ---------------------------------------------------------------------

 SCF Done:  E(RHF) =  -33.6063732803     A.U. after   11 cycles
 E2 =    -0.2319327923D+00 EUMP2 =    -0.33838306072556D+02
 CCSD(T)
 CCSD(T)= -0.33855592441D+02

 The electronic state is 1-A'.
 Alpha  occ. eigenvalues --   -1.33995  -1.30811  -0.69472  -0.67292  -0.57021
 Alpha  occ. eigenvalues --   -0.48832  -0.44697  -0.44187
 Alpha virt. eigenvalues --    0.20706   0.26401   0.32002   0.33279   0.79922
 Alpha virt. eigenvalues --    0.83038   0.89993   0.97829   0.99250   1.15945
 Alpha virt. eigenvalues --    1.19357   1.23711   1.25258   1.31035   2.51921

 Mulliken charges:
               1
     1  O   -0.737662
     2  H    0.343862
     3  H    0.377999
     4  O   -0.675608
     5  H    0.344275
     6  H    0.347135
 Sum of Mulliken charges =   0.00000

 Dipole moment (field-independent basis, Debye):
    X=             -1.4973    Y=             -0.6754    Z=              0.0000  Tot=              1.6425
 Quadrupole moment (field-independent basis, Debye-Ang):
   XX=             -9.1278   YY=             -3.6508   ZZ=            -15.0029
   XY=             -1.1413   XZ=              0.0000   YZ=              0.0000

 MP4DQ=-33.8494127\MP4SDQ=-33.8516827\CCSD=-33.8526841\CCSD(T)=-33.8555
 Normal termination of Gaussian 16 at Sun Dec 10 06:32:55 2023.
