 Gaussian 16, Revision A.03,
 Gaussian 16:  ES64L-G16RevA.03 25-Dec-2016

 ------------------
 #p CCSD(T)/CEP-31G
 ------------------

 -----------
 H2O_H2O_514
 -----------
 Symbolic Z-matrix:
 Charge =  0 Multiplicity = 1

                         Standard orientation:
 ---------------------------------------------------------------------
 Center     Atomic      Atomic             Coordinates (Angstroms)
 Number     Number       Type             X           Y           Z
 ---------------------------------------------------------------------
      1          8           0        0.045392   -1.045421    0.000000
      2          1           0       -0.756260   -1.613628    0.000000
      3          1           0        0.842871   -1.619471    0.000000
      4          8           0        0.045392    1.089780    0.000000
      5          1           0        0.082619    2.071676    0.000000
      6          1           0       -0.895507    0.806556    0.000000
 ---------------------------------------------------------------------

 SCF Done:  E(RHF) =  -33.6179458036     A.U. after   11 cycles
 E2 =    -0.2315165241D+00 EUMP2 =    -0.33849462327657D+02
 CCSD(T)
 CCSD(T)= -0.33866768374D+02

 The electronic state is 1-A'.
 Alpha  occ. eigenvalues --   -1.34459  -1.31069  -0.70088  -0.67714  -0.55740
 Alpha  occ. eigenvalues --   -0.49191  -0.46587  -0.45166
 Alpha virt. eigenvalues --    0.20280   0.26465   0.31521   0.33433   0.79127
 Alpha virt. eigenvalues --    0.84259   0.89788   0.96356   0.99264   1.14478
 Alpha virt. eigenvalues --    1.19002   1.23000   1.24768   1.31729   2.55507

 Mulliken charges:
               1
     1  O   -0.750835
     2  H    0.348343
     3  H    0.385015
     4  O   -0.674836
     5  H    0.337170
     6  H    0.355143
 Sum of Mulliken charges =   0.00000

 Dipole moment (field-independent basis, Debye):
    X=             -1.8376    Y=             -1.0879    Z=              0.0000  Tot=              2.1354
 Quadrupole moment (field-independent basis, Debye-Ang):
   XX=             -9.4641   YY=             -3.4282   ZZ=            -14.9971
   XY=             -1.6394   XZ=              0.0000   YZ=              0.0000

 P4DQ=-33.8606392\MP4SDQ=-33.86289\CCSD=-33.8638996\CCSD(T)=-33.8667684
 Normal termination of Gaussian 16 at Sun Dec 10 06:34:22 2023.
