 Gaussian 16, Revision A.03,
 Gaussian 16:  ES64L-G16RevA.03 25-Dec-2016

 ------------------
 #p CCSD(T)/CEP-31G
 ------------------

 ------------
 H2O_H2O_1984
 ------------
 Symbolic Z-matrix:
 Charge =  0 Multiplicity = 1

                         Standard orientation:
 ---------------------------------------------------------------------
 Center     Atomic      Atomic             Coordinates (Angstroms)
 Number     Number       Type             X           Y           Z
 ---------------------------------------------------------------------
      1          8           0        0.031745   -1.843570    0.000000
      2          1           0       -0.768667   -2.413523    0.000000
      3          1           0        0.830473   -2.415880    0.000000
      4          8           0        0.031745    1.862728    0.000000
      5          1           0        0.380614    2.781311    0.000000
      6          1           0       -0.950332    1.894836    0.000000
 ---------------------------------------------------------------------

 SCF Done:  E(RHF) =  -33.6472504395     A.U. after   11 cycles
 E2 =    -0.2287816365D+00 EUMP2 =    -0.33876032076009D+02
 CCSD(T)
 CCSD(T)= -0.33893176071D+02

 The electronic state is 1-A'.
 Alpha  occ. eigenvalues --   -1.34305  -1.33868  -0.69928  -0.69466  -0.53947
 Alpha  occ. eigenvalues --   -0.53146  -0.48818  -0.48372
 Alpha virt. eigenvalues --    0.20790   0.22071   0.31460   0.31861   0.77400
 Alpha virt. eigenvalues --    0.80966   0.82934   0.85917   0.89332   0.97915
 Alpha virt. eigenvalues --    1.18410   1.18925   1.22934   1.23385   2.58091

 Mulliken charges:
               1
     1  O   -0.725751
     2  H    0.359402
     3  H    0.366486
     4  O   -0.723617
     5  H    0.357203
     6  H    0.366276
 Sum of Mulliken charges =  -0.00000

 Dipole moment (field-independent basis, Debye):
    X=             -1.4437    Y=             -0.4679    Z=              0.0000  Tot=              1.5176
 Quadrupole moment (field-independent basis, Debye-Ang):
   XX=             -8.7345   YY=              6.3152   ZZ=            -14.9849
   XY=             -1.9842   XZ=              0.0000   YZ=              0.0000

 \MP4DQ=-33.8874731\MP4SDQ=-33.8895293\CCSD=-33.8905847\CCSD(T)=-33.893
 Normal termination of Gaussian 16 at Sun Dec 10 07:03:05 2023.
