 Gaussian 16, Revision A.03,
 Gaussian 16:  ES64L-G16RevA.03 25-Dec-2016

 ------------------
 #p CCSD(T)/CEP-31G
 ------------------

 ------------
 H2O_H2O_2623
 ------------
 Symbolic Z-matrix:
 Charge =  0 Multiplicity = 1

                         Standard orientation:
 ---------------------------------------------------------------------
 Center     Atomic      Atomic             Coordinates (Angstroms)
 Number     Number       Type             X           Y           Z
 ---------------------------------------------------------------------
      1          8           0        0.057111   -2.128534    0.000000
      2          1           0       -0.743742   -2.697867    0.000000
      3          1           0        0.855396   -2.701463    0.000000
      4          8           0        0.057111    2.235034    0.000000
      5          1           0       -0.458625    3.071408    0.000000
      6          1           0       -0.566802    1.475929    0.000000
 ---------------------------------------------------------------------

 SCF Done:  E(RHF) =  -33.6528168043     A.U. after   11 cycles
 E2 =    -0.2284400990D+00 EUMP2 =    -0.33881256903310D+02
 CCSD(T)
 CCSD(T)= -0.33898229691D+02

 The electronic state is 1-A'.
 Alpha  occ. eigenvalues --   -1.35876  -1.34119  -0.71514  -0.69703  -0.55672
 Alpha  occ. eigenvalues --   -0.53865  -0.50462  -0.48704
 Alpha virt. eigenvalues --    0.19638   0.22009   0.30153   0.32042   0.80081
 Alpha virt. eigenvalues --    0.81826   0.82067   0.85370   0.86084   0.89039
 Alpha virt. eigenvalues --    1.17065   1.19002   1.21465   1.24045   2.56944

 Mulliken charges:
               1
     1  O   -0.744479
     2  H    0.368613
     3  H    0.376207
     4  O   -0.743778
     5  H    0.362093
     6  H    0.381345
 Sum of Mulliken charges =   0.00000

 Dipole moment (field-independent basis, Debye):
    X=             -2.6174    Y=             -2.5526    Z=              0.0000  Tot=              3.6560
 Quadrupole moment (field-independent basis, Debye-Ang):
   XX=            -10.1470   YY=              1.9252   ZZ=            -14.9914
   XY=             -5.9743   XZ=              0.0000   YZ=              0.0000

 MP4DQ=-33.8925829\MP4SDQ=-33.8946165\CCSD=-33.8956631\CCSD(T)=-33.8982
 Normal termination of Gaussian 16 at Sun Dec 10 06:27:01 2023.
