 Gaussian 16, Revision A.03,
 Gaussian 16:  ES64L-G16RevA.03 25-Dec-2016

 ------------------
 #p CCSD(T)/CEP-31G
 ------------------

 ------------
 H2O_H2O_4283
 ------------
 Symbolic Z-matrix:
 Charge =  0 Multiplicity = 1

                         Standard orientation:
 ---------------------------------------------------------------------
 Center     Atomic      Atomic             Coordinates (Angstroms)
 Number     Number       Type             X           Y           Z
 ---------------------------------------------------------------------
      1          8           0        0.028563   -3.068913    0.000000
      2          1           0       -0.771464   -3.639406    0.000000
      3          1           0        0.827677   -3.640684    0.000000
      4          8           0        0.028563    3.084171    0.000000
      5          1           0        0.436161    3.978245    0.000000
      6          1           0       -0.949376    3.179781    0.000000
 ---------------------------------------------------------------------

 SCF Done:  E(RHF) =  -33.6507216389     A.U. after   11 cycles
 E2 =    -0.2284387929D+00 EUMP2 =    -0.33879160431864D+02
 CCSD(T)
 CCSD(T)= -0.33896191482D+02

 The electronic state is 1-A'.
 Alpha  occ. eigenvalues --   -1.35068  -1.34947  -0.70697  -0.70572  -0.54744
 Alpha  occ. eigenvalues --   -0.54622  -0.49624  -0.49503
 Alpha virt. eigenvalues --    0.20644   0.20767   0.30877   0.30995   0.80930
 Alpha virt. eigenvalues --    0.81049   0.84057   0.84178   0.87129   0.87273
 Alpha virt. eigenvalues --    1.17788   1.17908   1.22255   1.22375   2.57831

 Mulliken charges:
               1
     1  O   -0.737332
     2  H    0.367863
     3  H    0.369468
     4  O   -0.737152
     5  H    0.367392
     6  H    0.369760
 Sum of Mulliken charges =  -0.00000

 Dipole moment (field-independent basis, Debye):
    X=             -1.3180    Y=             -0.3572    Z=              0.0000  Tot=              1.3655
 Quadrupole moment (field-independent basis, Debye-Ang):
   XX=             -8.5682   YY=             18.9170   ZZ=            -14.9870
   XY=             -3.3111   XZ=              0.0000   YZ=              0.0000

 MP4DQ=-33.890539\MP4SDQ=-33.8925696\CCSD=-33.8936269\CCSD(T)=-33.89619
 Normal termination of Gaussian 16 at Sun Dec 10 06:57:10 2023.
