 Gaussian 16, Revision A.03,
 Gaussian 16:  ES64L-G16RevA.03 25-Dec-2016

 ------------------
 #p CCSD(T)/CEP-31G
 ------------------

 ------------
 H2O_H2O_1347
 ------------
 Symbolic Z-matrix:
 Charge =  0 Multiplicity = 1

                         Standard orientation:
 ---------------------------------------------------------------------
 Center     Atomic      Atomic             Coordinates (Angstroms)
 Number     Number       Type             X           Y           Z
 ---------------------------------------------------------------------
      1          8           0        0.056785   -1.454541    0.000000
      2          1           0       -0.744633   -2.023078    0.000000
      3          1           0        0.854501   -2.028261    0.000000
      4          8           0        0.056785    1.553490    0.000000
      5          1           0       -0.402282    2.422260    0.000000
      6          1           0       -0.616150    0.837484    0.000000
 ---------------------------------------------------------------------

 SCF Done:  E(RHF) =  -33.6531838661     A.U. after   11 cycles
 E2 =    -0.2292095139D+00 EUMP2 =    -0.33882393380076D+02
 CCSD(T)
 CCSD(T)= -0.33899419165D+02

 The electronic state is 1-A'.
 Alpha  occ. eigenvalues --   -1.36154  -1.32510  -0.71805  -0.68205  -0.55913
 Alpha  occ. eigenvalues --   -0.52280  -0.50753  -0.47107
 Alpha virt. eigenvalues --    0.19093   0.24901   0.29926   0.34526   0.76846
 Alpha virt. eigenvalues --    0.78074   0.85370   0.86737   0.90483   1.10222
 Alpha virt. eigenvalues --    1.16759   1.20276   1.21959   1.29300   2.54687

 Mulliken charges:
               1
     1  O   -0.752482
     2  H    0.365172
     3  H    0.388755
     4  O   -0.740164
     5  H    0.346197
     6  H    0.392522
 Sum of Mulliken charges =  -0.00000

 Dipole moment (field-independent basis, Debye):
    X=             -2.5299    Y=             -2.5126    Z=              0.0000  Tot=              3.5656
 Quadrupole moment (field-independent basis, Debye-Ang):
   XX=            -10.0985   YY=             -1.6831   ZZ=            -14.9977
   XY=             -4.0707   XZ=              0.0000   YZ=              0.0000

 P4DQ=-33.8936312\MP4SDQ=-33.8957381\CCSD=-33.8967643\CCSD(T)=-33.89941
 Normal termination of Gaussian 16 at Sun Dec 10 06:49:56 2023.
