 Gaussian 16, Revision A.03,
 Gaussian 16:  ES64L-G16RevA.03 25-Dec-2016

 ------------------
 #p CCSD(T)/CEP-31G
 ------------------

 -----------
 H2O_H2O_214
 -----------
 Symbolic Z-matrix:
 Charge =  0 Multiplicity = 1

                         Standard orientation:
 ---------------------------------------------------------------------
 Center     Atomic      Atomic             Coordinates (Angstroms)
 Number     Number       Type             X           Y           Z
 ---------------------------------------------------------------------
      1          8           0        0.045407   -0.885901    0.000000
      2          1           0       -0.756610   -1.453593    0.000000
      3          1           0        0.842517   -1.460462    0.000000
      4          8           0        0.045407    0.930201    0.000000
      5          1           0        0.083263    1.912073    0.000000
      6          1           0       -0.895674    0.647582    0.000000
 ---------------------------------------------------------------------

 SCF Done:  E(RHF) =  -33.5586279408     A.U. after   11 cycles
 E2 =    -0.2343051604D+00 EUMP2 =    -0.33792933101138D+02
 CCSD(T)
 CCSD(T)= -0.33810004834D+02

 The electronic state is 1-A'.
 Alpha  occ. eigenvalues --   -1.36504  -1.29691  -0.72175  -0.68559  -0.57046
 Alpha  occ. eigenvalues --   -0.50955  -0.43697  -0.41071
 Alpha virt. eigenvalues --    0.20167   0.28135   0.31113   0.33546   0.80542
 Alpha virt. eigenvalues --    0.84850   0.89687   0.95838   0.97887   1.18799
 Alpha virt. eigenvalues --    1.20224   1.25822   1.27469   1.34540   2.56158

 Mulliken charges:
               1
     1  O   -0.764413
     2  H    0.344642
     3  H    0.394681
     4  O   -0.650222
     5  H    0.325582
     6  H    0.349731
 Sum of Mulliken charges =  -0.00000

 Dipole moment (field-independent basis, Debye):
    X=             -1.6994    Y=             -1.1115    Z=              0.0000  Tot=              2.0306
 Quadrupole moment (field-independent basis, Debye-Ang):
   XX=             -9.5001   YY=             -6.0453   ZZ=            -14.9780
   XY=             -1.3323   XZ=              0.0000   YZ=              0.0000

 MP4DQ=-33.8035073\MP4SDQ=-33.8060065\CCSD=-33.8068279\CCSD(T)=-33.8100
 Normal termination of Gaussian 16 at Sun Dec 10 06:28:45 2023.
