 Gaussian 16, Revision A.03,
 Gaussian 16:  ES64L-G16RevA.03 25-Dec-2016

 ------------------
 #p CCSD(T)/CEP-31G
 ------------------

 ------------
 H2O_H2O_4063
 ------------
 Symbolic Z-matrix:
 Charge =  0 Multiplicity = 1

                         Standard orientation:
 ---------------------------------------------------------------------
 Center     Atomic      Atomic             Coordinates (Angstroms)
 Number     Number       Type             X           Y           Z
 ---------------------------------------------------------------------
      1          8           0        0.042964   -2.936462    0.000000
      2          1           0       -0.757320   -3.506593    0.000000
      3          1           0        0.841820   -3.508593    0.000000
      4          8           0        0.042964    2.975266    0.000000
      5          1           0        0.141981    3.952866    0.000000
      6          1           0       -0.913910    2.751886    0.000000
 ---------------------------------------------------------------------

 SCF Done:  E(RHF) =  -33.6509793703     A.U. after   11 cycles
 E2 =    -0.2284317003D+00 EUMP2 =    -0.33879411070510D+02
 CCSD(T)
 CCSD(T)= -0.33896434672D+02

 The electronic state is 1-A'.
 Alpha  occ. eigenvalues --   -1.35209  -1.34874  -0.70838  -0.70495  -0.54898
 Alpha  occ. eigenvalues --   -0.54562  -0.49768  -0.49434
 Alpha virt. eigenvalues --    0.20518   0.20859   0.30753   0.31082   0.80785
 Alpha virt. eigenvalues --    0.81114   0.83885   0.84220   0.86968   0.87357
 Alpha virt. eigenvalues --    1.17659   1.17990   1.22123   1.22457   2.57695

 Mulliken charges:
               1
     1  O   -0.738266
     2  H    0.367801
     3  H    0.370465
     4  O   -0.737852
     5  H    0.366742
     6  H    0.371111
 Sum of Mulliken charges =   0.00000

 Dipole moment (field-independent basis, Debye):
    X=             -1.9816    Y=             -0.9096    Z=              0.0000  Tot=              2.1804
 Quadrupole moment (field-independent basis, Debye-Ang):
   XX=             -9.2365   YY=             15.0500   ZZ=            -14.9875
   XY=             -5.0709   XZ=              0.0000   YZ=              0.0000

 MP4DQ=-33.8907842\MP4SDQ=-33.8928141\CCSD=-33.8938707\CCSD(T)=-33.8964
 Normal termination of Gaussian 16 at Sun Dec 10 06:53:14 2023.
