 Gaussian 16, Revision A.03,
 Gaussian 16:  ES64L-G16RevA.03 25-Dec-2016

 ------------------
 #p CCSD(T)/CEP-31G
 ------------------

 ------------
 H2O_H2O_4473
 ------------
 Symbolic Z-matrix:
 Charge =  0 Multiplicity = 1

                         Standard orientation:
 ---------------------------------------------------------------------
 Center     Atomic      Atomic             Coordinates (Angstroms)
 Number     Number       Type             X           Y           Z
 ---------------------------------------------------------------------
      1          8           0        0.057074   -3.112390    0.000000
      2          1           0       -0.743382   -3.682283    0.000000
      3          1           0        0.855759   -3.684761    0.000000
      4          8           0        0.057074    3.218969    0.000000
      5          1           0       -0.459246    4.054983    0.000000
      6          1           0       -0.566308    2.459428    0.000000
 ---------------------------------------------------------------------

 SCF Done:  E(RHF) =  -33.6520403399     A.U. after   11 cycles
 E2 =    -0.2283713894D+00 EUMP2 =    -0.33880411729319D+02
 CCSD(T)
 CCSD(T)= -0.33897404476D+02

 The electronic state is 1-A'.
 Alpha  occ. eigenvalues --   -1.35705  -1.34922  -0.71338  -0.70543  -0.55453
 Alpha  occ. eigenvalues --   -0.54659  -0.50280  -0.49497
 Alpha virt. eigenvalues --    0.20081   0.20886   0.30323   0.31124   0.80272
 Alpha virt. eigenvalues --    0.81042   0.83270   0.84068   0.86393   0.87228
 Alpha virt. eigenvalues --    1.17208   1.17987   1.21664   1.22460   2.57219

 Mulliken charges:
               1
     1  O   -0.742031
     2  H    0.369674
     3  H    0.372358
     4  O   -0.741885
     5  H    0.367659
     6  H    0.374226
 Sum of Mulliken charges =  -0.00000

 Dipole moment (field-independent basis, Debye):
    X=             -2.6335    Y=             -2.4933    Z=              0.0000  Tot=              3.6265
 Quadrupole moment (field-independent basis, Debye-Ang):
   XX=            -10.1563   YY=              7.5850   ZZ=            -14.9892
   XY=             -8.5352   XZ=              0.0000   YZ=              0.0000

 7\MP4DQ=-33.8917623\MP4SDQ=-33.8937893\CCSD=-33.894844\CCSD(T)=-33.897
 Normal termination of Gaussian 16 at Sun Dec 10 07:01:00 2023.
