 Gaussian 16, Revision A.03,
 Gaussian 16:  ES64L-G16RevA.03 25-Dec-2016

 ------------------
 #p CCSD(T)/CEP-31G
 ------------------

 -----------
 H2O_H2O_820
 -----------
 Symbolic Z-matrix:
 Charge =  0 Multiplicity = 1

                         Standard orientation:
 ---------------------------------------------------------------------
 Center     Atomic      Atomic             Coordinates (Angstroms)
 Number     Number       Type             X           Y           Z
 ---------------------------------------------------------------------
      1          8           0        0.055331   -1.183316    0.000000
      2          1           0       -0.746448   -1.751345    0.000000
      3          1           0        0.852682   -1.757542    0.000000
      4          8           0        0.055331    1.267550    0.000000
      5          1           0       -0.285828    2.189025    0.000000
      6          1           0       -0.705699    0.645988    0.000000
 ---------------------------------------------------------------------

 SCF Done:  E(RHF) =  -33.6429598523     A.U. after   11 cycles
 E2 =    -0.2303448816D+00 EUMP2 =    -0.33873304733992D+02
 CCSD(T)
 CCSD(T)= -0.33890363306D+02

 The electronic state is 1-A'.
 Alpha  occ. eigenvalues --   -1.35954  -1.31441  -0.71645  -0.68049  -0.54747
 Alpha  occ. eigenvalues --   -0.50976  -0.50539  -0.45941
 Alpha virt. eigenvalues --    0.19338   0.26399   0.30159   0.34885   0.77336
 Alpha virt. eigenvalues --    0.83161   0.88523   0.90314   0.95945   1.14154
 Alpha virt. eigenvalues --    1.19586   1.20286   1.23969   1.30534   2.71071

 Mulliken charges:
               1
     1  O   -0.762609
     2  H    0.360525
     3  H    0.398303
     4  O   -0.710656
     5  H    0.332629
     6  H    0.381808
 Sum of Mulliken charges =   0.00000

 Dipole moment (field-independent basis, Debye):
    X=             -2.3510    Y=             -2.1787    Z=              0.0000  Tot=              3.2053
 Quadrupole moment (field-independent basis, Debye-Ang):
   XX=             -9.9985   YY=             -3.1000   ZZ=            -15.0007
   XY=             -3.0072   XZ=              0.0000   YZ=              0.0000

 MP4DQ=-33.884388\MP4SDQ=-33.8865786\CCSD=-33.8875805\CCSD(T)=-33.89036
 Normal termination of Gaussian 16 at Sun Dec 10 06:40:05 2023.
