 Gaussian 16, Revision A.03,
 Gaussian 16:  ES64L-G16RevA.03 25-Dec-2016

 ------------------
 #p CCSD(T)/CEP-31G
 ------------------

 ------------
 H2O_H2O_2735
 ------------
 Symbolic Z-matrix:
 Charge =  0 Multiplicity = 1

                         Standard orientation:
 ---------------------------------------------------------------------
 Center     Atomic      Atomic             Coordinates (Angstroms)
 Number     Number       Type             X           Y           Z
 ---------------------------------------------------------------------
      1          8           0        0.034784   -2.240083    0.000000
      2          1           0       -0.765545   -2.810152    0.000000
      3          1           0        0.833595   -2.812277    0.000000
      4          8           0        0.034784    2.263595    0.000000
      5          1           0        0.322693    3.203071    0.000000
      6          1           0       -0.947286    2.231261    0.000000
 ---------------------------------------------------------------------

 SCF Done:  E(RHF) =  -33.6493915323     A.U. after   11 cycles
 E2 =    -0.2285512699D+00 EUMP2 =    -0.33877942802186D+02
 CCSD(T)
 CCSD(T)= -0.33895013055D+02

 The electronic state is 1-A'.
 Alpha  occ. eigenvalues --   -1.34742  -1.34386  -0.70368  -0.69996  -0.54348
 Alpha  occ. eigenvalues --   -0.53970  -0.49278  -0.48924
 Alpha virt. eigenvalues --    0.20815   0.21335   0.31129   0.31469   0.81224
 Alpha virt. eigenvalues --    0.81669   0.82644   0.85947   0.87562   0.88957
 Alpha virt. eigenvalues --    1.18060   1.18413   1.22538   1.22895   2.58133

 Mulliken charges:
               1
     1  O   -0.732827
     2  H    0.364125
     3  H    0.368719
     4  O   -0.731759
     5  H    0.362651
     6  H    0.369092
 Sum of Mulliken charges =   0.00000

 Dipole moment (field-independent basis, Debye):
    X=             -1.5953    Y=             -0.5597    Z=              0.0000  Tot=              1.6907
 Quadrupole moment (field-independent basis, Debye-Ang):
   XX=             -8.8385   YY=              9.9842   ZZ=            -14.9860
   XY=             -2.8295   XZ=              0.0000   YZ=              0.0000

 \MP4DQ=-33.8893479\MP4SDQ=-33.8913837\CCSD=-33.8924413\CCSD(T)=-33.895
 Normal termination of Gaussian 16 at Sun Dec 10 06:29:07 2023.
