 Gaussian 16, Revision A.03,
 Gaussian 16:  ES64L-G16RevA.03 25-Dec-2016

 ------------------
 #p CCSD(T)/CEP-31G
 ------------------

 ------------
 H2O_H2O_2763
 ------------
 Symbolic Z-matrix:
 Charge =  0 Multiplicity = 1

                         Standard orientation:
 ---------------------------------------------------------------------
 Center     Atomic      Atomic             Coordinates (Angstroms)
 Number     Number       Type             X           Y           Z
 ---------------------------------------------------------------------
      1          8           0        0.042972   -2.245091    0.000000
      2          1           0       -0.757531   -2.814917    0.000000
      3          1           0        0.841609   -2.817528    0.000000
      4          8           0        0.042972    2.283863    0.000000
      5          1           0        0.142362    3.261425    0.000000
      6          1           0       -0.913988    2.060849    0.000000
 ---------------------------------------------------------------------

 SCF Done:  E(RHF) =  -33.6500111284     A.U. after   11 cycles
 E2 =    -0.2285273195D+00 EUMP2 =    -0.33878538447941D+02
 CCSD(T)
 CCSD(T)= -0.33895590941D+02

 The electronic state is 1-A'.
 Alpha  occ. eigenvalues --   -1.34954  -1.34372  -0.70582  -0.69976  -0.54590
 Alpha  occ. eigenvalues --   -0.53998  -0.49499  -0.48920
 Alpha virt. eigenvalues --    0.20634   0.21387   0.30947   0.31519   0.81026
 Alpha virt. eigenvalues --    0.81648   0.82652   0.85585   0.87297   0.88974
 Alpha virt. eigenvalues --    1.17873   1.18457   1.22337   1.22938   2.57936

 Mulliken charges:
               1
     1  O   -0.734999
     2  H    0.364733
     3  H    0.370291
     4  O   -0.733564
     5  H    0.362502
     6  H    0.371037
 Sum of Mulliken charges =   0.00000

 Dipole moment (field-independent basis, Debye):
    X=             -1.9711    Y=             -0.9225    Z=              0.0000  Tot=              2.1763
 Quadrupole moment (field-independent basis, Debye-Ang):
   XX=             -9.2428   YY=              8.8578   ZZ=            -14.9868
   XY=             -3.7272   XZ=              0.0000   YZ=              0.0000

 \MP4DQ=-33.8899307\MP4SDQ=-33.8919649\CCSD=-33.8930211\CCSD(T)=-33.895
 Normal termination of Gaussian 16 at Sun Dec 10 06:29:38 2023.
