 Gaussian 16, Revision A.03,
 Gaussian 16:  ES64L-G16RevA.03 25-Dec-2016

 ------------------
 #p CCSD(T)/CEP-31G
 ------------------

 ------------
 H2O_H2O_1751
 ------------
 Symbolic Z-matrix:
 Charge =  0 Multiplicity = 1

                         Standard orientation:
 ---------------------------------------------------------------------
 Center     Atomic      Atomic             Coordinates (Angstroms)
 Number     Number       Type             X           Y           Z
 ---------------------------------------------------------------------
      1          8           0        0.003735   -1.734180    0.000000
      2          1           0       -0.795941   -2.305164    0.000000
      3          1           0        0.803200   -2.305461    0.000000
      4          8           0        0.003735    1.734424    0.000000
      5          1           0        0.764357    2.356487    0.000000
      6          1           0       -0.831382    2.252193    0.000000
 ---------------------------------------------------------------------

 SCF Done:  E(RHF) =  -33.6445981583     A.U. after   11 cycles
 E2 =    -0.2289031256D+00 EUMP2 =    -0.33873501283914D+02
 CCSD(T)
 CCSD(T)= -0.33890730560D+02

 The electronic state is 1-A'.
 Alpha  occ. eigenvalues --   -1.33739  -1.33687  -0.69357  -0.69304  -0.53629
 Alpha  occ. eigenvalues --   -0.52399  -0.48282  -0.48085
 Alpha virt. eigenvalues --    0.21133   0.22260   0.31749   0.32088   0.76860
 Alpha virt. eigenvalues --    0.80863   0.83864   0.85292   0.92498   1.00052
 Alpha virt. eigenvalues --    1.18883   1.18955   1.23221   1.23747   2.58391

 Mulliken charges:
               1
     1  O   -0.717372
     2  H    0.358187
     3  H    0.359187
     4  O   -0.717328
     5  H    0.358106
     6  H    0.359220
 Sum of Mulliken charges =  -0.00000

 Dipole moment (field-independent basis, Debye):
    X=             -0.1695    Y=             -0.0060    Z=              0.0000  Tot=              0.1696
 Quadrupole moment (field-independent basis, Debye-Ang):
   XX=             -8.1402   YY=              6.0448   ZZ=            -14.9833
   XY=             -0.1937   XZ=              0.0000   YZ=              0.0000

 MP4DQ=-33.8849938\MP4SDQ=-33.8870619\CCSD=-33.8881247\CCSD(T)=-33.8907
 Normal termination of Gaussian 16 at Sun Dec 10 06:57:26 2023.
