 Gaussian 16, Revision A.03,
 Gaussian 16:  ES64L-G16RevA.03 25-Dec-2016

 ------------------
 #p CCSD(T)/CEP-31G
 ------------------

 ------------
 H2O_H2O_3876
 ------------
 Symbolic Z-matrix:
 Charge =  0 Multiplicity = 1

                         Standard orientation:
 ---------------------------------------------------------------------
 Center     Atomic      Atomic             Coordinates (Angstroms)
 Number     Number       Type             X           Y           Z
 ---------------------------------------------------------------------
      1          8           0        0.003735   -2.864333    0.000000
      2          1           0       -0.795900   -3.435375    0.000000
      3          1           0        0.803242   -3.435554    0.000000
      4          8           0        0.003735    2.864576    0.000000
      5          1           0        0.764311    3.486695    0.000000
      6          1           0       -0.831420    3.382285    0.000000
 ---------------------------------------------------------------------

 SCF Done:  E(RHF) =  -33.6501824694     A.U. after   10 cycles
 E2 =    -0.2284658241D+00 EUMP2 =    -0.33878648293469D+02
 CCSD(T)
 CCSD(T)= -0.33895694806D+02

 The electronic state is 1-A'.
 Alpha  occ. eigenvalues --   -1.34861  -1.34859  -0.70487  -0.70485  -0.54507
 Alpha  occ. eigenvalues --   -0.54501  -0.49408  -0.49406
 Alpha virt. eigenvalues --    0.20817   0.20829   0.31051   0.31054   0.81144
 Alpha virt. eigenvalues --    0.81149   0.84259   0.84405   0.87370   0.87382
 Alpha virt. eigenvalues --    1.17973   1.17975   1.22443   1.22446   2.58025

 Mulliken charges:
               1
     1  O   -0.735435
     2  H    0.367589
     3  H    0.367846
     4  O   -0.735431
     5  H    0.367542
     6  H    0.367889
 Sum of Mulliken charges =  -0.00000

 Dipole moment (field-independent basis, Debye):
    X=             -0.1722    Y=             -0.0057    Z=              0.0000  Tot=              0.1723
 Quadrupole moment (field-independent basis, Debye-Ang):
   XX=             -8.0540   YY=             18.3354   ZZ=            -14.9863
   XY=             -0.3790   XZ=              0.0000   YZ=              0.0000

 MP4DQ=-33.8900381\MP4SDQ=-33.8920701\CCSD=-33.8931283\CCSD(T)=-33.8956
 Normal termination of Gaussian 16 at Sun Dec 10 06:49:49 2023.
