 Gaussian 16, Revision A.03,
 Gaussian 16:  ES64L-G16RevA.03 25-Dec-2016

 ------------------
 #p CCSD(T)/CEP-31G
 ------------------

 -----------
 H2O_H2O_903
 -----------
 Symbolic Z-matrix:
 Charge =  0 Multiplicity = 1

                         Standard orientation:
 ---------------------------------------------------------------------
 Center     Atomic      Atomic             Coordinates (Angstroms)
 Number     Number       Type             X           Y           Z
 ---------------------------------------------------------------------
      1          8           0        0.011143   -1.281068    0.000000
      2          1           0       -0.788855   -1.851602    0.000000
      3          1           0        0.810287   -1.852798    0.000000
      4          8           0        0.011143    1.283246    0.000000
      5          1           0        0.684464    1.998890    0.000000
      6          1           0       -0.884184    1.688086    0.000000
 ---------------------------------------------------------------------

 SCF Done:  E(RHF) =  -33.6325287611     A.U. after   11 cycles
 E2 =    -0.2298785391D+00 EUMP2 =    -0.33862407300128D+02
 CCSD(T)
 CCSD(T)= -0.33879839388D+02

 The electronic state is 1-A'.
 Alpha  occ. eigenvalues --   -1.32838  -1.32222  -0.68375  -0.67894  -0.54555
 Alpha  occ. eigenvalues --   -0.48272  -0.47533  -0.46261
 Alpha virt. eigenvalues --    0.21444   0.24001   0.32575   0.32866   0.79454
 Alpha virt. eigenvalues --    0.79604   0.87243   0.88494   1.03959   1.09661
 Alpha virt. eigenvalues --    1.19617   1.21372   1.24287   1.25099   2.56307

 Mulliken charges:
               1
     1  O   -0.701879
     2  H    0.347333
     3  H    0.354067
     4  O   -0.699617
     5  H    0.349308
     6  H    0.350787
 Sum of Mulliken charges =  -0.00000

 Dipole moment (field-independent basis, Debye):
    X=             -0.4790    Y=             -0.0528    Z=              0.0000  Tot=              0.4819
 Quadrupole moment (field-independent basis, Debye-Ang):
   XX=             -8.3117   YY=              0.4833   ZZ=            -14.9933
   XY=             -0.3705   XZ=              0.0000   YZ=              0.0000

 MP4DQ=-33.8739348\MP4SDQ=-33.8760398\CCSD=-33.8771341\CCSD(T)=-33.8798
 Normal termination of Gaussian 16 at Sun Dec 10 06:41:39 2023.
