 Gaussian 16, Revision A.03,
 Gaussian 16:  ES64L-G16RevA.03 25-Dec-2016

 ------------------
 #p CCSD(T)/CEP-31G
 ------------------

 ------------
 H2O_H2O_3433
 ------------
 Symbolic Z-matrix:
 Charge =  0 Multiplicity = 1

                         Standard orientation:
 ---------------------------------------------------------------------
 Center     Atomic      Atomic             Coordinates (Angstroms)
 Number     Number       Type             X           Y           Z
 ---------------------------------------------------------------------
      1          8           0        0.028564   -2.616856    0.000000
      2          1           0       -0.771542   -3.187239    0.000000
      3          1           0        0.827599   -3.188737    0.000000
      4          8           0        0.028564    2.632106    0.000000
      5          1           0        0.436285    3.526125    0.000000
      6          1           0       -0.949362    2.727851    0.000000
 ---------------------------------------------------------------------

 SCF Done:  E(RHF) =  -33.6500586432     A.U. after   11 cycles
 E2 =    -0.2284835814D+00 EUMP2 =    -0.33878542224677D+02
 CCSD(T)
 CCSD(T)= -0.33895592476D+02

 The electronic state is 1-A'.
 Alpha  occ. eigenvalues --   -1.34873  -1.34705  -0.70500  -0.70326  -0.54510
 Alpha  occ. eigenvalues --   -0.54341  -0.49419  -0.49252
 Alpha virt. eigenvalues --    0.20798   0.20978   0.31034   0.31195   0.81133
 Alpha virt. eigenvalues --    0.81300   0.84108   0.84710   0.87366   0.87596
 Alpha virt. eigenvalues --    1.17955   1.18121   1.22428   1.22594   2.58013

 Mulliken charges:
               1
     1  O   -0.735050
     2  H    0.366280
     3  H    0.368771
     4  O   -0.734675
     5  H    0.365582
     6  H    0.369093
 Sum of Mulliken charges =   0.00000

 Dipole moment (field-independent basis, Debye):
    X=             -1.3150    Y=             -0.3593    Z=              0.0000  Tot=              1.3632
 Quadrupole moment (field-independent basis, Debye-Ang):
   XX=             -8.5762   YY=             14.3884   ZZ=            -14.9863
   XY=             -2.7258   XZ=              0.0000   YZ=              0.0000

 \MP4DQ=-33.8899345\MP4SDQ=-33.8919671\CCSD=-33.8930251\CCSD(T)=-33.895
 Normal termination of Gaussian 16 at Sun Dec 10 06:41:40 2023.
