 Gaussian 16, Revision A.03,
 Gaussian 16:  ES64L-G16RevA.03 25-Dec-2016

 ------------------
 #p CCSD(T)/CEP-31G
 ------------------

 ------------
 H2O_H2O_2741
 ------------
 Symbolic Z-matrix:
 Charge =  0 Multiplicity = 1

                         Standard orientation:
 ---------------------------------------------------------------------
 Center     Atomic      Atomic             Coordinates (Angstroms)
 Number     Number       Type             X           Y           Z
 ---------------------------------------------------------------------
      1          8           0        0.049515   -2.221936    0.000000
      2          1           0       -0.751135   -2.791554    0.000000
      3          1           0        0.848004   -2.794579    0.000000
      4          8           0        0.049515    2.278861    0.000000
      5          1           0       -0.043463    3.257054    0.000000
      6          1           0       -0.845653    1.873672    0.000000
 ---------------------------------------------------------------------

 SCF Done:  E(RHF) =  -33.6506952678     A.U. after   11 cycles
 E2 =    -0.2285036422D+00 EUMP2 =    -0.33879198910040D+02
 CCSD(T)
 CCSD(T)= -0.33896231732D+02

 The electronic state is 1-A'.
 Alpha  occ. eigenvalues --   -1.35191  -1.34322  -0.70822  -0.69919  -0.54865
 Alpha  occ. eigenvalues --   -0.53984  -0.49746  -0.48880
 Alpha virt. eigenvalues --    0.20400   0.21510   0.30741   0.31620   0.80786
 Alpha virt. eigenvalues --    0.81676   0.82448   0.85402   0.86994   0.89093
 Alpha virt. eigenvalues --    1.17664   1.18554   1.22106   1.23054   2.57712

 Mulliken charges:
               1
     1  O   -0.737387
     2  H    0.365492
     3  H    0.371943
     4  O   -0.735722
     5  H    0.362276
     6  H    0.373399
 Sum of Mulliken charges =  -0.00000

 Dipole moment (field-independent basis, Debye):
    X=             -2.2710    Y=             -1.3557    Z=              0.0000  Tot=              2.6449
 Quadrupole moment (field-independent basis, Debye-Ang):
   XX=             -9.6286   YY=              7.1595   ZZ=            -14.9879
   XY=             -4.5494   XZ=              0.0000   YZ=              0.0000

 3\MP4DQ=-33.8905763\MP4SDQ=-33.8926092\CCSD=-33.8936634\CCSD(T)=-33.89
 Normal termination of Gaussian 16 at Sun Dec 10 06:29:14 2023.
