 Gaussian 16, Revision A.03,
 Gaussian 16:  ES64L-G16RevA.03 25-Dec-2016

 ------------------
 #p CCSD(T)/CEP-31G
 ------------------

 -----------
 H2O_H2O_966
 -----------
 Symbolic Z-matrix:
 Charge =  0 Multiplicity = 1

                         Standard orientation:
 ---------------------------------------------------------------------
 Center     Atomic      Atomic             Coordinates (Angstroms)
 Number     Number       Type             X           Y           Z
 ---------------------------------------------------------------------
      1          8           0        0.049554   -1.277997    0.000000
      2          1           0       -0.751874   -1.846520    0.000000
      3          1           0        0.847259   -1.851732    0.000000
      4          8           0        0.049554    1.334787    0.000000
      5          1           0       -0.042087    2.313107    0.000000
      6          1           0       -0.846167    0.930821    0.000000
 ---------------------------------------------------------------------

 SCF Done:  E(RHF) =  -33.6431859053     A.U. after   11 cycles
 E2 =    -0.2299361551D+00 EUMP2 =    -0.33873122060352D+02
 CCSD(T)
 CCSD(T)= -0.33890408879D+02

 The electronic state is 1-A'.
 Alpha  occ. eigenvalues --   -1.34698  -1.32182  -0.70345  -0.67955  -0.54663
 Alpha  occ. eigenvalues --   -0.50886  -0.49279  -0.46620
 Alpha virt. eigenvalues --    0.19956   0.25059   0.31116   0.33285   0.78218
 Alpha virt. eigenvalues --    0.82444   0.87041   0.87734   0.93189   1.16417
 Alpha virt. eigenvalues --    1.18801   1.22010   1.22741   1.29320   2.62016

 Mulliken charges:
               1
     1  O   -0.738179
     2  H    0.353659
     3  H    0.380350
     4  O   -0.705730
     5  H    0.340381
     6  H    0.369520
 Sum of Mulliken charges =  -0.00000

 Dipole moment (field-independent basis, Debye):
    X=             -2.1447    Y=             -1.4279    Z=              0.0000  Tot=              2.5766
 Quadrupole moment (field-independent basis, Debye-Ang):
   XX=             -9.6532   YY=             -1.0402   ZZ=            -14.9928
   XY=             -2.4829   XZ=              0.0000   YZ=              0.0000

 \MP4DQ=-33.8845102\MP4SDQ=-33.8866583\CCSD=-33.8877106\CCSD(T)=-33.890
 Normal termination of Gaussian 16 at Sun Dec 10 06:42:49 2023.
