 Gaussian 16, Revision A.03,
 Gaussian 16:  ES64L-G16RevA.03 25-Dec-2016

 ------------------
 #p CCSD(T)/CEP-31G
 ------------------

 ------------
 H2O_H2O_1888
 ------------
 Symbolic Z-matrix:
 Charge =  0 Multiplicity = 1

                         Standard orientation:
 ---------------------------------------------------------------------
 Center     Atomic      Atomic             Coordinates (Angstroms)
 Number     Number       Type             X           Y           Z
 ---------------------------------------------------------------------
      1          8           0        0.042980   -1.779754    0.000000
      2          1           0       -0.757763   -2.349242    0.000000
      3          1           0        0.841376   -2.352527    0.000000
      4          8           0        0.042980    1.818489    0.000000
      5          1           0        0.142783    2.796009    0.000000
      6          1           0       -0.914074    1.595878    0.000000
 ---------------------------------------------------------------------

 SCF Done:  E(RHF) =  -33.6483101478     A.U. after   11 cycles
 E2 =    -0.2288108673D+00 EUMP2 =    -0.33877121015130D+02
 CCSD(T)
 CCSD(T)= -0.33894242772D+02

 The electronic state is 1-A'.
 Alpha  occ. eigenvalues --   -1.34648  -1.33704  -0.70277  -0.69281  -0.54273
 Alpha  occ. eigenvalues --   -0.53128  -0.49175  -0.48231
 Alpha virt. eigenvalues --    0.20386   0.22413   0.31138   0.32085   0.76364
 Alpha virt. eigenvalues --    0.80563   0.83128   0.85644   0.88653   1.00674
 Alpha virt. eigenvalues --    1.18097   1.19425   1.22554   1.23723   2.57659

 Mulliken charges:
               1
     1  O   -0.729453
     2  H    0.359733
     3  H    0.370049
     4  O   -0.725497
     5  H    0.355258
     6  H    0.369911
 Sum of Mulliken charges =  -0.00000

 Dipole moment (field-independent basis, Debye):
    X=             -1.9493    Y=             -0.9491    Z=              0.0000  Tot=              2.1680
 Quadrupole moment (field-independent basis, Debye-Ang):
   XX=             -9.2574   YY=              4.6061   ZZ=            -14.9864
   XY=             -2.8425   XZ=              0.0000   YZ=              0.0000

 MP4DQ=-33.8885387\MP4SDQ=-33.8905991\CCSD=-33.8916496\CCSD(T)=-33.8942
 Normal termination of Gaussian 16 at Sun Dec 10 06:59:57 2023.
