 Gaussian 16, Revision A.03,
 Gaussian 16:  ES64L-G16RevA.03 25-Dec-2016

 ------------------
 #p CCSD(T)/CEP-31G
 ------------------

 ------------
 H2O_H2O_1968
 ------------
 Symbolic Z-matrix:
 Charge =  0 Multiplicity = 1

                         Standard orientation:
 ---------------------------------------------------------------------
 Center     Atomic      Atomic             Coordinates (Angstroms)
 Number     Number       Type             X           Y           Z
 ---------------------------------------------------------------------
      1          8           0        0.052853   -1.802524    0.000000
      2          1           0       -0.748128   -2.371678    0.000000
      3          1           0        0.851009   -2.375631    0.000000
      4          8           0        0.052853    1.872777    0.000000
      5          1           0       -0.166454    2.830592    0.000000
      6          1           0       -0.782071    1.354694    0.000000
 ---------------------------------------------------------------------

 SCF Done:  E(RHF) =  -33.6508596728     A.U. after   11 cycles
 E2 =    -0.2287124268D+00 EUMP2 =    -0.33879572099608D+02
 CCSD(T)
 CCSD(T)= -0.33896619280D+02

 The electronic state is 1-A'.
 Alpha  occ. eigenvalues --   -1.35323  -1.33652  -0.70959  -0.69213  -0.55010
 Alpha  occ. eigenvalues --   -0.53297  -0.49881  -0.48218
 Alpha virt. eigenvalues --    0.19790   0.22687   0.30546   0.32369   0.77187
 Alpha virt. eigenvalues --    0.80181   0.82808   0.85922   0.87069   0.98388
 Alpha virt. eigenvalues --    1.17510   1.19793   1.21912   1.24636   2.56584

 Mulliken charges:
               1
     1  O   -0.737820
     2  H    0.363308
     3  H    0.375160
     4  O   -0.734062
     5  H    0.355956
     6  H    0.377458
 Sum of Mulliken charges =   0.00000

 Dipole moment (field-independent basis, Debye):
    X=             -2.4014    Y=             -1.7179    Z=              0.0000  Tot=              2.9526
 Quadrupole moment (field-independent basis, Debye-Ang):
   XX=             -9.8432   YY=              2.7971   ZZ=            -14.9895
   XY=             -4.1037   XZ=              0.0000   YZ=              0.0000

 1\MP4DQ=-33.890934\MP4SDQ=-33.8929887\CCSD=-33.8940326\CCSD(T)=-33.896
 Normal termination of Gaussian 16 at Sun Dec 10 07:02:21 2023.
