 Gaussian 16, Revision A.03,
 Gaussian 16:  ES64L-G16RevA.03 25-Dec-2016

 ------------------
 #p CCSD(T)/CEP-31G
 ------------------

 -----------
 H2O_H2O_773
 -----------
 Symbolic Z-matrix:
 Charge =  0 Multiplicity = 1

                         Standard orientation:
 ---------------------------------------------------------------------
 Center     Atomic      Atomic             Coordinates (Angstroms)
 Number     Number       Type             X           Y           Z
 ---------------------------------------------------------------------
      1          8           0        0.057209   -1.144747    0.000000
      2          1           0       -0.744694   -1.712600    0.000000
      3          1           0        0.854434   -1.719149    0.000000
      4          8           0        0.057209    1.251035    0.000000
      5          1           0       -0.456981    2.088362    0.000000
      6          1           0       -0.568104    0.493085    0.000000
 ---------------------------------------------------------------------

 SCF Done:  E(RHF) =  -33.6433622328     A.U. after   11 cycles
 E2 =    -0.2303369033D+00 EUMP2 =    -0.33873699136094D+02
 CCSD(T)
 CCSD(T)= -0.33890377042D+02

 The electronic state is 1-A'.
 Alpha  occ. eigenvalues --   -1.37296  -1.30784  -0.72992  -0.68684  -0.54956
 Alpha  occ. eigenvalues --   -0.51848  -0.50752  -0.45320
 Alpha virt. eigenvalues --    0.18809   0.27247   0.29194   0.37210   0.76549
 Alpha virt. eigenvalues --    0.82960   0.88881   0.89674   0.98201   1.12223
 Alpha virt. eigenvalues --    1.18841   1.19493   1.25711   1.31345   2.69784

 Mulliken charges:
               1
     1  O   -0.781792
     2  H    0.369315
     3  H    0.415784
     4  O   -0.722951
     5  H    0.327749
     6  H    0.391895
 Sum of Mulliken charges =   0.00000

 Dipole moment (field-independent basis, Debye):
    X=             -2.4090    Y=             -2.8509    Z=              0.0000  Tot=              3.7325
 Quadrupole moment (field-independent basis, Debye-Ang):
   XX=            -10.1089   YY=             -4.5127   ZZ=            -15.0070
   XY=             -3.4042   XZ=              0.0000   YZ=              0.0000

 \MP4DQ=-33.8843657\MP4SDQ=-33.886579\CCSD=-33.8875204\CCSD(T)=-33.8903
 Normal termination of Gaussian 16 at Sun Dec 10 06:39:11 2023.
