 Gaussian 16, Revision A.03,
 Gaussian 16:  ES64L-G16RevA.03 25-Dec-2016

 ------------------
 #p CCSD(T)/CEP-31G
 ------------------

 -----------
 H2O_H2O_690
 -----------
 Symbolic Z-matrix:
 Charge =  0 Multiplicity = 1

                         Standard orientation:
 ---------------------------------------------------------------------
 Center     Atomic      Atomic             Coordinates (Angstroms)
 Number     Number       Type             X           Y           Z
 ---------------------------------------------------------------------
      1          8           0        0.047577   -1.135195    0.000000
      2          1           0       -0.754001   -1.703507    0.000000
      3          1           0        0.845131   -1.709141    0.000000
      4          8           0        0.047577    1.185626    0.000000
      5          1           0        0.020376    2.167851    0.000000
      6          1           0       -0.872739    0.841351    0.000000
 ---------------------------------------------------------------------

 SCF Done:  E(RHF) =  -33.6324963356     A.U. after   11 cycles
 E2 =    -0.2307262540D+00 EUMP2 =    -0.33863222589596D+02
 CCSD(T)
 CCSD(T)= -0.33880545480D+02

 The electronic state is 1-A'.
 Alpha  occ. eigenvalues --   -1.34460  -1.31577  -0.70105  -0.67766  -0.55019
 Alpha  occ. eigenvalues --   -0.49123  -0.48854  -0.45841
 Alpha virt. eigenvalues --    0.20128   0.25883   0.31360   0.33429   0.78459
 Alpha virt. eigenvalues --    0.84043   0.89201   0.93685   0.96419   1.14905
 Alpha virt. eigenvalues --    1.18920   1.22065   1.23855   1.31098   2.58445

 Mulliken charges:
               1
     1  O   -0.745656
     2  H    0.350724
     3  H    0.383406
     4  O   -0.687665
     5  H    0.337441
     6  H    0.361751
 Sum of Mulliken charges =  -0.00000

 Dipole moment (field-independent basis, Debye):
    X=             -1.9890    Y=             -1.2533    Z=              0.0000  Tot=              2.3510
 Quadrupole moment (field-independent basis, Debye-Ang):
   XX=             -9.5598   YY=             -2.4081   ZZ=            -14.9956
   XY=             -1.9910   XZ=              0.0000   YZ=              0.0000

 MP4DQ=-33.8745267\MP4SDQ=-33.876723\CCSD=-33.8777625\CCSD(T)=-33.88054
 Normal termination of Gaussian 16 at Sun Dec 10 06:37:38 2023.
