 Gaussian 16, Revision A.03,
 Gaussian 16:  ES64L-G16RevA.03 25-Dec-2016

 ------------------
 #p CCSD(T)/CEP-31G
 ------------------

 ------------
 H2O_H2O_4863
 ------------
 Symbolic Z-matrix:
 Charge =  0 Multiplicity = 1

                         Standard orientation:
 ---------------------------------------------------------------------
 Center     Atomic      Atomic             Coordinates (Angstroms)
 Number     Number       Type             X           Y           Z
 ---------------------------------------------------------------------
      1          8           0        0.042961   -3.361924    0.000000
      2          1           0       -0.757234   -3.932181    0.000000
      3          1           0        0.841907   -3.933929    0.000000
      4          8           0        0.042961    3.400741    0.000000
      5          1           0        0.141824    4.378357    0.000000
      6          1           0       -0.913878    3.177211    0.000000
 ---------------------------------------------------------------------

 SCF Done:  E(RHF) =  -33.6512567539     A.U. after   11 cycles
 E2 =    -0.2284096753D+00 EUMP2 =    -0.33879666429241D+02
 CCSD(T)
 CCSD(T)= -0.33896682104D+02

 The electronic state is 1-A'.
 Alpha  occ. eigenvalues --   -1.35302  -1.35049  -0.70933  -0.70674  -0.55008
 Alpha  occ. eigenvalues --   -0.54753  -0.49866  -0.49613
 Alpha virt. eigenvalues --    0.20440   0.20697   0.30676   0.30927   0.80687
 Alpha virt. eigenvalues --    0.80937   0.83763   0.84013   0.86856   0.87139
 Alpha virt. eigenvalues --    1.17577   1.17828   1.22039   1.22292   2.57607

 Mulliken charges:
               1
     1  O   -0.739225
     2  H    0.368700
     3  H    0.370526
     4  O   -0.739006
     5  H    0.367967
     6  H    0.371039
 Sum of Mulliken charges =  -0.00000

 Dipole moment (field-independent basis, Debye):
    X=             -1.9841    Y=             -0.9063    Z=              0.0000  Tot=              2.1813
 Quadrupole moment (field-independent basis, Debye-Ang):
   XX=             -9.2351   YY=             18.8278   ZZ=            -14.9877
   XY=             -5.9058   XZ=              0.0000   YZ=              0.0000

 \MP4DQ=-33.8910338\MP4SDQ=-33.8930629\CCSD=-33.8941193\CCSD(T)=-33.896
 Normal termination of Gaussian 16 at Sun Dec 10 07:09:18 2023.
