 Gaussian 16, Revision A.03,
 Gaussian 16:  ES64L-G16RevA.03 25-Dec-2016

 ------------------
 #p CCSD(T)/CEP-31G
 ------------------

 -----------
 H2O_H2O_608
 -----------
 Symbolic Z-matrix:
 Charge =  0 Multiplicity = 1

                         Standard orientation:
 ---------------------------------------------------------------------
 Center     Atomic      Atomic             Coordinates (Angstroms)
 Number     Number       Type             X           Y           Z
 ---------------------------------------------------------------------
      1          8           0        0.028573   -1.114456    0.000000
      2          1           0       -0.772247   -1.683834    0.000000
      3          1           0        0.826891   -1.687338    0.000000
      4          8           0        0.028573    1.129634    0.000000
      5          1           0        0.437416    2.023141    0.000000
      6          1           0       -0.949232    1.226605    0.000000
 ---------------------------------------------------------------------

 SCF Done:  E(RHF) =  -33.6210628014     A.U. after   11 cycles
 E2 =    -0.2308792438D+00 EUMP2 =    -0.33851942045237D+02
 CCSD(T)
 CCSD(T)= -0.33869313146D+02

 The electronic state is 1-A'.
 Alpha  occ. eigenvalues --   -1.33142  -1.31428  -0.68613  -0.67288  -0.56129
 Alpha  occ. eigenvalues --   -0.47965  -0.45806  -0.45328
 Alpha virt. eigenvalues --    0.21102   0.25297   0.32475   0.33078   0.79597
 Alpha virt. eigenvalues --    0.80573   0.89741   0.95694   1.00858   1.13631
 Alpha virt. eigenvalues --    1.19648   1.23011   1.24671   1.28409   2.52283

 Mulliken charges:
               1
     1  O   -0.716383
     2  H    0.343385
     3  H    0.366142
     4  O   -0.689319
     5  H    0.348375
     6  H    0.347801
 Sum of Mulliken charges =  -0.00000

 Dipole moment (field-independent basis, Debye):
    X=             -1.1734    Y=             -0.3611    Z=              0.0000  Tot=              1.2277
 Quadrupole moment (field-independent basis, Debye-Ang):
   XX=             -8.7605   YY=             -2.0046   ZZ=            -15.0034
   XY=             -0.8677   XZ=              0.0000   YZ=              0.0000

 4DQ=-33.8632739\MP4SDQ=-33.8654483\CCSD=-33.8665113\CCSD(T)=-33.869313
 Normal termination of Gaussian 16 at Sun Dec 10 06:36:07 2023.
