 Gaussian 16, Revision A.03,
 Gaussian 16:  ES64L-G16RevA.03 25-Dec-2016

 ------------------
 #p CCSD(T)/CEP-31G
 ------------------

 ------------
 H2O_H2O_1924
 ------------
 Symbolic Z-matrix:
 Charge =  0 Multiplicity = 1

                         Standard orientation:
 ---------------------------------------------------------------------
 Center     Atomic      Atomic             Coordinates (Angstroms)
 Number     Number       Type             X           Y           Z
 ---------------------------------------------------------------------
      1          8           0        0.057268   -1.752220    0.000000
      2          1           0       -0.743852   -2.321177    0.000000
      3          1           0        0.855284   -2.325523    0.000000
      4          8           0        0.057268    1.866136    0.000000
      5          1           0       -0.511689    2.667256    0.000000
      6          1           0       -0.516035    1.068120    0.000000
 ---------------------------------------------------------------------

 SCF Done:  E(RHF) =  -33.6543529344     A.U. after   11 cycles
 E2 =    -0.2286632139D+00 EUMP2 =    -0.33883016148285D+02
 CCSD(T)
 CCSD(T)= -0.33899980770D+02

 The electronic state is 1-A'.
 Alpha  occ. eigenvalues --   -1.36239  -1.33370  -0.71884  -0.68934  -0.56134
 Alpha  occ. eigenvalues --   -0.53148  -0.50845  -0.47973
 Alpha virt. eigenvalues --    0.18994   0.23439   0.29825   0.33421   0.79106
 Alpha virt. eigenvalues --    0.79318   0.82939   0.85725   0.86831   0.96452
 Alpha virt. eigenvalues --    1.16701   1.20077   1.21236   1.27980   2.54191

 Mulliken charges:
               1
     1  O   -0.749444
     2  H    0.369021
     3  H    0.381916
     4  O   -0.748858
     5  H    0.356273
     6  H    0.391092
 Sum of Mulliken charges =   0.00000

 Dipole moment (field-independent basis, Debye):
    X=             -2.6030    Y=             -2.8102    Z=              0.0000  Tot=              3.8305
 Quadrupole moment (field-independent basis, Debye-Ang):
   XX=            -10.1465   YY=             -0.9153   ZZ=            -14.9951
   XY=             -5.1630   XZ=              0.0000   YZ=              0.0000

 \MP4DQ=-33.89429\MP4SDQ=-33.8963517\CCSD=-33.8973858\CCSD(T)=-33.89998
 Normal termination of Gaussian 16 at Sun Dec 10 07:00:54 2023.
