 Gaussian 16, Revision A.03,
 Gaussian 16:  ES64L-G16RevA.03 25-Dec-2016

 ------------------
 #p CCSD(T)/CEP-31G
 ------------------

 -----------
 H2O_H2O_842
 -----------
 Symbolic Z-matrix:
 Charge =  0 Multiplicity = 1

                         Standard orientation:
 ---------------------------------------------------------------------
 Center     Atomic      Atomic             Coordinates (Angstroms)
 Number     Number       Type             X           Y           Z
 ---------------------------------------------------------------------
      1          8           0        0.051336   -1.207960    0.000000
      2          1           0       -0.750261   -1.776244    0.000000
      3          1           0        0.848871   -1.781932    0.000000
      4          8           0        0.051336    1.271300    0.000000
      5          1           0       -0.103804    2.241577    0.000000
      6          1           0       -0.816185    0.809874    0.000000
 ---------------------------------------------------------------------

 SCF Done:  E(RHF) =  -33.6409196828     A.U. after   11 cycles
 E2 =    -0.2302731892D+00 EUMP2 =    -0.33871192872056D+02
 CCSD(T)
 CCSD(T)= -0.33888447310D+02

 The electronic state is 1-A'.
 Alpha  occ. eigenvalues --   -1.34961  -1.31824  -0.70624  -0.67873  -0.54720
 Alpha  occ. eigenvalues --   -0.50498  -0.49562  -0.46245
 Alpha virt. eigenvalues --    0.19814   0.25686   0.30923   0.33684   0.77968
 Alpha virt. eigenvalues --    0.83476   0.88418   0.90374   0.94037   1.15732
 Alpha virt. eigenvalues --    1.19227   1.21551   1.23118   1.30253   2.63129

 Mulliken charges:
               1
     1  O   -0.747117
     2  H    0.354548
     3  H    0.386067
     4  O   -0.701395
     5  H    0.336928
     6  H    0.370969
 Sum of Mulliken charges =  -0.00000

 Dipole moment (field-independent basis, Debye):
    X=             -2.1908    Y=             -1.6001    Z=              0.0000  Tot=              2.7130
 Quadrupole moment (field-independent basis, Debye-Ang):
   XX=             -9.7596   YY=             -2.0081   ZZ=            -14.9954
   XY=             -2.5156   XZ=              0.0000   YZ=              0.0000

 P4DQ=-33.8824954\MP4SDQ=-33.8846683\CCSD=-33.8857064\CCSD(T)=-33.88844
 Normal termination of Gaussian 16 at Sun Dec 10 06:40:30 2023.
