 Gaussian 16, Revision A.03,
 Gaussian 16:  ES64L-G16RevA.03 25-Dec-2016

 ------------------
 #p CCSD(T)/CEP-31G
 ------------------

 -----------
 H2O_H2O_302
 -----------
 Symbolic Z-matrix:
 Charge =  0 Multiplicity = 1

                         Standard orientation:
 ---------------------------------------------------------------------
 Center     Atomic      Atomic             Coordinates (Angstroms)
 Number     Number       Type             X           Y           Z
 ---------------------------------------------------------------------
      1          8           0        0.007455   -0.962624    0.000000
      2          1           0       -0.792496   -1.533224    0.000000
      3          1           0        0.806646   -1.534289    0.000000
      4          8           0        0.007455    0.963592    0.000000
      5          1           0        0.726085    1.633723    0.000000
      6          1           0       -0.859516    1.426050    0.000000
 ---------------------------------------------------------------------

 SCF Done:  E(RHF) =  -33.5761815478     A.U. after   11 cycles
 E2 =    -0.2333523762D+00 EUMP2 =    -0.33809533924040D+02
 CCSD(T)
 CCSD(T)= -0.33826550799D+02

 The electronic state is 1-A'.
 Alpha  occ. eigenvalues --   -1.33626  -1.30027  -0.68522  -0.66082  -0.60249
 Alpha  occ. eigenvalues --   -0.48603  -0.43576  -0.39194
 Alpha virt. eigenvalues --    0.21513   0.26564   0.32687   0.33545   0.78602
 Alpha virt. eigenvalues --    0.81299   0.90180   0.92848   1.06009   1.20321
 Alpha virt. eigenvalues --    1.21808   1.23323   1.27487   1.27950   2.48118

 Mulliken charges:
               1
     1  O   -0.699138
     2  H    0.344478
     3  H    0.353931
     4  O   -0.696290
     5  H    0.350401
     6  H    0.346618
 Sum of Mulliken charges =   0.00000

 Dipole moment (field-independent basis, Debye):
    X=             -0.2832    Y=             -0.0234    Z=              0.0000  Tot=              0.2842
 Quadrupole moment (field-independent basis, Debye-Ang):
   XX=             -8.4015   YY=             -4.5850   ZZ=            -15.0327
   XY=             -0.1568   XZ=              0.0000   YZ=              0.0000

 4DQ=-33.8202165\MP4SDQ=-33.822564\CCSD=-33.8234935\CCSD(T)=-33.8265508
 Normal termination of Gaussian 16 at Sun Dec 10 06:30:25 2023.
