 Gaussian 16, Revision A.03,
 Gaussian 16:  ES64L-G16RevA.03 25-Dec-2016

 ------------------
 #p CCSD(T)/CEP-31G
 ------------------

 ------------
 H2O_H2O_4171
 ------------
 Symbolic Z-matrix:
 Charge =  0 Multiplicity = 1

                         Standard orientation:
 ---------------------------------------------------------------------
 Center     Atomic      Atomic             Coordinates (Angstroms)
 Number     Number       Type             X           Y           Z
 ---------------------------------------------------------------------
      1          8           0        0.056089   -2.960885    0.000000
      2          1           0       -0.744396   -3.530734    0.000000
      3          1           0        0.854743   -3.533299    0.000000
      4          8           0        0.056089    3.052647    0.000000
      5          1           0       -0.346643    3.948924    0.000000
      6          1           0       -0.661136    2.381011    0.000000
 ---------------------------------------------------------------------

 SCF Done:  E(RHF) =  -33.6518613523     A.U. after   11 cycles
 E2 =    -0.2283856450D+00 EUMP2 =    -0.33880246997284D+02
 CCSD(T)
 CCSD(T)= -0.33897244904D+02

 The electronic state is 1-A'.
 Alpha  occ. eigenvalues --   -1.35612  -1.34856  -0.71245  -0.70474  -0.55352
 Alpha  occ. eigenvalues --   -0.54585  -0.50185  -0.49429
 Alpha virt. eigenvalues --    0.20162   0.20942   0.30404   0.31173   0.80367
 Alpha virt. eigenvalues --    0.81111   0.83381   0.84150   0.86499   0.87322
 Alpha virt. eigenvalues --    1.17293   1.18045   1.21750   1.22518   2.57307

 Mulliken charges:
               1
     1  O   -0.741400
     2  H    0.369134
     3  H    0.372265
     4  O   -0.741099
     5  H    0.367052
     6  H    0.374047
 Sum of Mulliken charges =  -0.00000

 Dipole moment (field-independent basis, Debye):
    X=             -2.5871    Y=             -2.1504    Z=              0.0000  Tot=              3.3641
 Quadrupole moment (field-independent basis, Debye-Ang):
   XX=            -10.0820   YY=              8.7334   ZZ=            -14.9890
   XY=             -7.7104   XZ=              0.0000   YZ=              0.0000

 \MP4DQ=-33.8916013\MP4SDQ=-33.8936288\CCSD=-33.8946837\CCSD(T)=-33.897
 Normal termination of Gaussian 16 at Sun Dec 10 06:55:12 2023.
