 Gaussian 16, Revision A.03,
 Gaussian 16:  ES64L-G16RevA.03 25-Dec-2016

 ------------------
 #p CCSD(T)/CEP-31G
 ------------------

 ------------
 H2O_H2O_4656
 ------------
 Symbolic Z-matrix:
 Charge =  0 Multiplicity = 1

                         Standard orientation:
 ---------------------------------------------------------------------
 Center     Atomic      Atomic             Coordinates (Angstroms)
 Number     Number       Type             X           Y           Z
 ---------------------------------------------------------------------
      1          8           0        0.021859   -3.271930    0.000000
      2          1           0       -0.778040   -3.842602    0.000000
      3          1           0        0.821102   -3.843521    0.000000
      4          8           0        0.021859    3.280599    0.000000
      5          1           0        0.542482    4.113941    0.000000
      6          1           0       -0.935284    3.502823    0.000000
 ---------------------------------------------------------------------

 SCF Done:  E(RHF) =  -33.6508299040     A.U. after   11 cycles
 E2 =    -0.2284296835D+00 EUMP2 =    -0.33879259587510D+02
 CCSD(T)
 CCSD(T)= -0.33896287561D+02

 The electronic state is 1-A'.
 Alpha  occ. eigenvalues --   -1.35090  -1.35029  -0.70718  -0.70656  -0.54771
 Alpha  occ. eigenvalues --   -0.54711  -0.49646  -0.49586
 Alpha virt. eigenvalues --    0.20629   0.20690   0.30862   0.30921   0.80907
 Alpha virt. eigenvalues --    0.80967   0.84024   0.84083   0.87101   0.87172
 Alpha virt. eigenvalues --    1.17771   1.17831   1.22237   1.22297   2.57812

 Mulliken charges:
               1
     1  O   -0.737700
     2  H    0.368334
     3  H    0.369367
     4  O   -0.737619
     5  H    0.368057
     6  H    0.369562
 Sum of Mulliken charges =   0.00000

 Dipole moment (field-independent basis, Debye):
    X=             -1.0093    Y=             -0.2026    Z=              0.0000  Tot=              1.0294
 Quadrupole moment (field-independent basis, Debye-Ang):
   XX=             -8.3465   YY=             21.7206   ZZ=            -14.9870
   XY=             -2.6865   XZ=              0.0000   YZ=              0.0000

 \MP4DQ=-33.890636\MP4SDQ=-33.8926662\CCSD=-33.8937234\CCSD(T)=-33.8962
 Normal termination of Gaussian 16 at Sun Dec 10 07:05:28 2023.
