 Gaussian 16, Revision A.03,
 Gaussian 16:  ES64L-G16RevA.03 25-Dec-2016

 ------------------
 #p CCSD(T)/CEP-31G
 ------------------

 ------------
 H2O_H2O_1950
 ------------
 Symbolic Z-matrix:
 Charge =  0 Multiplicity = 1

                         Standard orientation:
 ---------------------------------------------------------------------
 Center     Atomic      Atomic             Coordinates (Angstroms)
 Number     Number       Type             X           Y           Z
 ---------------------------------------------------------------------
      1          8           0        0.000000   -0.000000    1.840680
      2          1           0        0.000000    0.799571    2.411812
      3          1           0       -0.000000   -0.799571    2.411812
      4          8           0        0.000000   -0.000000   -1.840680
      5          1           0       -0.000000   -0.799571   -2.411812
      6          1           0        0.000000    0.799571   -2.411812
 ---------------------------------------------------------------------

 SCF Done:  E(RHF) =  -33.6458005909     A.U. after   10 cycles
 E2 =    -0.2288031895D+00 EUMP2 =    -0.33874603780333D+02
 CCSD(T)
 CCSD(T)= -0.33891787646D+02

 The electronic state is 1-AG.
 Alpha  occ. eigenvalues --   -1.33916  -1.33888  -0.69536  -0.69505  -0.53688
 Alpha  occ. eigenvalues --   -0.52854  -0.48450  -0.48325
 Alpha virt. eigenvalues --    0.21103   0.22002   0.31644   0.31923   0.77831
 Alpha virt. eigenvalues --    0.81151   0.83159   0.86226   0.90992   0.96348
 Alpha virt. eigenvalues --    1.18748   1.18776   1.23084   1.23515   2.58217

 Mulliken charges:
               1
     1  O   -0.720867
     2  H    0.360433
     3  H    0.360433
     4  O   -0.720867
     5  H    0.360433
     6  H    0.360433
 Sum of Mulliken charges =   0.00000

 Dipole moment (field-independent basis, Debye):
    X=             -0.0000    Y=              0.0000    Z=              0.0000  Tot=              0.0000
 Quadrupole moment (field-independent basis, Debye-Ang):
   XX=            -14.9835   YY=             -8.1140   ZZ=              7.2500
   XY=              0.0000   XZ=              0.0000   YZ=             -0.0000

 33.8860739\MP4SDQ=-33.888132\CCSD=-33.8891924\CCSD(T)=-33.8917876\RMSD
 Normal termination of Gaussian 16 at Sun Dec 10 07:01:36 2023.
