 Gaussian 16, Revision A.03,
 Gaussian 16:  ES64L-G16RevA.03 25-Dec-2016

 ------------------
 #p CCSD(T)/CEP-31G
 ------------------

 ------------
 H2O_H2O_1103
 ------------
 Symbolic Z-matrix:
 Charge =  0 Multiplicity = 1

                         Standard orientation:
 ---------------------------------------------------------------------
 Center     Atomic      Atomic             Coordinates (Angstroms)
 Number     Number       Type             X           Y           Z
 ---------------------------------------------------------------------
      1          8           0        0.011143   -1.387435    0.000000
      2          1           0       -0.788822   -1.958015    0.000000
      3          1           0        0.810319   -1.959119    0.000000
      4          8           0        0.011143    1.389615    0.000000
      5          1           0        0.684422    2.105296    0.000000
      6          1           0       -0.884208    1.794402    0.000000
 ---------------------------------------------------------------------

 SCF Done:  E(RHF) =  -33.6373515059     A.U. after   11 cycles
 E2 =    -0.2294994869D+00 EUMP2 =    -0.33866850992776D+02
 CCSD(T)
 CCSD(T)= -0.33884265508D+02

 The electronic state is 1-A'.
 Alpha  occ. eigenvalues --   -1.33046  -1.32694  -0.68624  -0.68334  -0.54002
 Alpha  occ. eigenvalues --   -0.49756  -0.47677  -0.46856
 Alpha virt. eigenvalues --    0.21354   0.23465   0.32337   0.32666   0.79591
 Alpha virt. eigenvalues --    0.80779   0.82120   0.87300   1.00803   1.09734
 Alpha virt. eigenvalues --    1.19408   1.20509   1.24325   1.24363   2.58413

 Mulliken charges:
               1
     1  O   -0.704777
     2  H    0.349563
     3  H    0.354989
     4  O   -0.703335
     5  H    0.350327
     6  H    0.353233
 Sum of Mulliken charges =   0.00000

 Dipole moment (field-independent basis, Debye):
    X=             -0.4897    Y=             -0.0538    Z=              0.0000  Tot=              0.4927
 Quadrupole moment (field-independent basis, Debye-Ang):
   XX=             -8.2834   YY=              1.8695   ZZ=            -14.9877
   XY=             -0.4221   XZ=              0.0000   YZ=              0.0000

 MP4DQ=-33.8784142\MP4SDQ=-33.8805096\CCSD=-33.8815994\CCSD(T)=-33.8842
 Normal termination of Gaussian 16 at Sun Dec 10 06:45:23 2023.
