 Gaussian 16, Revision A.03,
 Gaussian 16:  ES64L-G16RevA.03 25-Dec-2016

 ------------------
 #p CCSD(T)/CEP-31G
 ------------------

 ------------
 H2O_H2O_4703
 ------------
 Symbolic Z-matrix:
 Charge =  0 Multiplicity = 1

                         Standard orientation:
 ---------------------------------------------------------------------
 Center     Atomic      Atomic             Coordinates (Angstroms)
 Number     Number       Type             X           Y           Z
 ---------------------------------------------------------------------
      1          8           0        0.011143   -3.302041    0.000000
      2          1           0       -0.788594   -3.872941    0.000000
      3          1           0        0.810548   -3.873406    0.000000
      4          8           0        0.011143    3.304230    0.000000
      5          1           0        0.684135    4.020180    0.000000
      6          1           0       -0.884370    3.708659    0.000000
 ---------------------------------------------------------------------

 SCF Done:  E(RHF) =  -33.6507762651     A.U. after   11 cycles
 E2 =    -0.2284311250D+00 EUMP2 =    -0.33879207390110D+02
 CCSD(T)
 CCSD(T)= -0.33896236909D+02

 The electronic state is 1-A'.
 Alpha  occ. eigenvalues --   -1.35057  -1.35042  -0.70685  -0.70670  -0.54736
 Alpha  occ. eigenvalues --   -0.54721  -0.49613  -0.49598
 Alpha virt. eigenvalues --    0.20658   0.20674   0.30891   0.30905   0.80941
 Alpha virt. eigenvalues --    0.80956   0.84063   0.84078   0.87138   0.87156
 Alpha virt. eigenvalues --    1.17801   1.17816   1.22267   1.22282   2.57843

 Mulliken charges:
               1
     1  O   -0.737505
     2  H    0.368495
     3  H    0.369011
     4  O   -0.737484
     5  H    0.368375
     6  H    0.369109
 Sum of Mulliken charges =   0.00000

 Dipole moment (field-independent basis, Debye):
    X=             -0.5145    Y=             -0.0511    Z=              0.0000  Tot=              0.5171
 Quadrupole moment (field-independent basis, Debye-Ang):
   XX=             -8.1166   YY=             22.7886   ZZ=            -14.9869
   XY=             -1.3597   XZ=              0.0000   YZ=              0.0000

 \MP4DQ=-33.8905849\MP4SDQ=-33.8926152\CCSD=-33.8936726\CCSD(T)=-33.896
 Normal termination of Gaussian 16 at Sun Dec 10 07:06:20 2023.
