 Gaussian 16, Revision A.03,
 Gaussian 16:  ES64L-G16RevA.03 25-Dec-2016

 ------------------
 #p CCSD(T)/CEP-31G
 ------------------

 ------------
 H2O_H2O_2572
 ------------
 Symbolic Z-matrix:
 Charge =  0 Multiplicity = 1

                         Standard orientation:
 ---------------------------------------------------------------------
 Center     Atomic      Atomic             Coordinates (Angstroms)
 Number     Number       Type             X           Y           Z
 ---------------------------------------------------------------------
      1          8           0        0.056737   -2.105982    0.000000
      2          1           0       -0.744124   -2.675305    0.000000
      3          1           0        0.855014   -2.678921    0.000000
      4          8           0        0.056737    2.205043    0.000000
      5          1           0       -0.403182    3.073364    0.000000
      6          1           0       -0.615497    1.488378    0.000000
 ---------------------------------------------------------------------

 SCF Done:  E(RHF) =  -33.6525192148     A.U. after   11 cycles
 E2 =    -0.2284606175D+00 EUMP2 =    -0.33880979832235D+02
 CCSD(T)
 CCSD(T)= -0.33897961547D+02

 The electronic state is 1-A'.
 Alpha  occ. eigenvalues --   -1.35780  -1.34101  -0.71417  -0.69684  -0.55558
 Alpha  occ. eigenvalues --   -0.53836  -0.50361  -0.48683
 Alpha virt. eigenvalues --    0.19711   0.22016   0.30227   0.32031   0.80172
 Alpha virt. eigenvalues --    0.81807   0.81859   0.85430   0.86210   0.89491
 Alpha virt. eigenvalues --    1.17148   1.19013   1.21543   1.23980   2.57019

 Mulliken charges:
               1
     1  O   -0.743484
     2  H    0.367942
     3  H    0.375863
     4  O   -0.742419
     5  H    0.361642
     6  H    0.380455
 Sum of Mulliken charges =   0.00000

 Dipole moment (field-independent basis, Debye):
    X=             -2.5993    Y=             -2.3762    Z=              0.0000  Tot=              3.5218
 Quadrupole moment (field-independent basis, Debye-Ang):
   XX=            -10.1187   YY=              2.5158   ZZ=            -14.9910
   XY=             -5.7333   XZ=              0.0000   YZ=              0.0000

 P4DQ=-33.8923126\MP4SDQ=-33.8943468\CCSD=-33.895394\CCSD(T)=-33.897961
 Normal termination of Gaussian 16 at Sun Dec 10 06:26:04 2023.
