 Gaussian 16, Revision A.03,
 Gaussian 16:  ES64L-G16RevA.03 25-Dec-2016

 ------------------
 #p CCSD(T)/CEP-31G
 ------------------

 ------------
 H2O_H2O_1315
 ------------
 Symbolic Z-matrix:
 Charge =  0 Multiplicity = 1

                         Standard orientation:
 ---------------------------------------------------------------------
 Center     Atomic      Atomic             Coordinates (Angstroms)
 Number     Number       Type             X           Y           Z
 ---------------------------------------------------------------------
      1          8           0        0.047557   -1.467554    0.000000
      2          1           0       -0.753575   -2.036494    0.000000
      3          1           0        0.845561   -2.040873    0.000000
      4          8           0        0.047557    1.518059    0.000000
      5          1           0        0.019586    2.500263    0.000000
      6          1           0       -0.872488    1.173062    0.000000
 ---------------------------------------------------------------------

 SCF Done:  E(RHF) =  -33.6466775310     A.U. after   11 cycles
 E2 =    -0.2293120521D+00 EUMP2 =    -0.33875989583115D+02
 CCSD(T)
 CCSD(T)= -0.33893222819D+02

 The electronic state is 1-A'.
 Alpha  occ. eigenvalues --   -1.34646  -1.32889  -0.70283  -0.68466  -0.54445
 Alpha  occ. eigenvalues --   -0.52020  -0.49184  -0.47388
 Alpha virt. eigenvalues --    0.20059   0.23840   0.31126   0.32740   0.77097
 Alpha virt. eigenvalues --    0.79065   0.84854   0.85672   0.90873   1.13542
 Alpha virt. eigenvalues --    1.18010   1.21840   1.22671   1.26007   2.59708

 Mulliken charges:
               1
     1  O   -0.729739
     2  H    0.355466
     3  H    0.373932
     4  O   -0.716715
     5  H    0.346598
     6  H    0.370457
 Sum of Mulliken charges =  -0.00000

 Dipole moment (field-independent basis, Debye):
    X=             -2.1129    Y=             -1.2638    Z=              0.0000  Tot=              2.4620
 Quadrupole moment (field-independent basis, Debye-Ang):
   XX=             -9.5277   YY=              1.0777   ZZ=            -14.9888
   XY=             -2.6818   XZ=              0.0000   YZ=              0.0000

 2\MP4DQ=-33.8874262\MP4SDQ=-33.8895329\CCSD=-33.8905864\CCSD(T)=-33.89
 Normal termination of Gaussian 16 at Sun Dec 10 06:49:20 2023.
