 Gaussian 16, Revision A.03,
 Gaussian 16:  ES64L-G16RevA.03 25-Dec-2016

 ------------------
 #p CCSD(T)/CEP-31G
 ------------------

 ------------
 H2O_H2O_2185
 ------------
 Symbolic Z-matrix:
 Charge =  0 Multiplicity = 1

                         Standard orientation:
 ---------------------------------------------------------------------
 Center     Atomic      Atomic             Coordinates (Angstroms)
 Number     Number       Type             X           Y           Z
 ---------------------------------------------------------------------
      1          8           0        0.034786   -1.947580    0.000000
      2          1           0       -0.765656   -2.517490    0.000000
      3          1           0        0.833484   -2.519933    0.000000
      4          8           0        0.034786    1.971078    0.000000
      5          1           0        0.322882    2.910497    0.000000
      6          1           0       -0.947290    1.938940    0.000000
 ---------------------------------------------------------------------

 SCF Done:  E(RHF) =  -33.6482066378     A.U. after   11 cycles
 E2 =    -0.2286913350D+00 EUMP2 =    -0.33876897972768D+02
 CCSD(T)
 CCSD(T)= -0.33894007458D+02

 The electronic state is 1-A'.
 Alpha  occ. eigenvalues --   -1.34502  -1.34025  -0.70127  -0.69624  -0.54102
 Alpha  occ. eigenvalues --   -0.53463  -0.49024  -0.48546
 Alpha virt. eigenvalues --    0.20754   0.21849   0.31305   0.31757   0.78930
 Alpha virt. eigenvalues --    0.81106   0.82412   0.86199   0.88398   0.94574
 Alpha virt. eigenvalues --    1.18251   1.18770   1.22743   1.23247   2.58099

 Mulliken charges:
               1
     1  O   -0.728853
     2  H    0.361138
     3  H    0.367824
     4  O   -0.726892
     5  H    0.358910
     6  H    0.367872
 Sum of Mulliken charges =   0.00000

 Dipole moment (field-independent basis, Debye):
    X=             -1.5866    Y=             -0.5688    Z=              0.0000  Tot=              1.6855
 Quadrupole moment (field-independent basis, Debye-Ang):
   XX=             -8.8521   YY=              7.1137   ZZ=            -14.9854
   XY=             -2.3806   XZ=              0.0000   YZ=              0.0000

 MP4DQ=-33.888322\MP4SDQ=-33.8903691\CCSD=-33.8914244\CCSD(T)=-33.89400
 Normal termination of Gaussian 16 at Sun Dec 10 07:06:44 2023.
