 Gaussian 16, Revision A.03,
 Gaussian 16:  ES64L-G16RevA.03 25-Dec-2016

 ------------------
 #p CCSD(T)/CEP-31G
 ------------------

 ------------
 H2O_H2O_3821
 ------------
 Symbolic Z-matrix:
 Charge =  0 Multiplicity = 1

                         Standard orientation:
 ---------------------------------------------------------------------
 Center     Atomic      Atomic             Coordinates (Angstroms)
 Number     Number       Type             X           Y           Z
 ---------------------------------------------------------------------
      1          8           0        0.056094   -2.774749    0.000000
      2          1           0       -0.744452   -3.344513    0.000000
      3          1           0        0.854688   -3.347247    0.000000
      4          8           0        0.056094    2.866499    0.000000
      5          1           0       -0.346543    3.762819    0.000000
      6          1           0       -0.661202    2.194939    0.000000
 ---------------------------------------------------------------------

 SCF Done:  E(RHF) =  -33.6518846346     A.U. after   11 cycles
 E2 =    -0.2283906849D+00 EUMP2 =    -0.33880275319464D+02
 CCSD(T)
 CCSD(T)= -0.33897272535D+02

 The electronic state is 1-A'.
 Alpha  occ. eigenvalues --   -1.35616  -1.34750  -0.71249  -0.70364  -0.55357
 Alpha  occ. eigenvalues --   -0.54477  -0.50189  -0.49323
 Alpha virt. eigenvalues --    0.20157   0.21057   0.30401   0.31284   0.80364
 Alpha virt. eigenvalues --    0.81214   0.83365   0.84261   0.86493   0.87447
 Alpha virt. eigenvalues --    1.17290   1.18151   1.21747   1.22629   2.57301

 Mulliken charges:
               1
     1  O   -0.741490
     2  H    0.368872
     3  H    0.372619
     4  O   -0.741079
     5  H    0.366344
     6  H    0.374734
 Sum of Mulliken charges =   0.00000

 Dipole moment (field-independent basis, Debye):
    X=             -2.5853    Y=             -2.1557    Z=              0.0000  Tot=              3.3661
 Quadrupole moment (field-independent basis, Debye-Ang):
   XX=            -10.0810   YY=              7.5375   ZZ=            -14.9891
   XY=             -7.2331   XZ=              0.0000   YZ=              0.0000

 \MP4DQ=-33.891629\MP4SDQ=-33.8936566\CCSD=-33.8947111\CCSD(T)=-33.8972
 Normal termination of Gaussian 16 at Sun Dec 10 06:48:47 2023.
