 Gaussian 16, Revision A.03,
 Gaussian 16:  ES64L-G16RevA.03 25-Dec-2016

 ------------------
 #p CCSD(T)/CEP-31G
 ------------------

 -----------
 H2O_H2O_634
 -----------
 Symbolic Z-matrix:
 Charge =  0 Multiplicity = 1

                         Standard orientation:
 ---------------------------------------------------------------------
 Center     Atomic      Atomic             Coordinates (Angstroms)
 Number     Number       Type             X           Y           Z
 ---------------------------------------------------------------------
      1          8           0        0.031753   -1.125622    0.000000
      2          1           0       -0.769189   -1.694829    0.000000
      3          1           0        0.829948   -1.698677    0.000000
      4          8           0        0.031753    1.144720    0.000000
      5          1           0        0.381479    2.062978    0.000000
      6          1           0       -0.950293    1.177744    0.000000
 ---------------------------------------------------------------------

 SCF Done:  E(RHF) =  -33.6237237282     A.U. after   11 cycles
 E2 =    -0.2307760943D+00 EUMP2 =    -0.33854499822482D+02
 CCSD(T)
 CCSD(T)= -0.33871883841D+02

 The electronic state is 1-A'.
 Alpha  occ. eigenvalues --   -1.33254  -1.31533  -0.68759  -0.67394  -0.55887
 Alpha  occ. eigenvalues --   -0.48052  -0.46383  -0.45487
 Alpha virt. eigenvalues --    0.20981   0.25279   0.32358   0.33047   0.79423
 Alpha virt. eigenvalues --    0.81129   0.89619   0.94631   1.00710   1.13472
 Alpha virt. eigenvalues --    1.19507   1.22890   1.24525   1.28926   2.52958

 Mulliken charges:
               1
     1  O   -0.720071
     2  H    0.344037
     3  H    0.368208
     4  O   -0.688430
     5  H    0.347225
     6  H    0.349031
 Sum of Mulliken charges =  -0.00000

 Dipole moment (field-independent basis, Debye):
    X=             -1.3118    Y=             -0.4572    Z=              0.0000  Tot=              1.3892
 Quadrupole moment (field-independent basis, Debye-Ang):
   XX=             -8.8652   YY=             -1.8884   ZZ=            -15.0009
   XY=             -1.0178   XZ=              0.0000   YZ=              0.0000

 4DQ=-33.8658572\MP4SDQ=-33.8680301\CCSD=-33.8690952\CCSD(T)=-33.871883
 Normal termination of Gaussian 16 at Sun Dec 10 06:36:35 2023.
