 Gaussian 16, Revision A.03,
 Gaussian 16:  ES64L-G16RevA.03 25-Dec-2016

 ------------------
 #p CCSD(T)/CEP-31G
 ------------------

 -----------
 H2O_H2O_208
 -----------
 Symbolic Z-matrix:
 Charge =  0 Multiplicity = 1

                         Standard orientation:
 ---------------------------------------------------------------------
 Center     Atomic      Atomic             Coordinates (Angstroms)
 Number     Number       Type             X           Y           Z
 ---------------------------------------------------------------------
      1          8           0        0.028577   -0.901736    0.000000
      2          1           0       -0.772535   -1.470704    0.000000
      3          1           0        0.826601   -1.475028    0.000000
      4          8           0        0.028577    0.916885    0.000000
      5          1           0        0.437878    1.810182    0.000000
      6          1           0       -0.949178    1.014358    0.000000
 ---------------------------------------------------------------------

 SCF Done:  E(RHF) =  -33.5553375400     A.U. after   11 cycles
 E2 =    -0.2345568373D+00 EUMP2 =    -0.33789894377327D+02
 CCSD(T)
 CCSD(T)= -0.33806835080D+02

 The electronic state is 1-A'.
 Alpha  occ. eigenvalues --   -1.35052  -1.29671  -0.70017  -0.66910  -0.60429
 Alpha  occ. eigenvalues --   -0.49889  -0.43324  -0.38045
 Alpha virt. eigenvalues --    0.20955   0.27452   0.31991   0.33513   0.81421
 Alpha virt. eigenvalues --    0.82268   0.89802   0.93215   1.01541   1.19688
 Alpha virt. eigenvalues --    1.21538   1.24145   1.27202   1.33187   2.50373

 Mulliken charges:
               1
     1  O   -0.723427
     2  H    0.337907
     3  H    0.374583
     4  O   -0.677773
     5  H    0.346883
     6  H    0.341828
 Sum of Mulliken charges =   0.00000

 Dipole moment (field-independent basis, Debye):
    X=             -1.0665    Y=             -0.3803    Z=              0.0000  Tot=              1.1323
 Quadrupole moment (field-independent basis, Debye-Ang):
   XX=             -8.8551   YY=             -5.7011   ZZ=            -15.0118
   XY=             -0.6781   XZ=              0.0000   YZ=              0.0000

 MP4DQ=-33.8003447\MP4SDQ=-33.8028271\CCSD=-33.8036635\CCSD(T)=-33.8068
 Normal termination of Gaussian 16 at Sun Dec 10 06:28:38 2023.
