 Gaussian 16, Revision A.03,
 Gaussian 16:  ES64L-G16RevA.03 25-Dec-2016

 ------------------
 #p CCSD(T)/CEP-31G
 ------------------

 -----------
 H2O_H2O_198
 -----------
 Symbolic Z-matrix:
 Charge =  0 Multiplicity = 1

                         Standard orientation:
 ---------------------------------------------------------------------
 Center     Atomic      Atomic             Coordinates (Angstroms)
 Number     Number       Type             X           Y           Z
 ---------------------------------------------------------------------
      1          8           0        0.057284   -0.839025    0.000000
      2          1           0       -0.745416   -1.405751    0.000000
      3          1           0        0.853702   -1.414546    0.000000
      4          8           0        0.057284    0.945152    0.000000
      5          1           0       -0.455730    1.783200    0.000000
      6          1           0       -0.569093    0.188080    0.000000
 ---------------------------------------------------------------------

 SCF Done:  E(RHF) =  -33.5087332956     A.U. after   11 cycles
 E2 =    -0.2339277580D+00 EUMP2 =    -0.33742661053556D+02
 CCSD(T)
 CCSD(T)= -0.33758145789D+02

 The electronic state is 1-A'.
 Alpha  occ. eigenvalues --   -1.43356  -1.27822  -0.80058  -0.73180  -0.55649
 Alpha  occ. eigenvalues --   -0.48769  -0.44807  -0.42181
 Alpha virt. eigenvalues --    0.18468   0.27055   0.30682   0.38347   0.77762
 Alpha virt. eigenvalues --    0.84048   0.90634   0.93055   0.97828   1.15709
 Alpha virt. eigenvalues --    1.17575   1.25430   1.33009   1.37921   2.86794

 Mulliken charges:
               1
     1  O   -0.784278
     2  H    0.368666
     3  H    0.460457
     4  O   -0.691217
     5  H    0.281257
     6  H    0.365115
 Sum of Mulliken charges =  -0.00000

 Dipole moment (field-independent basis, Debye):
    X=             -2.0932    Y=             -3.2089    Z=              0.0000  Tot=              3.8312
 Quadrupole moment (field-independent basis, Debye-Ang):
   XX=            -10.0834   YY=             -8.0751   ZZ=            -14.9145
   XY=             -2.4438   XZ=              0.0000   YZ=              0.0000

 \MP4DQ=-33.7514264\MP4SDQ=-33.7540566\CCSD=-33.754648\CCSD(T)=-33.7581
 Normal termination of Gaussian 16 at Sun Dec 10 06:28:27 2023.
