 Gaussian 16, Revision A.03,
 Gaussian 16:  ES64L-G16RevA.03 25-Dec-2016

 ------------------
 #p CCSD(T)/CEP-31G
 ------------------

 ------------
 H2O_H2O_4985
 ------------
 Symbolic Z-matrix:
 Charge =  0 Multiplicity = 1

                         Standard orientation:
 ---------------------------------------------------------------------
 Center     Atomic      Atomic             Coordinates (Angstroms)
 Number     Number       Type             X           Y           Z
 ---------------------------------------------------------------------
      1          8           0        0.034779   -3.436698    0.000000
      2          1           0       -0.765288   -4.007136    0.000000
      3          1           0        0.833854   -4.008524    0.000000
      4          8           0        0.034779    3.460242    0.000000
      5          1           0        0.322254    4.399851    0.000000
      6          1           0       -0.947276    3.427456    0.000000
 ---------------------------------------------------------------------

 SCF Done:  E(RHF) =  -33.6511287881     A.U. after   11 cycles
 E2 =    -0.2284144499D+00 EUMP2 =    -0.33879543237984D+02
 CCSD(T)
 CCSD(T)= -0.33896562648D+02

 The electronic state is 1-A'.
 Alpha  occ. eigenvalues --   -1.35227  -1.35079  -0.70856  -0.70705  -0.54925
 Alpha  occ. eigenvalues --   -0.54777  -0.49788  -0.49641
 Alpha virt. eigenvalues --    0.20508   0.20658   0.30743   0.30889   0.80765
 Alpha virt. eigenvalues --    0.80911   0.83853   0.83998   0.86942   0.87109
 Alpha virt. eigenvalues --    1.17647   1.17793   1.22110   1.22257   2.57680

 Mulliken charges:
               1
     1  O   -0.738763
     2  H    0.368675
     3  H    0.370088
     4  O   -0.738615
     5  H    0.368195
     6  H    0.370419
 Sum of Mulliken charges =  -0.00000

 Dipole moment (field-independent basis, Debye):
    X=             -1.6065    Y=             -0.5494    Z=              0.0000  Tot=              1.6978
 Quadrupole moment (field-independent basis, Debye-Ang):
   XX=             -8.8206   YY=             21.5197   ZZ=            -14.9875
   XY=             -4.7156   XZ=              0.0000   YZ=              0.0000

 \MP4DQ=-33.8909134\MP4SDQ=-33.8929428\CCSD=-33.8939995\CCSD(T)=-33.896
 Normal termination of Gaussian 16 at Sun Dec 10 07:11:34 2023.
