 Gaussian 16, Revision A.03,
 Gaussian 16:  ES64L-G16RevA.03 25-Dec-2016

 ------------------
 #p CCSD(T)/CEP-31G
 ------------------

 ------------
 H2O_H2O_4405
 ------------
 Symbolic Z-matrix:
 Charge =  0 Multiplicity = 1

                         Standard orientation:
 ---------------------------------------------------------------------
 Center     Atomic      Atomic             Coordinates (Angstroms)
 Number     Number       Type             X           Y           Z
 ---------------------------------------------------------------------
      1          8           0        0.018360   -3.140397    0.000000
      2          1           0       -0.781498   -3.711127    0.000000
      3          1           0        0.817644   -3.711931    0.000000
      4          8           0        0.018360    3.146440    0.000000
      5          1           0        0.592315    3.943988    0.000000
      6          1           0       -0.922219    3.430722    0.000000
 ---------------------------------------------------------------------

 SCF Done:  E(RHF) =  -33.6506615808     A.U. after   11 cycles
 E2 =    -0.2284392298D+00 EUMP2 =    -0.33879100810651D+02
 CCSD(T)
 CCSD(T)= -0.33896133593D+02

 The electronic state is 1-A'.
 Alpha  occ. eigenvalues --   -1.35027  -1.34981  -0.70654  -0.70607  -0.54699
 Alpha  occ. eigenvalues --   -0.54653  -0.49581  -0.49535
 Alpha virt. eigenvalues --    0.20683   0.20729   0.30914   0.30959   0.80973
 Alpha virt. eigenvalues --    0.81018   0.84106   0.84154   0.87176   0.87231
 Alpha virt. eigenvalues --    1.17827   1.17873   1.22294   1.22340   2.57872

 Mulliken charges:
               1
     1  O   -0.737109
     2  H    0.368067
     3  H    0.369042
     4  O   -0.737038
     5  H    0.367824
     6  H    0.369214
 Sum of Mulliken charges =   0.00000

 Dipole moment (field-independent basis, Debye):
    X=             -0.8474    Y=             -0.1414    Z=              0.0000  Tot=              0.8591
 Quadrupole moment (field-independent basis, Debye-Ang):
   XX=             -8.2571   YY=             20.6577   ZZ=            -14.9868
   XY=             -2.1297   XZ=              0.0000   YZ=              0.0000

 \MP4DQ=-33.8904807\MP4SDQ=-33.8925113\CCSD=-33.8935689\CCSD(T)=-33.896
 Normal termination of Gaussian 16 at Sun Dec 10 06:59:18 2023.
