 Gaussian 16, Revision A.03,
 Gaussian 16:  ES64L-G16RevA.03 25-Dec-2016

 ------------------
 #p CCSD(T)/CEP-31G
 ------------------

 ------------
 H2O_H2O_2830
 ------------
 Symbolic Z-matrix:
 Charge =  0 Multiplicity = 1

                         Standard orientation:
 ---------------------------------------------------------------------
 Center     Atomic      Atomic             Coordinates (Angstroms)
 Number     Number       Type             X           Y           Z
 ---------------------------------------------------------------------
      1          8           0        0.018360   -2.302758    0.000000
      2          1           0       -0.781602   -2.873342    0.000000
      3          1           0        0.817540   -2.874438    0.000000
      4          8           0        0.018360    2.308795    0.000000
      5          1           0        0.592461    3.106238    0.000000
      6          1           0       -0.922167    2.593248    0.000000
 ---------------------------------------------------------------------

 SCF Done:  E(RHF) =  -33.6489257926     A.U. after   11 cycles
 E2 =    -0.2285543663D+00 EUMP2 =    -0.33877480158964D+02
 CCSD(T)
 CCSD(T)= -0.33894563340D+02

 The electronic state is 1-A'.
 Alpha  occ. eigenvalues --   -1.34553  -1.34466  -0.70176  -0.70086  -0.54151
 Alpha  occ. eigenvalues --   -0.54004  -0.49083  -0.48996
 Alpha virt. eigenvalues --    0.20983   0.21227   0.31288   0.31375   0.81399
 Alpha virt. eigenvalues --    0.81622   0.83142   0.86325   0.87706   0.88209
 Alpha virt. eigenvalues --    1.18229   1.18314   1.22709   1.22804   2.58304

 Mulliken charges:
               1
     1  O   -0.731158
     2  H    0.364437
     3  H    0.366724
     4  O   -0.730864
     5  H    0.363956
     6  H    0.366906
 Sum of Mulliken charges =   0.00000

 Dipole moment (field-independent basis, Debye):
    X=             -0.8429    Y=             -0.1435    Z=              0.0000  Tot=              0.8550
 Quadrupole moment (field-independent basis, Debye-Ang):
   XX=             -8.2821   YY=             11.8858   ZZ=            -14.9853
   XY=             -1.4366   XZ=              0.0000   YZ=              0.0000

 \MP4DQ=-33.8888953\MP4SDQ=-33.8909316\CCSD=-33.8919909\CCSD(T)=-33.894
 Normal termination of Gaussian 16 at Sun Dec 10 06:30:52 2023.
