 Gaussian 16, Revision A.03,
 Gaussian 16:  ES64L-G16RevA.03 25-Dec-2016

 ------------------
 #p CCSD(T)/CEP-31G
 ------------------

 ------------
 H2O_H2O_3468
 ------------
 Symbolic Z-matrix:
 Charge =  0 Multiplicity = 1

                         Standard orientation:
 ---------------------------------------------------------------------
 Center     Atomic      Atomic             Coordinates (Angstroms)
 Number     Number       Type             X           Y           Z
 ---------------------------------------------------------------------
      1          8           0        0.052826   -2.600237    0.000000
      2          1           0       -0.747728   -3.169990    0.000000
      3          1           0        0.851412   -3.172747    0.000000
      4          8           0        0.052826    2.670569    0.000000
      5          1           0       -0.167197    3.628220    0.000000
      6          1           0       -0.781709    2.151862    0.000000
 ---------------------------------------------------------------------

 SCF Done:  E(RHF) =  -33.6514062325     A.U. after   11 cycles
 E2 =    -0.2284254238D+00 EUMP2 =    -0.33879831656284D+02
 CCSD(T)
 CCSD(T)= -0.33896842943D+02

 The electronic state is 1-A'.
 Alpha  occ. eigenvalues --   -1.35418  -1.34649  -0.71050  -0.70259  -0.55133
 Alpha  occ. eigenvalues --   -0.54354  -0.49984  -0.49216
 Alpha virt. eigenvalues --    0.20321   0.21131   0.30569   0.31341   0.80570
 Alpha virt. eigenvalues --    0.81323   0.83561   0.84449   0.86725   0.87624
 Alpha virt. eigenvalues --    1.17467   1.18231   1.21927   1.22709   2.57488

 Mulliken charges:
               1
     1  O   -0.739819
     2  H    0.367715
     3  H    0.372108
     4  O   -0.739056
     5  H    0.365273
     6  H    0.373781
 Sum of Mulliken charges =  -0.00000

 Dipole moment (field-independent basis, Debye):
    X=             -2.4323    Y=             -1.6574    Z=              0.0000  Tot=              2.9433
 Quadrupole moment (field-independent basis, Debye-Ang):
   XX=             -9.8481   YY=              8.8182   ZZ=            -14.9884
   XY=             -6.0009   XZ=              0.0000   YZ=              0.0000

 3\MP4DQ=-33.8911954\MP4SDQ=-33.8932245\CCSD=-33.8942796\CCSD(T)=-33.89
 Normal termination of Gaussian 16 at Sun Dec 10 06:42:18 2023.
