 Gaussian 16, Revision A.03,
 Gaussian 16:  ES64L-G16RevA.03 25-Dec-2016

 ------------------
 #p CCSD(T)/CEP-31G
 ------------------

 ------------
 H2O_H2O_4000
 ------------
 Symbolic Z-matrix:
 Charge =  0 Multiplicity = 1

                         Standard orientation:
 ---------------------------------------------------------------------
 Center     Atomic      Atomic             Coordinates (Angstroms)
 Number     Number       Type             X           Y           Z
 ---------------------------------------------------------------------
      1          8           0        0.000000   -0.000000    2.930945
      2          1           0        0.000000    0.799571    3.502077
      3          1           0       -0.000000   -0.799571    3.502077
      4          8           0        0.000000   -0.000000   -2.930945
      5          1           0       -0.000000   -0.799571   -3.502077
      6          1           0        0.000000    0.799571   -3.502077
 ---------------------------------------------------------------------

 SCF Done:  E(RHF) =  -33.6502867891     A.U. after   10 cycles
 E2 =    -0.2284594381D+00 EUMP2 =    -0.33878746227232D+02
 CCSD(T)
 CCSD(T)= -0.33895789739D+02

 The electronic state is 1-AG.
 Alpha  occ. eigenvalues --   -1.34892  -1.34892  -0.70518  -0.70518  -0.54544
 Alpha  occ. eigenvalues --   -0.54540  -0.49441  -0.49440
 Alpha virt. eigenvalues --    0.20793   0.20801   0.31026   0.31027   0.81112
 Alpha virt. eigenvalues --    0.81115   0.84241   0.84334   0.87334   0.87341
 Alpha virt. eigenvalues --    1.17946   1.17946   1.22416   1.22417   2.57996

 Mulliken charges:
               1
     1  O   -0.735796
     2  H    0.367898
     3  H    0.367898
     4  O   -0.735796
     5  H    0.367898
     6  H    0.367898
 Sum of Mulliken charges =  -0.00000

 Dipole moment (field-independent basis, Debye):
    X=             -0.0000    Y=              0.0000    Z=              0.0000  Tot=              0.0000
 Quadrupole moment (field-independent basis, Debye-Ang):
   XX=            -14.9864   YY=             -8.0433   ZZ=             19.0726
   XY=              0.0000   XZ=              0.0000   YZ=             -0.0000

 -33.8901338\MP4SDQ=-33.8921655\CCSD=-33.8932237\CCSD(T)=-33.8957897\RM
 Normal termination of Gaussian 16 at Sun Dec 10 06:52:06 2023.
