 Gaussian 16, Revision A.03,
 Gaussian 16:  ES64L-G16RevA.03 25-Dec-2016

 ------------------
 #p CCSD(T)/CEP-31G
 ------------------

 ------------
 H2O_H2O_1065
 ------------
 Symbolic Z-matrix:
 Charge =  0 Multiplicity = 1

                         Standard orientation:
 ---------------------------------------------------------------------
 Center     Atomic      Atomic             Coordinates (Angstroms)
 Number     Number       Type             X           Y           Z
 ---------------------------------------------------------------------
      1          8           0        0.047564   -1.334608    0.000000
      2          1           0       -0.753720   -1.903334    0.000000
      3          1           0        0.845414   -1.908141    0.000000
      4          8           0        0.047564    1.385088    0.000000
      5          1           0        0.019856    2.367299    0.000000
      6          1           0       -0.872574    1.040338    0.000000
 ---------------------------------------------------------------------

 SCF Done:  E(RHF) =  -33.6439840335     A.U. after   11 cycles
 E2 =    -0.2297131428D+00 EUMP2 =    -0.33873697176274D+02
 CCSD(T)
 CCSD(T)= -0.33890995707D+02

 The electronic state is 1-A'.
 Alpha  occ. eigenvalues --   -1.34507  -1.32443  -0.70146  -0.68100  -0.54536
 Alpha  occ. eigenvalues --   -0.51142  -0.49070  -0.46886
 Alpha virt. eigenvalues --    0.20090   0.24566   0.31260   0.33005   0.78511
 Alpha virt. eigenvalues --    0.81126   0.85148   0.87169   0.92828   1.16303
 Alpha virt. eigenvalues --    1.18389   1.22321   1.22796   1.28219   2.61132

 Mulliken charges:
               1
     1  O   -0.732138
     2  H    0.353142
     3  H    0.376295
     4  O   -0.708056
     5  H    0.342762
     6  H    0.367995
 Sum of Mulliken charges =  -0.00000

 Dipole moment (field-independent basis, Debye):
    X=             -2.0777    Y=             -1.2655    Z=              0.0000  Tot=              2.4327
 Quadrupole moment (field-independent basis, Debye-Ang):
   XX=             -9.5378   YY=             -0.2230   ZZ=            -14.9908
   XY=             -2.4075   XZ=              0.0000   YZ=              0.0000

 \MP4DQ=-33.8851315\MP4SDQ=-33.8872639\CCSD=-33.8883226\CCSD(T)=-33.890
 Normal termination of Gaussian 16 at Sun Dec 10 06:44:40 2023.
