 Gaussian 16, Revision A.03,
 Gaussian 16:  ES64L-G16RevA.03 25-Dec-2016

 ------------------
 #p CCSD(T)/CEP-31G
 ------------------

 ------------
 H2O_H2O_4871
 ------------
 Symbolic Z-matrix:
 Charge =  0 Multiplicity = 1

                         Standard orientation:
 ---------------------------------------------------------------------
 Center     Atomic      Atomic             Coordinates (Angstroms)
 Number     Number       Type             X           Y           Z
 ---------------------------------------------------------------------
      1          8           0        0.056081   -3.333160    0.000000
      2          1           0       -0.744304   -3.903151    0.000000
      3          1           0        0.854837   -3.905433    0.000000
      4          8           0        0.056081    3.424942    0.000000
      5          1           0       -0.346809    4.321148    0.000000
      6          1           0       -0.661025    2.753180    0.000000
 ---------------------------------------------------------------------

 SCF Done:  E(RHF) =  -33.6518370821     A.U. after   11 cycles
 E2 =    -0.2283795680D+00 EUMP2 =    -0.33880216650107D+02
 CCSD(T)
 CCSD(T)= -0.33897215409D+02

 The electronic state is 1-A'.
 Alpha  occ. eigenvalues --   -1.35610  -1.35019  -0.71243  -0.70642  -0.55347
 Alpha  occ. eigenvalues --   -0.54749  -0.50182  -0.49591
 Alpha virt. eigenvalues --    0.20165   0.20770   0.30405   0.31005   0.80369
 Alpha virt. eigenvalues --    0.80953   0.83390   0.83987   0.86503   0.87136
 Alpha virt. eigenvalues --    1.17294   1.17883   1.21752   1.22350   2.57310

 Mulliken charges:
               1
     1  O   -0.741303
     2  H    0.369525
     3  H    0.371778
     4  O   -0.741132
     5  H    0.368063
     6  H    0.373068
 Sum of Mulliken charges =  -0.00000

 Dipole moment (field-independent basis, Debye):
    X=             -2.5895    Y=             -2.1431    Z=              0.0000  Tot=              3.3613
 Quadrupole moment (field-independent basis, Debye-Ang):
   XX=            -10.0834   YY=             11.1170   ZZ=            -14.9888
   XY=             -8.6675   XZ=              0.0000   YZ=              0.0000

 \MP4DQ=-33.8915717\MP4SDQ=-33.8935992\CCSD=-33.8946545\CCSD(T)=-33.897
 Normal termination of Gaussian 16 at Sun Dec 10 07:09:27 2023.
