 Gaussian 16, Revision A.03,
 Gaussian 16:  ES64L-G16RevA.03 25-Dec-2016

 ------------------
 #p CCSD(T)/CEP-31G
 ------------------

 ----------
 H2O_H2O_86
 ----------
 Symbolic Z-matrix:
 Charge =  0 Multiplicity = 1

                         Standard orientation:
 ---------------------------------------------------------------------
 Center     Atomic      Atomic             Coordinates (Angstroms)
 Number     Number       Type             X           Y           Z
 ---------------------------------------------------------------------
      1          8           0        0.037712   -0.828245    0.000000
      2          1           0       -0.764051   -1.396295    0.000000
      3          1           0        0.835079   -1.402449    0.000000
      4          8           0        0.037712    0.856301    0.000000
      5          1           0        0.265967    1.812024    0.000000
      6          1           0       -0.940381    0.762270    0.000000
 ---------------------------------------------------------------------

 SCF Done:  E(RHF) =  -33.5081252487     A.U. after   12 cycles
 E2 =    -0.2369176080D+00 EUMP2 =    -0.33745042856697D+02
 CCSD(T)
 CCSD(T)= -0.33761794350D+02

 The electronic state is 1-A'.
 Alpha  occ. eigenvalues --   -1.37697  -1.29030  -0.72664  -0.68744  -0.59952
 Alpha  occ. eigenvalues --   -0.52016  -0.42895  -0.35604
 Alpha virt. eigenvalues --    0.20385   0.28540   0.31305   0.33503   0.81510
 Alpha virt. eigenvalues --    0.84564   0.89139   0.92775   0.98276   1.19788
 Alpha virt. eigenvalues --    1.21404   1.25308   1.26521   1.38177   2.55416

 Mulliken charges:
               1
     1  O   -0.737120
     2  H    0.334420
     3  H    0.386928
     4  O   -0.655745
     5  H    0.327413
     6  H    0.344104
 Sum of Mulliken charges =  -0.00000

 Dipole moment (field-independent basis, Debye):
    X=             -1.3621    Y=             -0.7480    Z=              0.0000  Tot=              1.5540
 Quadrupole moment (field-independent basis, Debye-Ang):
   XX=             -9.2041   YY=             -7.3332   ZZ=            -14.9700
   XY=             -0.9511   XZ=              0.0000   YZ=              0.0000

 DQ=-33.7550145\MP4SDQ=-33.7577271\CCSD=-33.7583641\CCSD(T)=-33.7617944
 Normal termination of Gaussian 16 at Sun Dec 10 06:26:20 2023.
