 Gaussian 16, Revision A.03,
 Gaussian 16:  ES64L-G16RevA.03 25-Dec-2016

 ------------------
 #p CCSD(T)/CEP-31G
 ------------------

 ------------
 H2O_H2O_3938
 ------------
 Symbolic Z-matrix:
 Charge =  0 Multiplicity = 1

                         Standard orientation:
 ---------------------------------------------------------------------
 Center     Atomic      Atomic             Coordinates (Angstroms)
 Number     Number       Type             X           Y           Z
 ---------------------------------------------------------------------
      1          8           0        0.042965   -2.869983    0.000000
      2          1           0       -0.757336   -3.440092    0.000000
      3          1           0        0.841805   -3.442138    0.000000
      4          8           0        0.042965    2.908785    0.000000
      5          1           0        0.142010    3.886382    0.000000
      6          1           0       -0.913916    2.685433    0.000000
 ---------------------------------------------------------------------

 SCF Done:  E(RHF) =  -33.6509211487     A.U. after   11 cycles
 E2 =    -0.2284365190D+00 EUMP2 =    -0.33879357667694D+02
 CCSD(T)
 CCSD(T)= -0.33896382958D+02

 The electronic state is 1-A'.
 Alpha  occ. eigenvalues --   -1.35191  -1.34840  -0.70820  -0.70460  -0.54877
 Alpha  occ. eigenvalues --   -0.54525  -0.49749  -0.49399
 Alpha virt. eigenvalues --    0.20532   0.20890   0.30767   0.31112   0.80804
 Alpha virt. eigenvalues --    0.81149   0.83906   0.84264   0.86990   0.87401
 Alpha virt. eigenvalues --    1.17674   1.18021   1.22139   1.22489   2.57712

 Mulliken charges:
               1
     1  O   -0.738067
     2  H    0.367614
     3  H    0.370452
     4  O   -0.737606
     5  H    0.366487
     6  H    0.371120
 Sum of Mulliken charges =   0.00000

 Dipole moment (field-independent basis, Debye):
    X=             -1.9810    Y=             -0.9103    Z=              0.0000  Tot=              2.1801
 Quadrupole moment (field-independent basis, Debye-Ang):
   XX=             -9.2368   YY=             14.4580   ZZ=            -14.9874
   XY=             -4.9408   XZ=              0.0000   YZ=              0.0000

 \MP4DQ=-33.890732\MP4SDQ=-33.8927621\CCSD=-33.8938187\CCSD(T)=-33.8963
 Normal termination of Gaussian 16 at Sun Dec 10 06:50:57 2023.
