 Gaussian 16, Revision A.03,
 Gaussian 16:  ES64L-G16RevA.03 25-Dec-2016

 ------------------
 #p CCSD(T)/CEP-31G
 ------------------

 -----------
 H2O_H2O_404
 -----------
 Symbolic Z-matrix:
 Charge =  0 Multiplicity = 1

                         Standard orientation:
 ---------------------------------------------------------------------
 Center     Atomic      Atomic             Coordinates (Angstroms)
 Number     Number       Type             X           Y           Z
 ---------------------------------------------------------------------
      1          8           0        0.014784   -1.014239    0.000000
      2          1           0       -0.785501   -1.584369    0.000000
      3          1           0        0.813640   -1.586372    0.000000
      4          8           0        0.014784    1.018094    0.000000
      5          1           0        0.640241    1.775927    0.000000
      6          1           0       -0.904930    1.363973    0.000000
 ---------------------------------------------------------------------

 SCF Done:  E(RHF) =  -33.5960417355     A.U. after   11 cycles
 E2 =    -0.2322228004D+00 EUMP2 =    -0.33828264535963D+02
 CCSD(T)
 CCSD(T)= -0.33845443270D+02

 The electronic state is 1-A'.
 Alpha  occ. eigenvalues --   -1.33216  -1.30519  -0.68382  -0.66503  -0.58502
 Alpha  occ. eigenvalues --   -0.48157  -0.44168  -0.41675
 Alpha virt. eigenvalues --    0.21454   0.26025   0.32741   0.33397   0.78940
 Alpha virt. eigenvalues --    0.80709   0.90219   0.95928   1.03107   1.19612
 Alpha virt. eigenvalues --    1.20384   1.23011   1.25685   1.27673   2.48888

 Mulliken charges:
               1
     1  O   -0.703930
     2  H    0.342609
     3  H    0.358641
     4  O   -0.693871
     5  H    0.351199
     6  H    0.345353
 Sum of Mulliken charges =  -0.00000

 Dipole moment (field-independent basis, Debye):
    X=             -0.5769    Y=             -0.0909    Z=              0.0000  Tot=              0.5841
 Quadrupole moment (field-independent basis, Debye-Ang):
   XX=             -8.4618   YY=             -3.5920   ZZ=            -15.0225
   XY=             -0.3412   XZ=              0.0000   YZ=              0.0000

 MP4DQ=-33.8392435\MP4SDQ=-33.8414995\CCSD=-33.8424973\CCSD(T)=-33.8454
 Normal termination of Gaussian 16 at Sun Dec 10 06:32:19 2023.
