 Gaussian 16, Revision A.03,
 Gaussian 16:  ES64L-G16RevA.03 25-Dec-2016

 ------------------
 #p CCSD(T)/CEP-31G
 ------------------

 -----------
 H2O_H2O_932
 -----------
 Symbolic Z-matrix:
 Charge =  0 Multiplicity = 1

                         Standard orientation:
 ---------------------------------------------------------------------
 Center     Atomic      Atomic             Coordinates (Angstroms)
 Number     Number       Type             X           Y           Z
 ---------------------------------------------------------------------
      1          8           0        0.025270   -1.289195    0.000000
      2          1           0       -0.775258   -1.858983    0.000000
      3          1           0        0.823881   -1.861669    0.000000
      4          8           0        0.025270    1.300890    0.000000
      5          1           0        0.491232    2.165983    0.000000
      6          1           0       -0.944181    1.461109    0.000000
 ---------------------------------------------------------------------

 SCF Done:  E(RHF) =  -33.6350596883     A.U. after   11 cycles
 E2 =    -0.2298445323D+00 EUMP2 =    -0.33864904220564D+02
 CCSD(T)
 CCSD(T)= -0.33882330198D+02

 The electronic state is 1-A'.
 Alpha  occ. eigenvalues --   -1.33104  -1.32352  -0.68675  -0.68003  -0.54511
 Alpha  occ. eigenvalues --   -0.48918  -0.47773  -0.46475
 Alpha virt. eigenvalues --    0.21147   0.24082   0.32377   0.32761   0.79250
 Alpha virt. eigenvalues --    0.80635   0.85838   0.88243   1.00284   1.13072
 Alpha virt. eigenvalues --    1.19386   1.22263   1.24129   1.25472   2.56630

 Mulliken charges:
               1
     1  O   -0.709619
     2  H    0.346550
     3  H    0.360948
     4  O   -0.698857
     5  H    0.347739
     6  H    0.353239
 Sum of Mulliken charges =   0.00000

 Dipole moment (field-independent basis, Debye):
    X=             -1.0907    Y=             -0.2859    Z=              0.0000  Tot=              1.1275
 Quadrupole moment (field-independent basis, Debye-Ang):
   XX=             -8.6086   YY=              0.4178   ZZ=            -14.9915
   XY=             -0.9259   XZ=              0.0000   YZ=              0.0000

 4DQ=-33.8764307\MP4SDQ=-33.8785463\CCSD=-33.8796356\CCSD(T)=-33.882330
 Normal termination of Gaussian 16 at Sun Dec 10 06:42:11 2023.
