 Gaussian 16, Revision A.03,
 Gaussian 16:  ES64L-G16RevA.03 25-Dec-2016

 ------------------
 #p CCSD(T)/CEP-31G
 ------------------

 ------------
 H2O_H2O_3698
 ------------
 Symbolic Z-matrix:
 Charge =  0 Multiplicity = 1

                         Standard orientation:
 ---------------------------------------------------------------------
 Center     Atomic      Atomic             Coordinates (Angstroms)
 Number     Number       Type             X           Y           Z
 ---------------------------------------------------------------------
      1          8           0        0.057086   -2.700231    0.000000
      2          1           0       -0.743501   -3.269937    0.000000
      3          1           0        0.855638   -3.272786    0.000000
      4          8           0        0.057086    2.806783    0.000000
      5          1           0       -0.459040    3.642917    0.000000
      6          1           0       -0.566472    2.047387    0.000000
 ---------------------------------------------------------------------

 SCF Done:  E(RHF) =  -33.6521990479     A.U. after   11 cycles
 E2 =    -0.2283758888D+00 EUMP2 =    -0.33880574936728D+02
 CCSD(T)
 CCSD(T)= -0.33897562972D+02

 The electronic state is 1-A'.
 Alpha  occ. eigenvalues --   -1.35743  -1.34689  -0.71378  -0.70302  -0.55503
 Alpha  occ. eigenvalues --   -0.54428  -0.50321  -0.49267
 Alpha virt. eigenvalues --    0.20041   0.21148   0.30292   0.31379   0.80233
 Alpha virt. eigenvalues --    0.81265   0.83193   0.84304   0.86343   0.87489
 Alpha virt. eigenvalues --    1.17176   1.18225   1.21629   1.22715   2.57175

 Mulliken charges:
               1
     1  O   -0.742600
     2  H    0.369318
     3  H    0.373287
     4  O   -0.742307
     5  H    0.366210
     6  H    0.376092
 Sum of Mulliken charges =  -0.00000

 Dipole moment (field-independent basis, Debye):
    X=             -2.6297    Y=             -2.5067    Z=              0.0000  Tot=              3.6330
 Quadrupole moment (field-independent basis, Debye-Ang):
   XX=            -10.1541   YY=              5.2239   ZZ=            -14.9897
   XY=             -7.4581   XZ=              0.0000   YZ=              0.0000

 MP4DQ=-33.8919217\MP4SDQ=-33.8939485\CCSD=-33.8950023\CCSD(T)=-33.8975
 Normal termination of Gaussian 16 at Sun Dec 10 06:46:30 2023.
