 Gaussian 16, Revision A.03,
 Gaussian 16:  ES64L-G16RevA.03 25-Dec-2016

 ------------------
 #p CCSD(T)/CEP-31G
 ------------------

 ------------
 H2O_H2O_4047
 ------------
 Symbolic Z-matrix:
 Charge =  0 Multiplicity = 1

                         Standard orientation:
 ---------------------------------------------------------------------
 Center     Atomic      Atomic             Coordinates (Angstroms)
 Number     Number       Type             X           Y           Z
 ---------------------------------------------------------------------
      1          8           0        0.056707   -2.890405    0.000000
      2          1           0       -0.743810   -3.460211    0.000000
      3          1           0        0.855330   -3.462862    0.000000
      4          8           0        0.056707    2.989534    0.000000
      5          1           0       -0.403736    3.857578    0.000000
      6          1           0       -0.615094    2.272464    0.000000
 ---------------------------------------------------------------------

 SCF Done:  E(RHF) =  -33.6519909005     A.U. after   11 cycles
 E2 =    -0.2283802154D+00 EUMP2 =    -0.33880371115901D+02
 CCSD(T)
 CCSD(T)= -0.33897365230D+02

 The electronic state is 1-A'.
 Alpha  occ. eigenvalues --   -1.35668  -1.34814  -0.71302  -0.70431  -0.55415
 Alpha  occ. eigenvalues --   -0.54547  -0.50243  -0.49388
 Alpha virt. eigenvalues --    0.20113   0.20997   0.30356   0.31230   0.80310
 Alpha virt. eigenvalues --    0.81149   0.83308   0.84183   0.86433   0.87360
 Alpha virt. eigenvalues --    1.17243   1.18092   1.21698   1.22569   2.57253

 Mulliken charges:
               1
     1  O   -0.741861
     2  H    0.369266
     3  H    0.372595
     4  O   -0.741584
     5  H    0.366883
     6  H    0.374700
 Sum of Mulliken charges =  -0.00000

 Dipole moment (field-independent basis, Debye):
    X=             -2.6147    Y=             -2.3251    Z=              0.0000  Tot=              3.4990
 Quadrupole moment (field-independent basis, Debye-Ang):
   XX=            -10.1272   YY=              7.3126   ZZ=            -14.9892
   XY=             -7.7568   XZ=              0.0000   YZ=              0.0000

 MP4DQ=-33.8917226\MP4SDQ=-33.8937498\CCSD=-33.8948044\CCSD(T)=-33.8973
 Normal termination of Gaussian 16 at Sun Dec 10 06:52:56 2023.
