 Gaussian 16, Revision A.03,
 Gaussian 16:  ES64L-G16RevA.03 25-Dec-2016

 ------------------
 #p CCSD(T)/CEP-31G
 ------------------

 ------------
 H2O_H2O_4544
 ------------
 Symbolic Z-matrix:
 Charge =  0 Multiplicity = 1

                         Standard orientation:
 ---------------------------------------------------------------------
 Center     Atomic      Atomic             Coordinates (Angstroms)
 Number     Number       Type             X           Y           Z
 ---------------------------------------------------------------------
      1          8           0        0.054138   -3.168150    0.000000
      2          1           0       -0.746261   -3.738120    0.000000
      3          1           0        0.852879   -3.740442    0.000000
      4          8           0        0.054138    3.245502    0.000000
      5          1           0       -0.228305    4.186635    0.000000
      6          1           0       -0.744529    2.673107    0.000000
 ---------------------------------------------------------------------

 SCF Done:  E(RHF) =  -33.6516619110     A.U. after   11 cycles
 E2 =    -0.2283921131D+00 EUMP2 =    -0.33880054024052D+02
 CCSD(T)
 CCSD(T)= -0.33897057818D+02

 The electronic state is 1-A'.
 Alpha  occ. eigenvalues --   -1.35519  -1.34960  -0.71151  -0.70582  -0.55247
 Alpha  occ. eigenvalues --   -0.54682  -0.50089  -0.49530
 Alpha virt. eigenvalues --    0.20245   0.20818   0.30485   0.31049   0.80463
 Alpha virt. eigenvalues --    0.81014   0.83499   0.84062   0.86607   0.87218
 Alpha virt. eigenvalues --    1.17378   1.17933   1.21836   1.22401   2.57397

 Mulliken charges:
               1
     1  O   -0.740682
     2  H    0.369054
     3  H    0.371628
     4  O   -0.740403
     5  H    0.367569
     6  H    0.372835
 Sum of Mulliken charges =   0.00000

 Dipole moment (field-independent basis, Debye):
    X=             -2.4989    Y=             -1.8088    Z=              0.0000  Tot=              3.0849
 Quadrupole moment (field-independent basis, Debye-Ang):
   XX=             -9.9425   YY=             12.0846   ZZ=            -14.9885
   XY=             -7.6860   XZ=              0.0000   YZ=              0.0000

 DQ=-33.8914127\MP4SDQ=-33.8934407\CCSD=-33.8944962\CCSD(T)=-33.8970578
 Normal termination of Gaussian 16 at Sun Dec 10 07:03:26 2023.
