 Gaussian 16, Revision A.03,
 Gaussian 16:  ES64L-G16RevA.03 25-Dec-2016

 ------------------
 #p CCSD(T)/CEP-31G
 ------------------

 -----------
 H2O_H2O_507
 -----------
 Symbolic Z-matrix:
 Charge =  0 Multiplicity = 1

                         Standard orientation:
 ---------------------------------------------------------------------
 Center     Atomic      Atomic             Coordinates (Angstroms)
 Number     Number       Type             X           Y           Z
 ---------------------------------------------------------------------
      1          8           0        0.025272   -1.063174    0.000000
      2          1           0       -0.775459   -1.632678    0.000000
      3          1           0        0.823680   -1.635931    0.000000
      4          8           0        0.025272    1.074851    0.000000
      5          1           0        0.491541    1.939778    0.000000
      6          1           0       -0.944122    1.235414    0.000000
 ---------------------------------------------------------------------

 SCF Done:  E(RHF) =  -33.6113295070     A.U. after   11 cycles
 E2 =    -0.2314188213D+00 EUMP2 =    -0.33842748328277D+02
 CCSD(T)
 CCSD(T)= -0.33860053963D+02

 The electronic state is 1-A'.
 Alpha  occ. eigenvalues --   -1.33176  -1.31028  -0.68551  -0.66985  -0.57054
 Alpha  occ. eigenvalues --   -0.48056  -0.44818  -0.44104
 Alpha virt. eigenvalues --    0.21211   0.25668   0.32562   0.33208   0.80047
 Alpha virt. eigenvalues --    0.80167   0.90032   0.98597   0.99652   1.15597
 Alpha virt. eigenvalues --    1.19845   1.23265   1.25163   1.28374   2.50632

 Mulliken charges:
               1
     1  O   -0.714211
     2  H    0.342275
     3  H    0.365255
     4  O   -0.688858
     5  H    0.349926
     6  H    0.345614
 Sum of Mulliken charges =   0.00000

 Dipole moment (field-independent basis, Debye):
    X=             -1.0147    Y=             -0.2755    Z=              0.0000  Tot=              1.0514
 Quadrupole moment (field-independent basis, Debye-Ang):
   XX=             -8.6783   YY=             -2.7627   ZZ=            -15.0102
   XY=             -0.6883   XZ=              0.0000   YZ=              0.0000

 P4DQ=-33.8539475\MP4SDQ=-33.8561546\CCSD=-33.8571938\CCSD(T)=-33.86005
 Normal termination of Gaussian 16 at Sun Dec 10 06:34:14 2023.
