 Gaussian 16, Revision A.03,
 Gaussian 16:  ES64L-G16RevA.03 25-Dec-2016

 ------------------
 #p CCSD(T)/CEP-31G
 ------------------

 ------------
 H2O_H2O_3076
 ------------
 Symbolic Z-matrix:
 Charge =  0 Multiplicity = 1

                         Standard orientation:
 ---------------------------------------------------------------------
 Center     Atomic      Atomic             Coordinates (Angstroms)
 Number     Number       Type             X           Y           Z
 ---------------------------------------------------------------------
      1          8           0        0.003735   -2.438863    0.000000
      2          1           0       -0.795911   -3.009890    0.000000
      3          1           0        0.803231   -3.010101    0.000000
      4          8           0        0.003735    2.439107    0.000000
      5          1           0        0.764323    3.061211    0.000000
      6          1           0       -0.831409    2.956832    0.000000
 ---------------------------------------------------------------------

 SCF Done:  E(RHF) =  -33.6491866277     A.U. after   10 cycles
 E2 =    -0.2285275966D+00 EUMP2 =    -0.33877714224257D+02
 CCSD(T)
 CCSD(T)= -0.33894789594D+02

 The electronic state is 1-A'.
 Alpha  occ. eigenvalues --   -1.34591  -1.34588  -0.70215  -0.70211  -0.54207
 Alpha  occ. eigenvalues --   -0.54140  -0.49126  -0.49119
 Alpha virt. eigenvalues --    0.20981   0.21099   0.31255   0.31280   0.81383
 Alpha virt. eigenvalues --    0.81476   0.83819   0.85654   0.87603   0.87818
 Alpha virt. eigenvalues --    1.18202   1.18205   1.22668   1.22700   2.58282

 Mulliken charges:
               1
     1  O   -0.732019
     2  H    0.365809
     3  H    0.366209
     4  O   -0.732009
     5  H    0.365749
     6  H    0.366260
 Sum of Mulliken charges =   0.00000

 Dipole moment (field-independent basis, Debye):
    X=             -0.1717    Y=             -0.0058    Z=              0.0000  Tot=              0.1718
 Quadrupole moment (field-independent basis, Debye-Ang):
   XX=             -8.0696   YY=             13.7613   ZZ=            -14.9854
   XY=             -0.3076   XZ=              0.0000   YZ=              0.0000

 \MP4DQ=-33.8891244\MP4SDQ=-33.8911594\CCSD=-33.892219\CCSD(T)=-33.8947
 Normal termination of Gaussian 16 at Sun Dec 10 06:35:17 2023.
