 Gaussian 16, Revision A.03,
 Gaussian 16:  ES64L-G16RevA.03 25-Dec-2016

 ------------------
 #p CCSD(T)/CEP-31G
 ------------------

 ------------
 H2O_H2O_1970
 ------------
 Symbolic Z-matrix:
 Charge =  0 Multiplicity = 1

                         Standard orientation:
 ---------------------------------------------------------------------
 Center     Atomic      Atomic             Coordinates (Angstroms)
 Number     Number       Type             X           Y           Z
 ---------------------------------------------------------------------
      1          8           0        0.055276   -1.794854    0.000000
      2          1           0       -0.745768   -2.363917    0.000000
      3          1           0        0.853368   -2.368051    0.000000
      4          8           0        0.055276    1.879231    0.000000
      5          1           0       -0.287071    2.800265    0.000000
      6          1           0       -0.704951    1.256687    0.000000
 ---------------------------------------------------------------------

 SCF Done:  E(RHF) =  -33.6519364745     A.U. after   11 cycles
 E2 =    -0.2286849381D+00 EUMP2 =    -0.33880621412613D+02
 CCSD(T)
 CCSD(T)= -0.33897640870D+02

 The electronic state is 1-A'.
 Alpha  occ. eigenvalues --   -1.35613  -1.33587  -0.71252  -0.69144  -0.55356
 Alpha  occ. eigenvalues --   -0.53285  -0.50185  -0.48166
 Alpha virt. eigenvalues --    0.19524   0.22886   0.30307   0.32593   0.77680
 Alpha virt. eigenvalues --    0.79939   0.82795   0.85965   0.86693   0.97642
 Alpha virt. eigenvalues --    1.17255   1.19922   1.21682   1.25449   2.55944

 Mulliken charges:
               1
     1  O   -0.741356
     2  H    0.364961
     3  H    0.377261
     4  O   -0.738299
     5  H    0.356127
     6  H    0.381305
 Sum of Mulliken charges =   0.00000

 Dipole moment (field-independent basis, Debye):
    X=             -2.5127    Y=             -2.0668    Z=              0.0000  Tot=              3.2535
 Quadrupole moment (field-independent basis, Debye-Ang):
   XX=            -10.0068   YY=              1.7158   ZZ=            -14.9911
   XY=             -4.5367   XZ=              0.0000   YZ=              0.0000

 2\MP4DQ=-33.8919579\MP4SDQ=-33.8940131\CCSD=-33.895054\CCSD(T)=-33.897
 Normal termination of Gaussian 16 at Sun Dec 10 07:02:28 2023.
