 Gaussian 16, Revision A.03,
 Gaussian 16:  ES64L-G16RevA.03 25-Dec-2016

 ------------------
 #p CCSD(T)/CEP-31G
 ------------------

 -----------
 H2O_H2O_330
 -----------
 Symbolic Z-matrix:
 Charge =  0 Multiplicity = 1

                         Standard orientation:
 ---------------------------------------------------------------------
 Center     Atomic      Atomic             Coordinates (Angstroms)
 Number     Number       Type             X           Y           Z
 ---------------------------------------------------------------------
      1          8           0        0.018363   -0.973185    0.000000
      2          1           0       -0.782131   -1.543022    0.000000
      3          1           0        0.817009   -1.545611    0.000000
      4          8           0        0.018363    0.979188    0.000000
      5          1           0        0.593208    1.776093    0.000000
      6          1           0       -0.921898    1.264518    0.000000
 ---------------------------------------------------------------------

 SCF Done:  E(RHF) =  -33.5835960221     A.U. after   11 cycles
 E2 =    -0.2329537236D+00 EUMP2 =    -0.33816549745735D+02
 CCSD(T)
 CCSD(T)= -0.33833641014D+02

 The electronic state is 1-A'.
 Alpha  occ. eigenvalues --   -1.33646  -1.30206  -0.68702  -0.66385  -0.59467
 Alpha  occ. eigenvalues --   -0.48599  -0.43818  -0.40269
 Alpha virt. eigenvalues --    0.21351   0.26487   0.32567   0.33461   0.79628
 Alpha virt. eigenvalues --    0.81035   0.90165   0.94432   1.03819   1.20041
 Alpha virt. eigenvalues --    1.20950   1.23079   1.27055   1.28724   2.48622

 Mulliken charges:
               1
     1  O   -0.708029
     2  H    0.341017
     3  H    0.362579
     4  O   -0.691037
     5  H    0.351485
     6  H    0.343985
 Sum of Mulliken charges =   0.00000

 Dipole moment (field-independent basis, Debye):
    X=             -0.7042    Y=             -0.1439    Z=              0.0000  Tot=              0.7188
 Quadrupole moment (field-independent basis, Debye-Ang):
   XX=             -8.5517   YY=             -4.3318   ZZ=            -15.0246
   XY=             -0.4159   XZ=              0.0000   YZ=              0.0000

 P4DQ=-33.8273503\MP4SDQ=-33.8296729\CCSD=-33.8306252\CCSD(T)=-33.83364
 Normal termination of Gaussian 16 at Sun Dec 10 06:30:56 2023.
