 Gaussian 16, Revision A.03,
 Gaussian 16:  ES64L-G16RevA.03 25-Dec-2016

 ------------------
 #p CCSD(T)/CEP-31G
 ------------------

 ------------
 H2O_H2O_1457
 ------------
 Symbolic Z-matrix:
 Charge =  0 Multiplicity = 1

                         Standard orientation:
 ---------------------------------------------------------------------
 Center     Atomic      Atomic             Coordinates (Angstroms)
 Number     Number       Type             X           Y           Z
 ---------------------------------------------------------------------
      1          8           0        0.025269   -1.568401    0.000000
      2          1           0       -0.775090   -2.138428    0.000000
      3          1           0        0.824050   -2.140637    0.000000
      4          8           0        0.025269    1.580111    0.000000
      5          1           0        0.490972    2.445343    0.000000
      6          1           0       -0.944230    1.740041    0.000000
 ---------------------------------------------------------------------

 SCF Done:  E(RHF) =  -33.6433055601     A.U. after   11 cycles
 E2 =    -0.2291223834D+00 EUMP2 =    -0.33872427943496D+02
 CCSD(T)
 CCSD(T)= -0.33889722598D+02

 The electronic state is 1-A'.
 Alpha  occ. eigenvalues --   -1.33685  -1.33305  -0.69302  -0.68905  -0.53768
 Alpha  occ. eigenvalues --   -0.51728  -0.48215  -0.47695
 Alpha virt. eigenvalues --    0.20967   0.22837   0.31909   0.32256   0.76595
 Alpha virt. eigenvalues --    0.80108   0.83663   0.85151   0.93825   1.08375
 Alpha virt. eigenvalues --    1.18888   1.19747   1.23550   1.23861   2.59815

 Mulliken charges:
               1
     1  O   -0.715510
     2  H    0.353372
     3  H    0.362052
     4  O   -0.712202
     5  H    0.351716
     6  H    0.360573
 Sum of Mulliken charges =   0.00000

 Dipole moment (field-independent basis, Debye):
    X=             -1.1339    Y=             -0.2920    Z=              0.0000  Tot=              1.1709
 Quadrupole moment (field-independent basis, Debye-Ang):
   XX=             -8.5474   YY=              3.7235   ZZ=            -14.9844
   XY=             -1.2251   XZ=              0.0000   YZ=              0.0000

 P4DQ=-33.8839435\MP4SDQ=-33.8860302\CCSD=-33.8870975\CCSD(T)=-33.88972
 Normal termination of Gaussian 16 at Sun Dec 10 06:51:59 2023.
