 Gaussian 16, Revision A.03,
 Gaussian 16:  ES64L-G16RevA.03 25-Dec-2016

 ------------------
 #p CCSD(T)/CEP-31G
 ------------------

 ------------
 H2O_H2O_1493
 ------------
 Symbolic Z-matrix:
 Charge =  0 Multiplicity = 1

                         Standard orientation:
 ---------------------------------------------------------------------
 Center     Atomic      Atomic             Coordinates (Angstroms)
 Number     Number       Type             X           Y           Z
 ---------------------------------------------------------------------
      1          8           0        0.052867   -1.549923    0.000000
      2          1           0       -0.748338   -2.118762    0.000000
      3          1           0        0.850797   -2.123345    0.000000
      4          8           0        0.052867    1.620135    0.000000
      5          1           0       -0.166063    2.578036    0.000000
      6          1           0       -0.782261    1.102381    0.000000
 ---------------------------------------------------------------------

 SCF Done:  E(RHF) =  -33.6499830181     A.U. after   11 cycles
 E2 =    -0.2290840418D+00 EUMP2 =    -0.33879067059882D+02
 CCSD(T)
 CCSD(T)= -0.33896189849D+02

 The electronic state is 1-A'.
 Alpha  occ. eigenvalues --   -1.35274  -1.33029  -0.70916  -0.68594  -0.54961
 Alpha  occ. eigenvalues --   -0.52590  -0.49830  -0.47587
 Alpha virt. eigenvalues --    0.19641   0.23795   0.30597   0.32956   0.75874
 Alpha virt. eigenvalues --    0.79149   0.84632   0.85959   0.88659   1.09217
 Alpha virt. eigenvalues --    1.17465   1.20966   1.22168   1.26528   2.56406

 Mulliken charges:
               1
     1  O   -0.737336
     2  H    0.360118
     3  H    0.377979
     4  O   -0.728267
     5  H    0.349026
     6  H    0.378480
 Sum of Mulliken charges =  -0.00000

 Dipole moment (field-independent basis, Debye):
    X=             -2.3690    Y=             -1.7538    Z=              0.0000  Tot=              2.9475
 Quadrupole moment (field-independent basis, Debye-Ang):
   XX=             -9.8438   YY=              0.7919   ZZ=            -14.9909
   XY=             -3.5111   XZ=              0.0000   YZ=              0.0000

 \MP4DQ=-33.8904359\MP4SDQ=-33.8925272\CCSD=-33.893569\CCSD(T)=-33.8961
 Normal termination of Gaussian 16 at Sun Dec 10 06:52:39 2023.
