 Gaussian 16, Revision A.03,
 Gaussian 16:  ES64L-G16RevA.03 25-Dec-2016

 ------------------
 #p CCSD(T)/CEP-31G
 ------------------

 ------------
 H2O_H2O_1590
 ------------
 Symbolic Z-matrix:
 Charge =  0 Multiplicity = 1

                         Standard orientation:
 ---------------------------------------------------------------------
 Center     Atomic      Atomic             Coordinates (Angstroms)
 Number     Number       Type             X           Y           Z
 ---------------------------------------------------------------------
      1          8           0        0.047551   -1.613797    0.000000
      2          1           0       -0.753442   -2.182933    0.000000
      3          1           0        0.845695   -2.186921    0.000000
      4          8           0        0.047551    1.664325    0.000000
      5          1           0        0.019340    2.646523    0.000000
      6          1           0       -0.872410    1.319104    0.000000
 ---------------------------------------------------------------------

 SCF Done:  E(RHF) =  -33.6482421559     A.U. after   11 cycles
 E2 =    -0.2290116732D+00 EUMP2 =    -0.33877253829094D+02
 CCSD(T)
 CCSD(T)= -0.33894410809D+02

 The electronic state is 1-A'.
 Alpha  occ. eigenvalues --   -1.34784  -1.33296  -0.70418  -0.68856  -0.54459
 Alpha  occ. eigenvalues --   -0.52678  -0.49318  -0.47824
 Alpha virt. eigenvalues --    0.20060   0.23163   0.30997   0.32474   0.75382
 Alpha virt. eigenvalues --    0.79771   0.84238   0.85275   0.89226   1.07667
 Alpha virt. eigenvalues --    1.17925   1.20673   1.22462   1.24723   2.57434

 Mulliken charges:
               1
     1  O   -0.730436
     2  H    0.358183
     3  H    0.372720
     4  O   -0.723283
     5  H    0.350884
     6  H    0.371931
 Sum of Mulliken charges =   0.00000

 Dipole moment (field-independent basis, Debye):
    X=             -2.1383    Y=             -1.2540    Z=              0.0000  Tot=              2.4789
 Quadrupole moment (field-independent basis, Debye-Ang):
   XX=             -9.5193   YY=              2.4305   ZZ=            -14.9878
   XY=             -2.9843   XZ=              0.0000   YZ=              0.0000

 \MP4DQ=-33.88867\MP4SDQ=-33.8907521\CCSD=-33.8918\CCSD(T)=-33.8944108\
 Normal termination of Gaussian 16 at Sun Dec 10 06:54:27 2023.
