 Gaussian 16, Revision A.03,
 Gaussian 16:  ES64L-G16RevA.03 25-Dec-2016

 ------------------
 #p CCSD(T)/CEP-31G
 ------------------

 ----------
 H2O_H2O_16
 ----------
 Symbolic Z-matrix:
 Charge =  0 Multiplicity = 1

                         Standard orientation:
 ---------------------------------------------------------------------
 Center     Atomic      Atomic             Coordinates (Angstroms)
 Number     Number       Type             X           Y           Z
 ---------------------------------------------------------------------
      1          8           0        0.049613   -0.772858    0.000000
      2          1           0       -0.752983   -1.339733    0.000000
      3          1           0        0.846137   -1.348232    0.000000
      4          8           0        0.049613    0.829445    0.000000
      5          1           0       -0.040017    1.807950    0.000000
      6          1           0       -0.846937    0.427321    0.000000
 ---------------------------------------------------------------------

 SCF Done:  E(RHF) =  -33.4514138851     A.U. after   12 cycles
 E2 =    -0.2384664895D+00 EUMP2 =    -0.33689880374649D+02
 CCSD(T)
 CCSD(T)= -0.33706510011D+02

 The electronic state is 1-A'.
 Alpha  occ. eigenvalues --   -1.41849  -1.28415  -0.77010  -0.71692  -0.55950
 Alpha  occ. eigenvalues --   -0.54710  -0.42813  -0.35902
 Alpha virt. eigenvalues --    0.19552   0.29289   0.30639   0.33605   0.80582
 Alpha virt. eigenvalues --    0.82888   0.88710   0.95087   0.96354   1.19220
 Alpha virt. eigenvalues --    1.22063   1.26123   1.27070   1.41333   2.66632

 Mulliken charges:
               1
     1  O   -0.757861
     2  H    0.334575
     3  H    0.407115
     4  O   -0.621941
     5  H    0.284084
     6  H    0.354028
 Sum of Mulliken charges =   0.00000

 Dipole moment (field-independent basis, Debye):
    X=             -1.7154    Y=             -1.5288    Z=              0.0000  Tot=              2.2978
 Quadrupole moment (field-independent basis, Debye-Ang):
   XX=             -9.7455   YY=             -8.7342   ZZ=            -14.8935
   XY=             -1.3398   XZ=              0.0000   YZ=              0.0000

 MP4DQ=-33.6994439\MP4SDQ=-33.7023424\CCSD=-33.7027968\CCSD(T)=-33.7065
 Normal termination of Gaussian 16 at Sun Dec 10 06:25:01 2023.
