 Gaussian 16, Revision A.03,
 Gaussian 16:  ES64L-G16RevA.03 25-Dec-2016

 ------------------
 #p CCSD(T)/CEP-31G
 ------------------

 ------------
 H2O_H2O_2597
 ------------
 Symbolic Z-matrix:
 Charge =  0 Multiplicity = 1

                         Standard orientation:
 ---------------------------------------------------------------------
 Center     Atomic      Atomic             Coordinates (Angstroms)
 Number     Number       Type             X           Y           Z
 ---------------------------------------------------------------------
      1          8           0        0.056736   -2.119277    0.000000
      2          1           0       -0.744117   -2.688611    0.000000
      3          1           0        0.855021   -2.692205    0.000000
      4          8           0        0.056736    2.218340    0.000000
      5          1           0       -0.403195    3.086653    0.000000
      6          1           0       -0.615487    1.501665    0.000000
 ---------------------------------------------------------------------

 SCF Done:  E(RHF) =  -33.6525008159     A.U. after   11 cycles
 E2 =    -0.2284562044D+00 EUMP2 =    -0.33880957020305D+02
 CCSD(T)
 CCSD(T)= -0.33897938884D+02

 The electronic state is 1-A'.
 Alpha  occ. eigenvalues --   -1.35776  -1.34120  -0.71413  -0.69704  -0.55553
 Alpha  occ. eigenvalues --   -0.53855  -0.50357  -0.48702
 Alpha virt. eigenvalues --    0.19729   0.21982   0.30232   0.32007   0.80179
 Alpha virt. eigenvalues --    0.81837   0.81902   0.85404   0.86214   0.89341
 Alpha virt. eigenvalues --    1.17152   1.18980   1.21549   1.23913   2.57048

 Mulliken charges:
               1
     1  O   -0.743438
     2  H    0.367975
     3  H    0.375763
     4  O   -0.742389
     5  H    0.361797
     6  H    0.380292
 Sum of Mulliken charges =   0.00000

 Dipole moment (field-independent basis, Debye):
    X=             -2.5998    Y=             -2.3745    Z=              0.0000  Tot=              3.5210
 Quadrupole moment (field-independent basis, Debye-Ang):
   XX=            -10.1189   YY=              2.5977   ZZ=            -14.9909
   XY=             -5.7673   XZ=              0.0000   YZ=              0.0000

 P4DQ=-33.8922906\MP4SDQ=-33.8943243\CCSD=-33.8953717\CCSD(T)=-33.89793
 Normal termination of Gaussian 16 at Sun Dec 10 06:26:32 2023.
