 Gaussian 16, Revision A.03,
 Gaussian 16:  ES64L-G16RevA.03 25-Dec-2016

 ------------------
 #p CCSD(T)/CEP-31G
 ------------------

 ------------
 H2O_H2O_2803
 ------------
 Symbolic Z-matrix:
 Charge =  0 Multiplicity = 1

                         Standard orientation:
 ---------------------------------------------------------------------
 Center     Atomic      Atomic             Coordinates (Angstroms)
 Number     Number       Type             X           Y           Z
 ---------------------------------------------------------------------
      1          8           0        0.011143   -2.291554    0.000000
      2          1           0       -0.788667   -2.862351    0.000000
      3          1           0        0.810475   -2.863020    0.000000
      4          8           0        0.011143    2.293739    0.000000
      5          1           0        0.684227    3.009604    0.000000
      6          1           0       -0.884318    2.698283    0.000000
 ---------------------------------------------------------------------

 SCF Done:  E(RHF) =  -33.6487385113     A.U. after   11 cycles
 E2 =    -0.2285615405D+00 EUMP2 =    -0.33877300051800D+02
 CCSD(T)
 CCSD(T)= -0.33894388562D+02

 The electronic state is 1-A'.
 Alpha  occ. eigenvalues --   -1.34491  -1.34460  -0.70114  -0.70081  -0.54100
 Alpha  occ. eigenvalues --   -0.53964  -0.49019  -0.48985
 Alpha virt. eigenvalues --    0.21015   0.21244   0.31329   0.31384   0.81435
 Alpha virt. eigenvalues --    0.81660   0.83073   0.86647   0.87694   0.88167
 Alpha virt. eigenvalues --    1.18283   1.18314   1.22750   1.22820   2.58342

 Mulliken charges:
               1
     1  O   -0.730503
     2  H    0.364547
     3  H    0.365957
     4  O   -0.730390
     5  H    0.364303
     6  H    0.366086
 Sum of Mulliken charges =   0.00000

 Dipole moment (field-independent basis, Debye):
    X=             -0.5115    Y=             -0.0520    Z=              0.0000  Tot=              0.5141
 Quadrupole moment (field-independent basis, Debye-Ang):
   XX=             -8.1477   YY=             12.0353   ZZ=            -14.9851
   XY=             -0.8519   XZ=              0.0000   YZ=              0.0000

 MP4DQ=-33.8887189\MP4SDQ=-33.8907558\CCSD=-33.8918155\CCSD(T)=-33.8943
 Normal termination of Gaussian 16 at Sun Dec 10 06:30:22 2023.
