 Gaussian 16, Revision A.03,
 Gaussian 16:  ES64L-G16RevA.03 25-Dec-2016

 ------------------
 #p CCSD(T)/CEP-31G
 ------------------

 ---------
 H2O_H2O_2
 ---------
 Symbolic Z-matrix:
 Charge =  0 Multiplicity = 1

                         Standard orientation:
 ---------------------------------------------------------------------
 Center     Atomic      Atomic             Coordinates (Angstroms)
 Number     Number       Type             X           Y           Z
 ---------------------------------------------------------------------
      1          8           0        0.007455   -0.803075    0.000000
      2          1           0       -0.792572   -1.373568    0.000000
      3          1           0        0.806570   -1.374845    0.000000
      4          8           0        0.007455    0.804040    0.000000
      5          1           0        0.726173    1.474077    0.000000
      6          1           0       -0.859455    1.266612    0.000000
 ---------------------------------------------------------------------

 SCF Done:  E(RHF) =  -33.4546448926     A.U. after   11 cycles
 E2 =    -0.2410212704D+00 EUMP2 =    -0.33695666162967D+02
 CCSD(T)
 CCSD(T)= -0.33711684276D+02

 The electronic state is 1-A'.
 Alpha  occ. eigenvalues --   -1.38241  -1.28772  -0.71351  -0.68369  -0.65131
 Alpha  occ. eigenvalues --   -0.52741  -0.42331  -0.29248
 Alpha virt. eigenvalues --    0.20964   0.29175   0.31233   0.33679   0.80191
 Alpha virt. eigenvalues --    0.82202   0.87216   0.88548   1.02818   1.18659
 Alpha virt. eigenvalues --    1.20385   1.25222   1.27612   1.41599   2.53191

 Mulliken charges:
               1
     1  O   -0.682195
     2  H    0.333263
     3  H    0.348728
     4  O   -0.679849
     5  H    0.338598
     6  H    0.341454
 Sum of Mulliken charges =   0.00000

 Dipole moment (field-independent basis, Debye):
    X=             -0.2722    Y=             -0.0306    Z=              0.0000  Tot=              0.2740
 Quadrupole moment (field-independent basis, Debye-Ang):
   XX=             -8.6639   YY=             -8.5147   ZZ=            -15.0218
   XY=             -0.2038   XZ=              0.0000   YZ=              0.0000

 =-33.7045354\MP4SDQ=-33.7075139\CCSD=-33.7078869\CCSD(T)=-33.7116843\R
 Normal termination of Gaussian 16 at Sun Dec 10 06:24:46 2023.
