 Gaussian 16, Revision A.03,
 Gaussian 16:  ES64L-G16RevA.03 25-Dec-2016

 ------------------
 #p CCSD(T)/CEP-31G
 ------------------

 ------------
 H2O_H2O_1543
 ------------
 Symbolic Z-matrix:
 Charge =  0 Multiplicity = 1

                         Standard orientation:
 ---------------------------------------------------------------------
 Center     Atomic      Atomic             Coordinates (Angstroms)
 Number     Number       Type             X           Y           Z
 ---------------------------------------------------------------------
      1          8           0        0.052865   -1.576513    0.000000
      2          1           0       -0.748313   -2.145389    0.000000
      3          1           0        0.850823   -2.149896    0.000000
      4          8           0        0.052865    1.646729    0.000000
      5          1           0       -0.166110    2.604620    0.000000
      6          1           0       -0.782238    1.128936    0.000000
 ---------------------------------------------------------------------

 SCF Done:  E(RHF) =  -33.6501367548     A.U. after   11 cycles
 E2 =    -0.2290314832D+00 EUMP2 =    -0.33879168238002D+02
 CCSD(T)
 CCSD(T)= -0.33896280630D+02

 The electronic state is 1-A'.
 Alpha  occ. eigenvalues --   -1.35281  -1.33106  -0.70922  -0.68665  -0.54967
 Alpha  occ. eigenvalues --   -0.52680  -0.49837  -0.47665
 Alpha virt. eigenvalues --    0.19645   0.23660   0.30586   0.32888   0.75732
 Alpha virt. eigenvalues --    0.79284   0.84387   0.85940   0.88400   1.08034
 Alpha virt. eigenvalues --    1.17468   1.20859   1.22125   1.26286   2.56231

 Mulliken charges:
               1
     1  O   -0.737219
     2  H    0.360495
     3  H    0.377551
     4  O   -0.729142
     5  H    0.349874
     6  H    0.378441
 Sum of Mulliken charges =   0.00000

 Dipole moment (field-independent basis, Debye):
    X=             -2.3737    Y=             -1.7502    Z=              0.0000  Tot=              2.9491
 Quadrupole moment (field-independent basis, Debye-Ang):
   XX=             -9.8436   YY=              1.0091   ZZ=            -14.9906
   XY=             -3.5734   XZ=              0.0000   YZ=              0.0000

 5\MP4DQ=-33.8905364\MP4SDQ=-33.8926231\CCSD=-33.8936646\CCSD(T)=-33.89
 Normal termination of Gaussian 16 at Sun Dec 10 06:53:34 2023.
