 Gaussian 16, Revision A.03,
 Gaussian 16:  ES64L-G16RevA.03 25-Dec-2016

 ------------------
 #p CCSD(T)/CEP-31G
 ------------------

 ------------
 H2O_H2O_1650
 ------------
 Symbolic Z-matrix:
 Charge =  0 Multiplicity = 1

                         Standard orientation:
 ---------------------------------------------------------------------
 Center     Atomic      Atomic             Coordinates (Angstroms)
 Number     Number       Type             X           Y           Z
 ---------------------------------------------------------------------
      1          8           0        0.000000   -0.000000    1.681129
      2          1           0        0.000000    0.799571    2.252261
      3          1           0       -0.000000   -0.799571    2.252261
      4          8           0        0.000000   -0.000000   -1.681129
      5          1           0       -0.000000   -0.799571   -2.252261
      6          1           0        0.000000    0.799571   -2.252261
 ---------------------------------------------------------------------

 SCF Done:  E(RHF) =  -33.6438303254     A.U. after   10 cycles
 E2 =    -0.2289610959D+00 EUMP2 =    -0.33872791421251D+02
 CCSD(T)
 CCSD(T)= -0.33890049012D+02

 The electronic state is 1-AG.
 Alpha  occ. eigenvalues --   -1.33637  -1.33569  -0.69253  -0.69186  -0.53610
 Alpha  occ. eigenvalues --   -0.52116  -0.48186  -0.47941
 Alpha virt. eigenvalues --    0.21164   0.22401   0.31810   0.32182   0.76706
 Alpha virt. eigenvalues --    0.80688   0.84289   0.84719   0.93503   1.01882
 Alpha virt. eigenvalues --    1.18959   1.19066   1.23311   1.23878   2.58669

 Mulliken charges:
               1
     1  O   -0.715299
     2  H    0.357649
     3  H    0.357649
     4  O   -0.715299
     5  H    0.357649
     6  H    0.357649
 Sum of Mulliken charges =  -0.00000

 Dipole moment (field-independent basis, Debye):
    X=             -0.0000    Y=              0.0000    Z=              0.0000  Tot=              0.0000
 Quadrupole moment (field-independent basis, Debye-Ang):
   XX=            -14.9832   YY=             -8.1418   ZZ=              5.4508
   XY=              0.0000   XZ=              0.0000   YZ=             -0.0000

 -33.8842984\MP4SDQ=-33.8863715\CCSD=-33.8874368\CCSD(T)=-33.890049\RMS
 Normal termination of Gaussian 16 at Sun Dec 10 06:55:34 2023.
