 Gaussian 16, Revision A.03,
 Gaussian 16:  ES64L-G16RevA.03 25-Dec-2016

 ------------------
 #p CCSD(T)/CEP-31G
 ------------------

 ----------
 H2O_H2O_51
 ----------
 Symbolic Z-matrix:
 Charge =  0 Multiplicity = 1

                         Standard orientation:
 ---------------------------------------------------------------------
 Center     Atomic      Atomic             Coordinates (Angstroms)
 Number     Number       Type             X           Y           Z
 ---------------------------------------------------------------------
      1          8           0        0.003735   -0.830059    0.000000
      2          1           0       -0.796057   -1.400882    0.000000
      3          1           0        0.803085   -1.401501    0.000000
      4          8           0        0.003735    0.830301    0.000000
      5          1           0        0.764482    1.452210    0.000000
      6          1           0       -0.831277    1.348239    0.000000
 ---------------------------------------------------------------------

 SCF Done:  E(RHF) =  -33.4843531321     A.U. after   11 cycles
 E2 =    -0.2390183017D+00 EUMP2 =    -0.33723371433803D+02
 CCSD(T)
 CCSD(T)= -0.33739648432D+02

 The electronic state is 1-A'.
 Alpha  occ. eigenvalues --   -1.36890  -1.28915  -0.70442  -0.66644  -0.65254
 Alpha  occ. eigenvalues --   -0.51603  -0.42411  -0.31237
 Alpha virt. eigenvalues --    0.21165   0.28627   0.31613   0.33715   0.79655
 Alpha virt. eigenvalues --    0.82263   0.87717   0.89020   1.04874   1.19203
 Alpha virt. eigenvalues --    1.20459   1.25105   1.27975   1.39023   2.51569

 Mulliken charges:
               1
     1  O   -0.688070
     2  H    0.340446
     3  H    0.347525
     4  O   -0.687384
     5  H    0.343754
     6  H    0.343730
 Sum of Mulliken charges =   0.00000

 Dipole moment (field-independent basis, Debye):
    X=             -0.1362    Y=             -0.0072    Z=              0.0000  Tot=              0.1364
 Quadrupole moment (field-independent basis, Debye-Ang):
   XX=             -8.5668   YY=             -7.7108   ZZ=            -15.0324
   XY=             -0.0911   XZ=              0.0000   YZ=              0.0000

 P4DQ=-33.7326899\MP4SDQ=-33.7355247\CCSD=-33.736052\CCSD(T)=-33.739648
 Normal termination of Gaussian 16 at Sun Dec 10 06:25:41 2023.
