 Gaussian 16, Revision A.03,
 Gaussian 16:  ES64L-G16RevA.03 25-Dec-2016

 ------------------
 #p CCSD(T)/CEP-31G
 ------------------

 ------------
 H2O_H2O_4233
 ------------
 Symbolic Z-matrix:
 Charge =  0 Multiplicity = 1

                         Standard orientation:
 ---------------------------------------------------------------------
 Center     Atomic      Atomic             Coordinates (Angstroms)
 Number     Number       Type             X           Y           Z
 ---------------------------------------------------------------------
      1          8           0        0.028563   -3.042321    0.000000
      2          1           0       -0.771468   -3.612809    0.000000
      3          1           0        0.827673   -3.614098    0.000000
      4          8           0        0.028563    3.057579    0.000000
      5          1           0        0.436168    3.951650    0.000000
      6          1           0       -0.949376    3.153196    0.000000
 ---------------------------------------------------------------------

 SCF Done:  E(RHF) =  -33.6506926872     A.U. after   11 cycles
 E2 =    -0.2284406919D+00 EUMP2 =    -0.33879133379048D+02
 CCSD(T)
 CCSD(T)= -0.33896165259D+02

 The electronic state is 1-A'.
 Alpha  occ. eigenvalues --   -1.35059  -1.34936  -0.70687  -0.70560  -0.54733
 Alpha  occ. eigenvalues --   -0.54609  -0.49614  -0.49491
 Alpha virt. eigenvalues --    0.20652   0.20777   0.30884   0.31005   0.80940
 Alpha virt. eigenvalues --    0.81061   0.84069   0.84194   0.87141   0.87287
 Alpha virt. eigenvalues --    1.17796   1.17918   1.22263   1.22386   2.57840

 Mulliken charges:
               1
     1  O   -0.737231
     2  H    0.367794
     3  H    0.369438
     4  O   -0.737044
     5  H    0.367312
     6  H    0.369732
 Sum of Mulliken charges =  -0.00000

 Dipole moment (field-independent basis, Debye):
    X=             -1.3179    Y=             -0.3573    Z=              0.0000  Tot=              1.3654
 Quadrupole moment (field-independent basis, Debye-Ang):
   XX=             -8.5685   YY=             18.6514   ZZ=            -14.9869
   XY=             -3.2765   XZ=              0.0000   YZ=              0.0000

 \MP4DQ=-33.8905126\MP4SDQ=-33.8925432\CCSD=-33.8936005\CCSD(T)=-33.896
 Normal termination of Gaussian 16 at Sun Dec 10 06:56:17 2023.
