 Gaussian 16, Revision A.03,
 Gaussian 16:  ES64L-G16RevA.03 25-Dec-2016

 ------------------
 #p CCSD(T)/CEP-31G
 ------------------

 ------------
 H2O_H2O_4694
 ------------
 Symbolic Z-matrix:
 Charge =  0 Multiplicity = 1

                         Standard orientation:
 ---------------------------------------------------------------------
 Center     Atomic      Atomic             Coordinates (Angstroms)
 Number     Number       Type             X           Y           Z
 ---------------------------------------------------------------------
      1          8           0        0.054137   -3.247923    0.000000
      2          1           0       -0.746242   -3.817922    0.000000
      3          1           0        0.852898   -3.820187    0.000000
      4          8           0        0.054137    3.325279    0.000000
      5          1           0       -0.228339    4.266403    0.000000
      6          1           0       -0.744511    2.752856    0.000000
 ---------------------------------------------------------------------

 SCF Done:  E(RHF) =  -33.6516713631     A.U. after   11 cycles
 E2 =    -0.2283902015D+00 EUMP2 =    -0.33880061564613D+02
 CCSD(T)
 CCSD(T)= -0.33897065116D+02

 The electronic state is 1-A'.
 Alpha  occ. eigenvalues --   -1.35523  -1.34993  -0.71155  -0.70615  -0.55251
 Alpha  occ. eigenvalues --   -0.54715  -0.50093  -0.49562
 Alpha virt. eigenvalues --    0.20242   0.20786   0.30481   0.31017   0.80459
 Alpha virt. eigenvalues --    0.80983   0.83495   0.84029   0.86602   0.87180
 Alpha virt. eigenvalues --    1.17374   1.17902   1.21833   1.22368   2.57393

 Mulliken charges:
               1
     1  O   -0.740713
     2  H    0.369156
     3  H    0.371557
     4  O   -0.740465
     5  H    0.367775
     6  H    0.372691
 Sum of Mulliken charges =   0.00000

 Dipole moment (field-independent basis, Debye):
    X=             -2.4994    Y=             -1.8076    Z=              0.0000  Tot=              3.0845
 Quadrupole moment (field-independent basis, Debye-Ang):
   XX=             -9.9427   YY=             12.6488   ZZ=            -14.9885
   XY=             -7.8839   XZ=              0.0000   YZ=              0.0000

 \MP4DQ=-33.8914201\MP4SDQ=-33.8934481\CCSD=-33.8945036\CCSD(T)=-33.897
 Normal termination of Gaussian 16 at Sun Dec 10 07:06:10 2023.
