 Gaussian 16, Revision A.03,
 Gaussian 16:  ES64L-G16RevA.03 25-Dec-2016

 ------------------
 #p CCSD(T)/CEP-31G
 ------------------

 ------------
 H2O_H2O_4086
 ------------
 Symbolic Z-matrix:
 Charge =  0 Multiplicity = 1

                         Standard orientation:
 ---------------------------------------------------------------------
 Center     Atomic      Atomic             Coordinates (Angstroms)
 Number     Number       Type             X           Y           Z
 ---------------------------------------------------------------------
      1          8           0        0.037673   -2.955482    0.000000
      2          1           0       -0.762521   -3.525741    0.000000
      3          1           0        0.836620   -3.527486    0.000000
      4          8           0        0.037673    2.983746    0.000000
      5          1           0        0.263293    3.940094    0.000000
      6          1           0       -0.940157    2.887019    0.000000
 ---------------------------------------------------------------------

 SCF Done:  E(RHF) =  -33.6508152571     A.U. after   11 cycles
 E2 =    -0.2284383411D+00 EUMP2 =    -0.33879253598174D+02
 CCSD(T)
 CCSD(T)= -0.33896281947D+02

 The electronic state is 1-A'.
 Alpha  occ. eigenvalues --   -1.35131  -1.34889  -0.70759  -0.70511  -0.54811
 Alpha  occ. eigenvalues --   -0.54569  -0.49688  -0.49447
 Alpha virt. eigenvalues --    0.20587   0.20832   0.30821   0.31057   0.80866
 Alpha virt. eigenvalues --    0.81104   0.83982   0.84225   0.87059   0.87343
 Alpha virt. eigenvalues --    1.17730   1.17969   1.22196   1.22436   2.57770

 Mulliken charges:
               1
     1  O   -0.737679
     2  H    0.367679
     3  H    0.370000
     4  O   -0.737341
     5  H    0.366865
     6  H    0.370476
 Sum of Mulliken charges =   0.00000

 Dipole moment (field-independent basis, Debye):
    X=             -1.7376    Y=             -0.6624    Z=              0.0000  Tot=              1.8596
 Quadrupole moment (field-independent basis, Debye-Ang):
   XX=             -8.9600   YY=             16.3923   ZZ=            -14.9872
   XY=             -4.3418   XZ=              0.0000   YZ=              0.0000

 \MP4DQ=-33.8906302\MP4SDQ=-33.8926605\CCSD=-33.8937175\CCSD(T)=-33.896
 Normal termination of Gaussian 16 at Sun Dec 10 06:53:41 2023.
