 Gaussian 16, Revision A.03,
 Gaussian 16:  ES64L-G16RevA.03 25-Dec-2016

 ------------------
 #p CCSD(T)/CEP-31G
 ------------------

 ------------
 H2O_H2O_3130
 ------------
 Symbolic Z-matrix:
 Charge =  0 Multiplicity = 1

                         Standard orientation:
 ---------------------------------------------------------------------
 Center     Atomic      Atomic             Coordinates (Angstroms)
 Number     Number       Type             X           Y           Z
 ---------------------------------------------------------------------
      1          8           0        0.018360   -2.462308    0.000000
      2          1           0       -0.781577   -3.032928    0.000000
      3          1           0        0.817565   -3.033953    0.000000
      4          8           0        0.018360    2.468347    0.000000
      5          1           0        0.592426    3.265814    0.000000
      6          1           0       -0.922180    2.752758    0.000000
 ---------------------------------------------------------------------

 SCF Done:  E(RHF) =  -33.6494365384     A.U. after   11 cycles
 E2 =    -0.2285174349D+00 EUMP2 =    -0.33877953973217D+02
 CCSD(T)
 CCSD(T)= -0.33895022207D+02

 The electronic state is 1-A'.
 Alpha  occ. eigenvalues --   -1.34677  -1.34601  -0.70301  -0.70223  -0.54285
 Alpha  occ. eigenvalues --   -0.54192  -0.49214  -0.49138
 Alpha virt. eigenvalues --    0.20936   0.21071   0.31194   0.31267   0.81321
 Alpha virt. eigenvalues --    0.81430   0.83876   0.85383   0.87574   0.87780
 Alpha virt. eigenvalues --    1.18126   1.18200   1.22604   1.22680   2.58200

 Mulliken charges:
               1
     1  O   -0.732894
     2  H    0.365495
     3  H    0.367401
     4  O   -0.732677
     5  H    0.365080
     6  H    0.367596
 Sum of Mulliken charges =   0.00000

 Dipole moment (field-independent basis, Debye):
    X=             -0.8443    Y=             -0.1428    Z=              0.0000  Tot=              0.8563
 Quadrupole moment (field-independent basis, Debye-Ang):
   XX=             -8.2746   YY=             13.5672   ZZ=            -14.9857
   XY=             -1.5671   XZ=              0.0000   YZ=              0.0000

 MP4DQ=-33.8893591\MP4SDQ=-33.8913934\CCSD=-33.8924524\CCSD(T)=-33.8950
 Normal termination of Gaussian 16 at Sun Dec 10 06:36:14 2023.
