 Gaussian 16, Revision A.03,
 Gaussian 16:  ES64L-G16RevA.03 25-Dec-2016

 ------------------
 #p CCSD(T)/CEP-31G
 ------------------

 ------------
 H2O_H2O_2410
 ------------
 Symbolic Z-matrix:
 Charge =  0 Multiplicity = 1

                         Standard orientation:
 ---------------------------------------------------------------------
 Center     Atomic      Atomic             Coordinates (Angstroms)
 Number     Number       Type             X           Y           Z
 ---------------------------------------------------------------------
      1          8           0        0.034785   -2.067240    0.000000
      2          1           0       -0.765607   -2.637220    0.000000
      3          1           0        0.833533   -2.639523    0.000000
      4          8           0        0.034785    2.090744    0.000000
      5          1           0        0.322798    3.030189    0.000000
      6          1           0       -0.947288    2.058520    0.000000
 ---------------------------------------------------------------------

 SCF Done:  E(RHF) =  -33.6487745533     A.U. after   11 cycles
 E2 =    -0.2286196571D+00 EUMP2 =    -0.33877394210418D+02
 CCSD(T)
 CCSD(T)= -0.33894483758D+02

 The electronic state is 1-A'.
 Alpha  occ. eigenvalues --   -1.34610  -1.34189  -0.70235  -0.69793  -0.54203
 Alpha  occ. eigenvalues --   -0.53707  -0.49138  -0.48719
 Alpha virt. eigenvalues --    0.20794   0.21606   0.31227   0.31627   0.80725
 Alpha virt. eigenvalues --    0.81214   0.82020   0.86298   0.87907   0.91541
 Alpha virt. eigenvalues --    1.18166   1.18597   1.22650   1.23084   2.58166

 Mulliken charges:
               1
     1  O   -0.730743
     2  H    0.362548
     3  H    0.368250
     4  O   -0.729223
     5  H    0.360688
     6  H    0.368480
 Sum of Mulliken charges =  -0.00000

 Dipole moment (field-independent basis, Debye):
    X=             -1.5908    Y=             -0.5643    Z=              0.0000  Tot=              1.6879
 Quadrupole moment (field-independent basis, Debye-Ang):
   XX=             -8.8455   YY=              8.2929   ZZ=            -14.9857
   XY=             -2.5632   XZ=              0.0000   YZ=              0.0000

 \MP4DQ=-33.8888095\MP4SDQ=-33.8908502\CCSD=-33.8919068\CCSD(T)=-33.894
 Normal termination of Gaussian 16 at Sun Dec 10 07:10:46 2023.
