 Gaussian 16, Revision A.03,
 Gaussian 16:  ES64L-G16RevA.03 25-Dec-2016

 ------------------
 #p CCSD(T)/CEP-31G
 ------------------

 ------------
 H2O_H2O_4579
 ------------
 Symbolic Z-matrix:
 Charge =  0 Multiplicity = 1

                         Standard orientation:
 ---------------------------------------------------------------------
 Center     Atomic      Atomic             Coordinates (Angstroms)
 Number     Number       Type             X           Y           Z
 ---------------------------------------------------------------------
      1          8           0        0.014783   -3.234643    0.000000
      2          1           0       -0.785013   -3.805461    0.000000
      3          1           0        0.814129   -3.806089    0.000000
      4          8           0        0.014783    3.238524    0.000000
      5          1           0        0.639588    3.996893    0.000000
      6          1           0       -0.905229    3.583612    0.000000
 ---------------------------------------------------------------------

 SCF Done:  E(RHF) =  -33.6507315627     A.U. after   11 cycles
 E2 =    -0.2284343274D+00 EUMP2 =    -0.33879165890142D+02
 CCSD(T)
 CCSD(T)= -0.33896196679D+02

 The electronic state is 1-A'.
 Alpha  occ. eigenvalues --   -1.35045  -1.35017  -0.70673  -0.70645  -0.54721
 Alpha  occ. eigenvalues --   -0.54693  -0.49601  -0.49573
 Alpha virt. eigenvalues --    0.20668   0.20696   0.30900   0.30927   0.80953
 Alpha virt. eigenvalues --    0.80981   0.84080   0.84108   0.87153   0.87186
 Alpha virt. eigenvalues --    1.17811   1.17839   1.22278   1.22305   2.57854

 Mulliken charges:
               1
     1  O   -0.737351
     2  H    0.368313
     3  H    0.369038
     4  O   -0.737310
     5  H    0.368140
     6  H    0.369171
 Sum of Mulliken charges =   0.00000

 Dipole moment (field-independent basis, Debye):
    X=             -0.6825    Y=             -0.0907    Z=              0.0000  Tot=              0.6885
 Quadrupole moment (field-independent basis, Debye-Ang):
   XX=             -8.1788   YY=             21.8844   ZZ=            -14.9869
   XY=             -1.7672   XZ=              0.0000   YZ=              0.0000

 MP4DQ=-33.8905443\MP4SDQ=-33.8925748\CCSD=-33.8936322\CCSD(T)=-33.8961
 Normal termination of Gaussian 16 at Sun Dec 10 07:04:04 2023.
