 Gaussian 16, Revision A.03,
 Gaussian 16:  ES64L-G16RevA.03 25-Dec-2016

 ------------------
 #p CCSD(T)/CEP-31G
 ------------------

 -----------
 H2O_H2O_760
 -----------
 Symbolic Z-matrix:
 Charge =  0 Multiplicity = 1

                         Standard orientation:
 ---------------------------------------------------------------------
 Center     Atomic      Atomic             Coordinates (Angstroms)
 Number     Number       Type             X           Y           Z
 ---------------------------------------------------------------------
      1          8           0        0.034798   -1.189748    0.000000
      2          1           0       -0.766194   -1.758887    0.000000
      3          1           0        0.832943   -1.762870    0.000000
      4          8           0        0.034798    1.213179    0.000000
      5          1           0        0.323798    2.152320    0.000000
      6          1           0       -0.947309    1.181988    0.000000
 ---------------------------------------------------------------------

 SCF Done:  E(RHF) =  -33.6313781860     A.U. after   11 cycles
 E2 =    -0.2303368802D+00 EUMP2 =    -0.33861715066238D+02
 CCSD(T)
 CCSD(T)= -0.33879124753D+02

 The electronic state is 1-A'.
 Alpha  occ. eigenvalues --   -1.33378  -1.31917  -0.68945  -0.67674  -0.55165
 Alpha  occ. eigenvalues --   -0.48096  -0.47998  -0.46011
 Alpha virt. eigenvalues --    0.20839   0.24896   0.32195   0.32935   0.79062
 Alpha virt. eigenvalues --    0.81644   0.89057   0.90580   0.99571   1.13990
 Alpha virt. eigenvalues --    1.19270   1.22611   1.24114   1.28718   2.55015

 Mulliken charges:
               1
     1  O   -0.720982
     2  H    0.345783
     3  H    0.368686
     4  O   -0.691885
     5  H    0.345619
     6  H    0.352780
 Sum of Mulliken charges =  -0.00000

 Dipole moment (field-independent basis, Debye):
    X=             -1.4691    Y=             -0.5692    Z=              0.0000  Tot=              1.5755
 Quadrupole moment (field-independent basis, Debye-Ang):
   XX=             -8.9618   YY=             -1.0901   ZZ=            -14.9956
   XY=             -1.2556   XZ=              0.0000   YZ=              0.0000

 MP4DQ=-33.8731578\MP4SDQ=-33.875309\CCSD=-33.8763854\CCSD(T)=-33.87912
 Normal termination of Gaussian 16 at Sun Dec 10 06:38:57 2023.
