 Gaussian 16, Revision A.03,
 Gaussian 16:  ES64L-G16RevA.03 25-Dec-2016

 ------------------
 #p CCSD(T)/CEP-31G
 ------------------

 ----------
 H2O_H2O_83
 ----------
 Symbolic Z-matrix:
 Charge =  0 Multiplicity = 1

                         Standard orientation:
 ---------------------------------------------------------------------
 Center     Atomic      Atomic             Coordinates (Angstroms)
 Number     Number       Type             X           Y           Z
 ---------------------------------------------------------------------
      1          8           0        0.028579   -0.835263    0.000000
      2          1           0       -0.772655   -1.404060    0.000000
      3          1           0        0.826480   -1.408725    0.000000
      4          8           0        0.028579    0.850400    0.000000
      5          1           0        0.438070    1.743609    0.000000
      6          1           0       -0.949155    0.948081    0.000000
 ---------------------------------------------------------------------

 SCF Done:  E(RHF) =  -33.5054985309     A.U. after   12 cycles
 E2 =    -0.2373362198D+00 EUMP2 =    -0.33742834750729D+02
 CCSD(T)
 CCSD(T)= -0.33759435103D+02

 The electronic state is 1-A'.
 Alpha  occ. eigenvalues --   -1.37021  -1.29035  -0.71525  -0.67896  -0.61896
 Alpha  occ. eigenvalues --   -0.51581  -0.42719  -0.34073
 Alpha virt. eigenvalues --    0.20743   0.28357   0.31590   0.33588   0.81872
 Alpha virt. eigenvalues --    0.83117   0.89166   0.90939   1.00331   1.19505
 Alpha virt. eigenvalues --    1.22758   1.23553   1.27052   1.37879   2.53003

 Mulliken charges:
               1
     1  O   -0.716881
     2  H    0.332112
     3  H    0.376296
     4  O   -0.671986
     5  H    0.338296
     6  H    0.342163
 Sum of Mulliken charges =  -0.00000

 Dipole moment (field-independent basis, Debye):
    X=             -1.0367    Y=             -0.4155    Z=              0.0000  Tot=              1.1169
 Quadrupole moment (field-independent basis, Debye-Ang):
   XX=             -8.9102   YY=             -7.2848   ZZ=            -14.9960
   XY=             -0.6879   XZ=              0.0000   YZ=              0.0000

 P4DQ=-33.7526347\MP4SDQ=-33.7553586\CCSD=-33.7559851\CCSD(T)=-33.75943
 Normal termination of Gaussian 16 at Sun Dec 10 06:26:17 2023.
