 Gaussian 16, Revision A.03,
 Gaussian 16:  ES64L-G16RevA.03 25-Dec-2016

 ------------------
 #p CCSD(T)/CEP-31G
 ------------------

 ------------
 H2O_H2O_3737
 ------------
 Symbolic Z-matrix:
 Charge =  0 Multiplicity = 1

                         Standard orientation:
 ---------------------------------------------------------------------
 Center     Atomic      Atomic             Coordinates (Angstroms)
 Number     Number       Type             X           Y           Z
 ---------------------------------------------------------------------
      1          8           0        0.040406   -2.766574    0.000000
      2          1           0       -0.759878   -3.336707    0.000000
      3          1           0        0.839263   -3.338704    0.000000
      4          8           0        0.040406    2.799929    0.000000
      5          1           0        0.203148    3.768961    0.000000
      6          1           0       -0.929029    2.639609    0.000000
 ---------------------------------------------------------------------

 SCF Done:  E(RHF) =  -33.6507062473     A.U. after   11 cycles
 E2 =    -0.2284500326D+00 EUMP2 =    -0.33879156279914D+02
 CCSD(T)
 CCSD(T)= -0.33896187811D+02

 The electronic state is 1-A'.
 Alpha  occ. eigenvalues --   -1.35112  -1.34786  -0.70741  -0.70405  -0.54786
 Alpha  occ. eigenvalues --   -0.54459  -0.49667  -0.49342
 Alpha virt. eigenvalues --    0.20599   0.20932   0.30833   0.31152   0.80886
 Alpha virt. eigenvalues --    0.81206   0.83988   0.84362   0.87084   0.87476
 Alpha virt. eigenvalues --    1.17744   1.18066   1.22211   1.22535   2.57787

 Mulliken charges:
               1
     1  O   -0.737318
     2  H    0.367173
     3  H    0.370145
     4  O   -0.736811
     5  H    0.366069
     6  H    0.370742
 Sum of Mulliken charges =  -0.00000

 Dipole moment (field-independent basis, Debye):
    X=             -1.8620    Y=             -0.7837    Z=              0.0000  Tot=              2.0202
 Quadrupole moment (field-independent basis, Debye-Ang):
   XX=             -9.0996   YY=             14.0987   ZZ=            -14.9872
   XY=             -4.3807   XZ=              0.0000   YZ=              0.0000

 P4DQ=-33.8905351\MP4SDQ=-33.8925658\CCSD=-33.8936228\CCSD(T)=-33.89618
 Normal termination of Gaussian 16 at Sun Dec 10 06:47:13 2023.
