 Gaussian 16, Revision A.03,
 Gaussian 16:  ES64L-G16RevA.03 25-Dec-2016

 ------------------
 #p CCSD(T)/CEP-31G
 ------------------

 ------------
 H2O_H2O_1630
 ------------
 Symbolic Z-matrix:
 Charge =  0 Multiplicity = 1

                         Standard orientation:
 ---------------------------------------------------------------------
 Center     Atomic      Atomic             Coordinates (Angstroms)
 Number     Number       Type             X           Y           Z
 ---------------------------------------------------------------------
      1          8           0        0.018361   -1.664559    0.000000
      2          1           0       -0.781751   -2.234933    0.000000
      3          1           0        0.817391   -2.236449    0.000000
      4          8           0        0.018361    1.670586    0.000000
      5          1           0        0.592671    2.467878    0.000000
      6          1           0       -0.922091    1.955287    0.000000
 ---------------------------------------------------------------------

 SCF Done:  E(RHF) =  -33.6442004978     A.U. after   11 cycles
 E2 =    -0.2289832667D+00 EUMP2 =    -0.33873183764476D+02
 CCSD(T)
 CCSD(T)= -0.33890436086D+02

 The electronic state is 1-A'.
 Alpha  occ. eigenvalues --   -1.33729  -1.33546  -0.69347  -0.69155  -0.53678
 Alpha  occ. eigenvalues --   -0.52169  -0.48259  -0.47951
 Alpha virt. eigenvalues --    0.21051   0.22479   0.31835   0.32121   0.76374
 Alpha virt. eigenvalues --    0.80561   0.84342   0.84580   0.92851   1.03719
 Alpha virt. eigenvalues --    1.18876   1.19178   1.23376   1.23770   2.58773

 Mulliken charges:
               1
     1  O   -0.716721
     2  H    0.355654
     3  H    0.361093
     4  O   -0.715439
     5  H    0.354731
     6  H    0.360682
 Sum of Mulliken charges =   0.00000

 Dipole moment (field-independent basis, Debye):
    X=             -0.8297    Y=             -0.1498    Z=              0.0000  Tot=              0.8431
 Quadrupole moment (field-independent basis, Debye-Ang):
   XX=             -8.3486   YY=              5.0215   ZZ=            -14.9837
   XY=             -0.9319   XZ=              0.0000   YZ=              0.0000

 MP4DQ=-33.8846839\MP4SDQ=-33.8867595\CCSD=-33.8878231\CCSD(T)=-33.8904
 Normal termination of Gaussian 16 at Sun Dec 10 06:55:12 2023.
