 Gaussian 16, Revision A.03,
 Gaussian 16:  ES64L-G16RevA.03 25-Dec-2016

 ------------------
 #p CCSD(T)/CEP-31G
 ------------------

 -----------
 H2O_H2O_846
 -----------
 Symbolic Z-matrix:
 Charge =  0 Multiplicity = 1

                         Standard orientation:
 ---------------------------------------------------------------------
 Center     Atomic      Atomic             Coordinates (Angstroms)
 Number     Number       Type             X           Y           Z
 ---------------------------------------------------------------------
      1          8           0        0.056194   -1.192663    0.000000
      2          1           0       -0.745594   -1.760678    0.000000
      3          1           0        0.853536   -1.766904    0.000000
      4          8           0        0.056194    1.284168    0.000000
      5          1           0       -0.344484    2.181365    0.000000
      6          1           0       -0.662567    0.614176    0.000000
 ---------------------------------------------------------------------

 SCF Done:  E(RHF) =  -33.6449090455     A.U. after   11 cycles
 E2 =    -0.2302402922D+00 EUMP2 =    -0.33875149337718D+02
 CCSD(T)
 CCSD(T)= -0.33892129662D+02

 The electronic state is 1-A'.
 Alpha  occ. eigenvalues --   -1.36290  -1.31375  -0.71978  -0.68108  -0.54953
 Alpha  occ. eigenvalues --   -0.51119  -0.50874  -0.45903
 Alpha virt. eigenvalues --    0.19177   0.26514   0.29898   0.35406   0.77109
 Alpha virt. eigenvalues --    0.82631   0.88394   0.89503   0.96447   1.13535
 Alpha virt. eigenvalues --    1.19587   1.19827   1.24098   1.30641   2.68519

 Mulliken charges:
               1
     1  O   -0.766407
     2  H    0.362949
     3  H    0.401790
     4  O   -0.716983
     5  H    0.332489
     6  H    0.386163
 Sum of Mulliken charges =  -0.00000

 Dipole moment (field-independent basis, Debye):
    X=             -2.3945    Y=             -2.3854    Z=              0.0000  Tot=              3.3798
 Quadrupole moment (field-independent basis, Debye-Ang):
   XX=            -10.0516   YY=             -3.3464   ZZ=            -15.0026
   XY=             -3.2087   XZ=              0.0000   YZ=              0.0000

 4DQ=-33.8861634\MP4SDQ=-33.8883515\CCSD=-33.8893436\CCSD(T)=-33.892129
 Normal termination of Gaussian 16 at Sun Dec 10 06:40:34 2023.
