 Gaussian 16, Revision A.03,
 Gaussian 16:  ES64L-G16RevA.03 25-Dec-2016

 ------------------
 #p CCSD(T)/CEP-31G
 ------------------

 -----------
 H2O_H2O_203
 -----------
 Symbolic Z-matrix:
 Charge =  0 Multiplicity = 1

                         Standard orientation:
 ---------------------------------------------------------------------
 Center     Atomic      Atomic             Coordinates (Angstroms)
 Number     Number       Type             X           Y           Z
 ---------------------------------------------------------------------
      1          8           0        0.011143   -0.908786    0.000000
      2          1           0       -0.789029   -1.479075    0.000000
      3          1           0        0.810112   -1.480761    0.000000
      4          8           0        0.011143    0.910958    0.000000
      5          1           0        0.684683    1.626395    0.000000
      6          1           0       -0.884060    1.316071    0.000000
 ---------------------------------------------------------------------

 SCF Done:  E(RHF) =  -33.5497916714     A.U. after   11 cycles
 E2 =    -0.2348898569D+00 EUMP2 =    -0.33784681528287D+02
 CCSD(T)
 CCSD(T)= -0.33801502967D+02

 The electronic state is 1-A'.
 Alpha  occ. eigenvalues --   -1.34526  -1.29569  -0.69108  -0.65926  -0.62077
 Alpha  occ. eigenvalues --   -0.49474  -0.43076  -0.36632
 Alpha virt. eigenvalues --    0.21383   0.27271   0.32369   0.33631   0.79317
 Alpha virt. eigenvalues --    0.81770   0.89898   0.90812   1.06138   1.20230
 Alpha virt. eigenvalues --    1.21604   1.23768   1.28033   1.31918   2.48730

 Mulliken charges:
               1
     1  O   -0.700305
     2  H    0.341302
     3  H    0.357419
     4  O   -0.693519
     5  H    0.350074
     6  H    0.345030
 Sum of Mulliken charges =  -0.00000

 Dipole moment (field-independent basis, Debye):
    X=             -0.4140    Y=             -0.0555    Z=              0.0000  Tot=              0.4177
 Quadrupole moment (field-independent basis, Debye-Ang):
   XX=             -8.4869   YY=             -5.6946   ZZ=            -15.0346
   XY=             -0.2350   XZ=              0.0000   YZ=              0.0000

 4DQ=-33.7949863\MP4SDQ=-33.7974748\CCSD=-33.7983003\CCSD(T)=-33.801503
 Normal termination of Gaussian 16 at Sun Dec 10 06:28:32 2023.
