 Gaussian 16, Revision A.03,
 Gaussian 16:  ES64L-G16RevA.03 25-Dec-2016

 ------------------
 #p CCSD(T)/CEP-31G
 ------------------

 -----------
 H2O_H2O_656
 -----------
 Symbolic Z-matrix:
 Charge =  0 Multiplicity = 1

                         Standard orientation:
 ---------------------------------------------------------------------
 Center     Atomic      Atomic             Coordinates (Angstroms)
 Number     Number       Type             X           Y           Z
 ---------------------------------------------------------------------
      1          8           0        0.021863   -1.144608    0.000000
      2          1           0       -0.778642   -1.714430    0.000000
      3          1           0        0.820498   -1.717049    0.000000
      4          8           0        0.021863    1.153232    0.000000
      5          1           0        0.543373    1.986019    0.000000
      6          1           0       -0.935042    1.376473    0.000000
 ---------------------------------------------------------------------

 SCF Done:  E(RHF) =  -33.6228639517     A.U. after   11 cycles
 E2 =    -0.2306587588D+00 EUMP2 =    -0.33853522710451D+02
 CCSD(T)
 CCSD(T)= -0.33870906756D+02

 The electronic state is 1-A'.
 Alpha  occ. eigenvalues --   -1.32909  -1.31548  -0.68370  -0.67324  -0.55867
 Alpha  occ. eigenvalues --   -0.47718  -0.46016  -0.45437
 Alpha virt. eigenvalues --    0.21306   0.24965   0.32648   0.33060   0.79577
 Alpha virt. eigenvalues --    0.79622   0.89634   0.94821   1.01694   1.13166
 Alpha virt. eigenvalues --    1.19790   1.22935   1.24429   1.26923   2.52649

 Mulliken charges:
               1
     1  O   -0.708053
     2  H    0.343683
     3  H    0.360708
     4  O   -0.693522
     5  H    0.349183
     6  H    0.348001
 Sum of Mulliken charges =  -0.00000

 Dipole moment (field-independent basis, Debye):
    X=             -0.9044    Y=             -0.2045    Z=              0.0000  Tot=              0.9272
 Quadrupole moment (field-independent basis, Debye-Ang):
   XX=             -8.5578   YY=             -1.5033   ZZ=            -15.0034
   XY=             -0.6450   XZ=              0.0000   YZ=              0.0000

 P4DQ=-33.8648984\MP4SDQ=-33.8670492\CCSD=-33.8681236\CCSD(T)=-33.87090
 Normal termination of Gaussian 16 at Sun Dec 10 06:37:00 2023.
