 Gaussian 16, Revision A.03,
 Gaussian 16:  ES64L-G16RevA.03 25-Dec-2016

 ------------------
 #p CCSD(T)/CEP-31G
 ------------------

 ------------
 H2O_H2O_3102
 ------------
 Symbolic Z-matrix:
 Charge =  0 Multiplicity = 1

                         Standard orientation:
 ---------------------------------------------------------------------
 Center     Atomic      Atomic             Coordinates (Angstroms)
 Number     Number       Type             X           Y           Z
 ---------------------------------------------------------------------
      1          8           0        0.007455   -2.451763    0.000000
      2          1           0       -0.792265   -3.022686    0.000000
      3          1           0        0.806876   -3.023104    0.000000
      4          8           0        0.007455    2.452736    0.000000
      5          1           0        0.725813    3.123159    0.000000
      6          1           0       -0.859703    2.914844    0.000000
 ---------------------------------------------------------------------

 SCF Done:  E(RHF) =  -33.6492495670     A.U. after   11 cycles
 E2 =    -0.2285242919D+00 EUMP2 =    -0.33877773858920D+02
 CCSD(T)
 CCSD(T)= -0.33894847415D+02

 The electronic state is 1-A'.
 Alpha  occ. eigenvalues --   -1.34610  -1.34597  -0.70233  -0.70221  -0.54223
 Alpha  occ. eigenvalues --   -0.54160  -0.49144  -0.49130
 Alpha virt. eigenvalues --    0.20973   0.21085   0.31244   0.31269   0.81371
 Alpha virt. eigenvalues --    0.81458   0.83860   0.85559   0.87600   0.87795
 Alpha virt. eigenvalues --    1.18185   1.18198   1.22657   1.22687   2.58264

 Mulliken charges:
               1
     1  O   -0.732236
     2  H    0.365725
     3  H    0.366511
     4  O   -0.732199
     5  H    0.365593
     6  H    0.366605
 Sum of Mulliken charges =  -0.00000

 Dipole moment (field-independent basis, Debye):
    X=             -0.3428    Y=             -0.0230    Z=              0.0000  Tot=              0.3436
 Quadrupole moment (field-independent basis, Debye-Ang):
   XX=             -8.0955   YY=             13.8452   ZZ=            -14.9854
   XY=             -0.6200   XZ=              0.0000   YZ=              0.0000

 4DQ=-33.8891828\MP4SDQ=-33.8912176\CCSD=-33.892277\CCSD(T)=-33.8948474
 Normal termination of Gaussian 16 at Sun Dec 10 06:35:45 2023.
