 Gaussian 16, Revision A.03,
 Gaussian 16:  ES64L-G16RevA.03 25-Dec-2016

 ------------------
 #p CCSD(T)/cc-pVTZ
 ------------------

 ----
 N2_0
 ----
 Symbolic Z-matrix:
 Charge = -1 Multiplicity = 2

                         Standard orientation:
 ---------------------------------------------------------------------
 Center     Atomic      Atomic             Coordinates (Angstroms)
 Number     Number       Type             X           Y           Z
 ---------------------------------------------------------------------
      1          7           0        0.000000    0.000000    0.400000
      2          7           0        0.000000    0.000000   -0.400000
 ---------------------------------------------------------------------

 SCF Done:  E(UHF) =  -108.200368642     A.U. after   12 cycles
 E2 =    -0.3339029890D+00 EUMP2 =    -0.10853427163121D+03
 CCSD(T)
 CCSD(T)= -0.10855584655D+03

 Unable to determine electronic state:  an orbital has unidentified symmetry.
 Alpha  occ. eigenvalues --  -15.20890 -15.17298  -1.28713  -0.47159  -0.42340
 Alpha  occ. eigenvalues --   -0.34413  -0.30856   0.27463
 Alpha virt. eigenvalues --    0.61638   0.69340   0.79167   0.79326   0.79845
 Alpha virt. eigenvalues --    1.04416   1.07603   1.13993   1.31697   1.38792
 Alpha virt. eigenvalues --    1.38811   1.85527   1.88371   1.90988   1.93692

  Beta  occ. eigenvalues --  -15.20216 -15.16571  -1.27533  -0.41788  -0.38754
  Beta  occ. eigenvalues --   -0.28523  -0.27817
  Beta virt. eigenvalues --    0.62940   0.65994   0.70397   0.79830   0.80788
  Beta virt. eigenvalues --    0.82261   1.05614   1.14774   1.17677   1.34428
  Beta virt. eigenvalues --    1.40754   1.40806   1.88844   1.91887   1.93188

 Mulliken charges and spin densities:
               1          2
     1  N   -0.500000   0.500000
     2  N   -0.500000   0.500000
 Sum of Mulliken charges =  -1.00000   1.00000

 Dipole moment (field-independent basis, Debye):
    X=             -0.0000    Y=             -0.0000    Z=              0.0000  Tot=              0.0000
 Quadrupole moment (field-independent basis, Debye-Ang):
   XX=            -11.0620   YY=            -13.6761   ZZ=            -16.8383
   XY=              0.0000   XZ=              0.0000   YZ=              0.0000

 =-108.5449403\MP4SDQ=-108.5451145\CCSD=-108.5450056\CCSD(T)=-108.55584
 Normal termination of Gaussian 16 at Sat Feb 10 15:37:03 2024.
