 Gaussian 16, Revision A.03,
 Gaussian 16:  ES64L-G16RevA.03 25-Dec-2016

 ------------------
 #p CCSD(T)/cc-pVTZ
 ------------------

 -----
 N2_13
 -----
 Symbolic Z-matrix:
 Charge = -1 Multiplicity = 2

                         Standard orientation:
 ---------------------------------------------------------------------
 Center     Atomic      Atomic             Coordinates (Angstroms)
 Number     Number       Type             X           Y           Z
 ---------------------------------------------------------------------
      1          7           0        0.000000    0.000000    0.595000
      2          7           0        0.000000    0.000000   -0.595000
 ---------------------------------------------------------------------

 SCF Done:  E(UHF) =  -108.870411243     A.U. after   11 cycles
 E2 =    -0.3791352180D+00 EUMP2 =    -0.10924954646125D+03
 CCSD(T)
 CCSD(T)= -0.10927178716D+03

 Unable to determine electronic state:  an orbital has unidentified symmetry.
 Alpha  occ. eigenvalues --  -15.27884 -15.27710  -1.02398  -0.47378  -0.31444
 Alpha  occ. eigenvalues --   -0.25241  -0.19955   0.02555
 Alpha virt. eigenvalues --    0.46313   0.67285   0.86500   0.87010   0.88654
 Alpha virt. eigenvalues --    0.97176   1.00072   1.03136   1.19933   1.33337
 Alpha virt. eigenvalues --    1.39924   1.39953   1.60874   1.63690   1.80202

  Beta  occ. eigenvalues --  -15.26036 -15.25835  -0.97962  -0.38951  -0.22134
  Beta  occ. eigenvalues --   -0.18561  -0.14425
  Beta virt. eigenvalues --    0.47937   0.51717   0.68513   0.87077   0.89238
  Beta virt. eigenvalues --    0.91675   1.00992   1.04309   1.07406   1.22445
  Beta virt. eigenvalues --    1.35938   1.42060   1.42091   1.63946   1.66916

 Mulliken charges and spin densities:
               1          2
     1  N   -0.500000   0.500000
     2  N   -0.500000   0.500000
 Sum of Mulliken charges =  -1.00000   1.00000

 Dipole moment (field-independent basis, Debye):
    X=             -0.0000    Y=             -0.0000    Z=              0.0000  Tot=              0.0000
 Quadrupole moment (field-independent basis, Debye-Ang):
   XX=            -14.0312   YY=            -12.6198   ZZ=            -17.1525
   XY=              0.0000   XZ=              0.0000   YZ=             -0.0000

 3-0=-109.2496702\MP4SDQ=-109.2547908\CCSD=-109.2531964\CCSD(T)=-109.27
 Normal termination of Gaussian 16 at Sat Feb 10 15:39:18 2024.
