 Gaussian 16, Revision A.03,
 Gaussian 16:  ES64L-G16RevA.03 25-Dec-2016

 ------------------
 #p CCSD(T)/cc-pVTZ
 ------------------

 -----
 N2_18
 -----
 Symbolic Z-matrix:
 Charge = -1 Multiplicity = 2

                         Standard orientation:
 ---------------------------------------------------------------------
 Center     Atomic      Atomic             Coordinates (Angstroms)
 Number     Number       Type             X           Y           Z
 ---------------------------------------------------------------------
      1          7           0        0.000000    0.000000    0.670000
      2          7           0        0.000000    0.000000   -0.670000
 ---------------------------------------------------------------------

 SCF Done:  E(UHF) =  -108.824715640     A.U. after   11 cycles
 E2 =    -0.4065981599D+00 EUMP2 =    -0.10923131379944D+03
 CCSD(T)
 CCSD(T)= -0.10924973924D+03

 Unable to determine electronic state:  an orbital has unidentified symmetry.
 Alpha  occ. eigenvalues --  -15.31931 -15.31843  -0.94276  -0.52110  -0.28910
 Alpha  occ. eigenvalues --   -0.23268  -0.15771  -0.04099
 Alpha virt. eigenvalues --    0.40710   0.64313   0.87938   0.88349   0.90550
 Alpha virt. eigenvalues --    0.95639   0.99585   1.01056   1.02569   1.35229
 Alpha virt. eigenvalues --    1.40991   1.41018   1.52648   1.55032   1.74828

  Beta  occ. eigenvalues --  -15.29902 -15.29795  -0.88836  -0.43281  -0.20697
  Beta  occ. eigenvalues --   -0.14271  -0.10118
  Beta virt. eigenvalues --    0.42512   0.46548   0.66029   0.89113   0.91285
  Beta virt. eigenvalues --    0.93857   1.00200   1.02201   1.05156   1.05214
  Beta virt. eigenvalues --    1.37305   1.43226   1.43249   1.55188   1.58003

 Mulliken charges and spin densities:
               1          2
     1  N   -0.500000   0.500000
     2  N   -0.500000   0.500000
 Sum of Mulliken charges =  -1.00000   1.00000

 Dipole moment (field-independent basis, Debye):
    X=             -0.0000    Y=             -0.0000    Z=             -0.0000  Tot=              0.0000
 Quadrupole moment (field-independent basis, Debye-Ang):
   XX=            -13.1108   YY=            -14.3628   ZZ=            -17.3894
   XY=              0.0000   XZ=              0.0000   YZ=              0.0000

 -0=-109.218002\MP4SDQ=-109.2304098\CCSD=-109.2263057\CCSD(T)=-109.2497
 Normal termination of Gaussian 16 at Sat Feb 10 15:40:13 2024.
