 Gaussian 16, Revision A.03,
 Gaussian 16:  ES64L-G16RevA.03 25-Dec-2016

 ------------------
 #p CCSD(T)/cc-pVTZ
 ------------------

 -----
 N2_14
 -----
 Symbolic Z-matrix:
 Charge = -1 Multiplicity = 2

                         Standard orientation:
 ---------------------------------------------------------------------
 Center     Atomic      Atomic             Coordinates (Angstroms)
 Number     Number       Type             X           Y           Z
 ---------------------------------------------------------------------
      1          7           0        0.000000    0.000000    0.610000
      2          7           0        0.000000    0.000000   -0.610000
 ---------------------------------------------------------------------

 SCF Done:  E(UHF) =  -108.865639430     A.U. after   11 cycles
 E2 =    -0.3840212350D+00 EUMP2 =    -0.10924966066502D+03
 CCSD(T)
 CCSD(T)= -0.10927142348D+03

 Unable to determine electronic state:  an orbital has unidentified symmetry.
 Alpha  occ. eigenvalues --  -15.28742 -15.28593  -1.00606  -0.48350  -0.30847
 Alpha  occ. eigenvalues --   -0.24863  -0.19003   0.01086
 Alpha virt. eigenvalues --    0.45136   0.66843   0.86917   0.87265   0.89101
 Alpha virt. eigenvalues --    0.96818   0.99902   1.02660   1.16483   1.32985
 Alpha virt. eigenvalues --    1.40105   1.40133   1.59097   1.61839   1.79092

  Beta  occ. eigenvalues --  -15.26850 -15.26676  -0.95956  -0.39833  -0.21859
  Beta  occ. eigenvalues --   -0.17582  -0.13437
  Beta virt. eigenvalues --    0.46799   0.50635   0.68141   0.87521   0.89713
  Beta virt. eigenvalues --    0.92175   1.00764   1.03828   1.06909   1.19173
  Beta virt. eigenvalues --    1.35354   1.42257   1.42286   1.62077   1.65020

 Mulliken charges and spin densities:
               1          2
     1  N   -0.500000   0.500000
     2  N   -0.500000   0.500000
 Sum of Mulliken charges =  -1.00000   1.00000

 Dipole moment (field-independent basis, Debye):
    X=             -0.0000    Y=              0.0000    Z=              0.0000  Tot=              0.0000
 Quadrupole moment (field-independent basis, Debye-Ang):
   XX=            -14.0977   YY=            -12.7250   ZZ=            -17.2007
   XY=              0.0000   XZ=              0.0000   YZ=             -0.0000

 -0=-109.2477046\MP4SDQ=-109.2539033\CCSD=-109.2519614\CCSD(T)=-109.271
 Normal termination of Gaussian 16 at Sat Feb 10 15:39:29 2024.
