 Gaussian 16, Revision A.03,
 Gaussian 16:  ES64L-G16RevA.03 25-Dec-2016

 ------------------
 #p CCSD(T)/cc-pVTZ
 ------------------

 -----
 N2_10
 -----
 Symbolic Z-matrix:
 Charge = -1 Multiplicity = 2

                         Standard orientation:
 ---------------------------------------------------------------------
 Center     Atomic      Atomic             Coordinates (Angstroms)
 Number     Number       Type             X           Y           Z
 ---------------------------------------------------------------------
      1          7           0        0.000000    0.000000    0.550000
      2          7           0        0.000000    0.000000   -0.550000
 ---------------------------------------------------------------------

 SCF Done:  E(UHF) =  -108.862514479     A.U. after   11 cycles
 E2 =    -0.3661538173D+00 EUMP2 =    -0.10922866829647D+03
 CCSD(T)
 CCSD(T)= -0.10925166806D+03

 Unable to determine electronic state:  an orbital has unidentified symmetry.
 Alpha  occ. eigenvalues --  -15.25245 -15.24948  -1.08239  -0.44408  -0.33577
 Alpha  occ. eigenvalues --   -0.26347  -0.23253   0.07408
 Alpha virt. eigenvalues --    0.49974   0.68346   0.85140   0.86009   0.87105
 Alpha virt. eigenvalues --    0.98462   1.00787   1.04796   1.25018   1.39486
 Alpha virt. eigenvalues --    1.39516   1.42130   1.66510   1.69502   1.83597

  Beta  occ. eigenvalues --  -15.23561 -15.23231  -1.04489  -0.36297  -0.22973
  Beta  occ. eigenvalues --   -0.21962  -0.17890
  Beta virt. eigenvalues --    0.51477   0.55074   0.69433   0.85676   0.87609
  Beta virt. eigenvalues --    0.89982   1.01862   1.05967   1.09103   1.27012
  Beta virt. eigenvalues --    1.41583   1.41618   1.45332   1.69814   1.72850

 Mulliken charges and spin densities:
               1          2
     1  N   -0.500000   0.500000
     2  N   -0.500000   0.500000
 Sum of Mulliken charges =  -1.00000   1.00000

 Dipole moment (field-independent basis, Debye):
    X=             -0.0000    Y=              0.0000    Z=              0.0000  Tot=              0.0000
 Quadrupole moment (field-independent basis, Debye-Ang):
   XX=            -13.8409   YY=            -12.2850   ZZ=            -17.0098
   XY=              0.0000   XZ=              0.0000   YZ=             -0.0000

 -0=-109.2335647\MP4SDQ=-109.2362806\CCSD=-109.2354092\CCSD(T)=-109.251
 Normal termination of Gaussian 16 at Sat Feb 10 15:38:48 2024.
