 Gaussian 16, Revision A.03,
 Gaussian 16:  ES64L-G16RevA.03 25-Dec-2016

 ------------------
 #p CCSD(T)/cc-pVTZ
 ------------------

 -----
 N2_19
 -----
 Symbolic Z-matrix:
 Charge = -1 Multiplicity = 2

                         Standard orientation:
 ---------------------------------------------------------------------
 Center     Atomic      Atomic             Coordinates (Angstroms)
 Number     Number       Type             X           Y           Z
 ---------------------------------------------------------------------
      1          7           0        0.000000    0.000000    0.685000
      2          7           0        0.000000    0.000000   -0.685000
 ---------------------------------------------------------------------

 SCF Done:  E(UHF) =  -108.810975298     A.U. after   11 cycles
 E2 =    -0.4130245228D+00 EUMP2 =    -0.10922399982131D+03
 CCSD(T)
 CCSD(T)= -0.10924117650D+03

 Unable to determine electronic state:  an orbital has unidentified symmetry.
 Alpha  occ. eigenvalues --  -15.32656 -15.32577  -0.92904  -0.53011  -0.28522
 Alpha  occ. eigenvalues --   -0.22846  -0.15084  -0.05236
 Alpha virt. eigenvalues --    0.39681   0.63418   0.88026   0.88643   0.90829
 Alpha virt. eigenvalues --    0.95394   0.99595   0.99731   1.00719   1.35833
 Alpha virt. eigenvalues --    1.41250   1.41276   1.51216   1.53498   1.73816

  Beta  occ. eigenvalues --  -15.30601 -15.30504  -0.87284  -0.44115  -0.20383
  Beta  occ. eigenvalues --   -0.13570  -0.09420
  Beta virt. eigenvalues --    0.41513   0.45592   0.65271   0.89456   0.91595
  Beta virt. eigenvalues --    0.94196   1.00149   1.01857   1.02196   1.04854
  Beta virt. eigenvalues --    1.37888   1.43509   1.43532   1.53634   1.56412

 Mulliken charges and spin densities:
               1          2
     1  N   -0.500000   0.500000
     2  N   -0.500000   0.500000
 Sum of Mulliken charges =  -1.00000   1.00000

 Dipole moment (field-independent basis, Debye):
    X=             -0.0000    Y=              0.0000    Z=             -0.0000  Tot=              0.0000
 Quadrupole moment (field-independent basis, Debye-Ang):
   XX=            -14.4267   YY=            -13.1983   ZZ=            -17.4354
   XY=              0.0000   XZ=              0.0000   YZ=             -0.0000

 3-0=-109.2069664\MP4SDQ=-109.2215244\CCSD=-109.21663\CCSD(T)=-109.2411
 Normal termination of Gaussian 16 at Sat Feb 10 15:40:25 2024.
