 Gaussian 16, Revision A.03,
 Gaussian 16:  ES64L-G16RevA.03 25-Dec-2016

 ------------------
 #p CCSD(T)/cc-pVTZ
 ------------------

 -----
 N2_16
 -----
 Symbolic Z-matrix:
 Charge = -1 Multiplicity = 2

                         Standard orientation:
 ---------------------------------------------------------------------
 Center     Atomic      Atomic             Coordinates (Angstroms)
 Number     Number       Type             X           Y           Z
 ---------------------------------------------------------------------
      1          7           0        0.000000    0.000000    0.640000
      2          7           0        0.000000    0.000000   -0.640000
 ---------------------------------------------------------------------

 SCF Done:  E(UHF) =  -108.848667018     A.U. after   10 cycles
 E2 =    -0.3946912592D+00 EUMP2 =    -0.10924335827757D+03
 CCSD(T)
 CCSD(T)= -0.10926376075D+03

 Unable to determine electronic state:  an orbital has unidentified symmetry.
 Alpha  occ. eigenvalues --  -15.30391 -15.30279  -0.97272  -0.50258  -0.29795
 Alpha  occ. eigenvalues --   -0.24084  -0.17282  -0.01639
 Alpha virt. eigenvalues --    0.42863   0.65760   0.87669   0.87683   0.89892
 Alpha virt. eigenvalues --    0.96184   0.99671   1.01802   1.09151   1.33854
 Alpha virt. eigenvalues --    1.40516   1.40544   1.55733   1.58307   1.76920

  Beta  occ. eigenvalues --  -15.28424 -15.28289  -0.92213  -0.41576  -0.21294
  Beta  occ. eigenvalues --   -0.15817  -0.11663
  Beta virt. eigenvalues --    0.44599   0.48540   0.67239   0.88358   0.90565
  Beta virt. eigenvalues --    0.93080   1.00410   1.02960   1.06007   1.11896
  Beta virt. eigenvalues --    1.36006   1.42706   1.42733   1.58505   1.61388

 Mulliken charges and spin densities:
               1          2
     1  N   -0.500000   0.500000
     2  N   -0.500000   0.500000
 Sum of Mulliken charges =  -1.00000   1.00000

 Dipole moment (field-independent basis, Debye):
    X=             -0.0000    Y=             -0.0000    Z=              0.0000  Tot=              0.0000
 Quadrupole moment (field-independent basis, Debye-Ang):
   XX=            -12.9250   YY=            -14.2314   ZZ=            -17.2961
   XY=              0.0000   XZ=              0.0000   YZ=              0.0000

 -0=-109.2363794\MP4SDQ=-109.2452578\CCSD=-109.2424101\CCSD(T)=-109.263
 Normal termination of Gaussian 16 at Sat Feb 10 15:39:51 2024.
