 Gaussian 16, Revision A.03,
 Gaussian 16:  ES64L-G16RevA.03 25-Dec-2016

 ------------------
 #p CCSD(T)/cc-pVTZ
 ------------------

 ----
 N2_1
 ----
 Symbolic Z-matrix:
 Charge = -1 Multiplicity = 2

                         Standard orientation:
 ---------------------------------------------------------------------
 Center     Atomic      Atomic             Coordinates (Angstroms)
 Number     Number       Type             X           Y           Z
 ---------------------------------------------------------------------
      1          7           0        0.000000    0.000000    0.415000
      2          7           0        0.000000    0.000000   -0.415000
 ---------------------------------------------------------------------

 SCF Done:  E(UHF) =  -108.351634095     A.U. after   12 cycles
 E2 =    -0.3370193448D+00 EUMP2 =    -0.10868865343932D+03
 CCSD(T)
 CCSD(T)= -0.10871043047D+03

 Unable to determine electronic state:  an orbital has unidentified symmetry.
 Alpha  occ. eigenvalues --  -15.20412 -15.17709  -1.27152  -0.45078  -0.39603
 Alpha  occ. eigenvalues --   -0.35396  -0.30299   0.25389
 Alpha virt. eigenvalues --    0.60661   0.69447   0.80160   0.80301   0.80413
 Alpha virt. eigenvalues --    1.04072   1.06133   1.12733   1.30731   1.38841
 Alpha virt. eigenvalues --    1.38862   1.83839   1.86777   1.87329   1.92933

  Beta  occ. eigenvalues --  -15.19608 -15.16854  -1.25730  -0.38949  -0.35732
  Beta  occ. eigenvalues --   -0.29159  -0.27086
  Beta virt. eigenvalues --    0.61950   0.65037   0.70483   0.80776   0.81271
  Beta virt. eigenvalues --    0.83170   1.05296   1.13591   1.16558   1.33365
  Beta virt. eigenvalues --    1.40833   1.40884   1.87236   1.89606   1.90302

 Mulliken charges and spin densities:
               1          2
     1  N   -0.500000   0.500000
     2  N   -0.500000   0.500000
 Sum of Mulliken charges =  -1.00000   1.00000

 Dipole moment (field-independent basis, Debye):
    X=             -0.0000    Y=             -0.0000    Z=             -0.0000  Tot=              0.0000
 Quadrupole moment (field-independent basis, Debye-Ang):
   XX=            -11.1817   YY=            -13.6355   ZZ=            -16.8099
   XY=              0.0000   XZ=              0.0000   YZ=             -0.0000

 -0=-108.6991063\MP4SDQ=-108.6993093\CCSD=-108.699153\CCSD(T)=-108.7104
 Normal termination of Gaussian 16 at Sat Feb 10 15:37:13 2024.
