 Gaussian 16, Revision A.03,
 Gaussian 16:  ES64L-G16RevA.03 25-Dec-2016

 ------------------
 #p CCSD(T)/cc-pVTZ
 ------------------

 -----
 N2_15
 -----
 Symbolic Z-matrix:
 Charge = -1 Multiplicity = 2

                         Standard orientation:
 ---------------------------------------------------------------------
 Center     Atomic      Atomic             Coordinates (Angstroms)
 Number     Number       Type             X           Y           Z
 ---------------------------------------------------------------------
      1          7           0        0.000000    0.000000    0.625000
      2          7           0        0.000000    0.000000   -0.625000
 ---------------------------------------------------------------------

 SCF Done:  E(UHF) =  -108.858226655     A.U. after   10 cycles
 E2 =    -0.3892041786D+00 EUMP2 =    -0.10924743083314D+03
 CCSD(T)
 CCSD(T)= -0.10926858473D+03

 Unable to determine electronic state:  an orbital has unidentified symmetry.
 Alpha  occ. eigenvalues --  -15.29579 -15.29450  -0.98897  -0.49310  -0.30298
 Alpha  occ. eigenvalues --   -0.24478  -0.18114  -0.00311
 Alpha virt. eigenvalues --    0.43985   0.66340   0.87311   0.87484   0.89513
 Alpha virt. eigenvalues --    0.96489   0.99768   1.02216   1.12788   1.33271
 Alpha virt. eigenvalues --    1.40302   1.40331   1.57382   1.60043   1.77997

  Beta  occ. eigenvalues --  -15.27647 -15.27495  -0.94038  -0.40708  -0.21580
  Beta  occ. eigenvalues --   -0.16670  -0.12518
  Beta virt. eigenvalues --    0.45685   0.49575   0.67721   0.87948   0.90156
  Beta virt. eigenvalues --    0.92644   1.00569   1.03380   1.06444   1.15544
  Beta virt. eigenvalues --    1.35502   1.42472   1.42500   1.60261   1.63175

 Mulliken charges and spin densities:
               1          2
     1  N   -0.500000   0.500000
     2  N   -0.500000   0.500000
 Sum of Mulliken charges =  -1.00000   1.00000

 Dipole moment (field-independent basis, Debye):
    X=             -0.0000    Y=              0.0000    Z=              0.0000  Tot=              0.0000
 Quadrupole moment (field-independent basis, Debye-Ang):
   XX=            -12.8267   YY=            -14.1646   ZZ=            -17.2486
   XY=              0.0000   XZ=              0.0000   YZ=              0.0000

 -0=-109.2431149\MP4SDQ=-109.2505593\CCSD=-109.2482028\CCSD(T)=-109.268
 Normal termination of Gaussian 16 at Sat Feb 10 15:39:40 2024.
