 Gaussian 16, Revision A.03,
 Gaussian 16:  ES64L-G16RevA.03 25-Dec-2016

 ------------------
 #p CCSD(T)/cc-pVTZ
 ------------------

 -----
 N2_11
 -----
 Symbolic Z-matrix:
 Charge = -1 Multiplicity = 2

                         Standard orientation:
 ---------------------------------------------------------------------
 Center     Atomic      Atomic             Coordinates (Angstroms)
 Number     Number       Type             X           Y           Z
 ---------------------------------------------------------------------
      1          7           0        0.000000    0.000000    0.565000
      2          7           0        0.000000    0.000000   -0.565000
 ---------------------------------------------------------------------

 SCF Done:  E(UHF) =  -108.869596907     A.U. after   11 cycles
 E2 =    -0.3702145548D+00 EUMP2 =    -0.10923981146147D+03
 CCSD(T)
 CCSD(T)= -0.10926265973D+03

 Unable to determine electronic state:  an orbital has unidentified symmetry.
 Alpha  occ. eigenvalues --  -15.26128 -15.25883  -1.06219  -0.45406  -0.32804
 Alpha  occ. eigenvalues --   -0.25980  -0.22073   0.05715
 Alpha virt. eigenvalues --    0.48736   0.68030   0.85610   0.86384   0.87657
 Alpha virt. eigenvalues --    0.97993   1.00516   1.04201   1.24222   1.37896
 Alpha virt. eigenvalues --    1.39615   1.39645   1.64588   1.67529   1.82459

  Beta  occ. eigenvalues --  -15.24383 -15.24107  -1.02234  -0.37180  -0.22687
  Beta  occ. eigenvalues --   -0.20743  -0.16643
  Beta virt. eigenvalues --    0.50280   0.53940   0.69154   0.86153   0.88186
  Beta virt. eigenvalues --    0.90578   1.01543   1.05375   1.08501   1.26281
  Beta virt. eigenvalues --    1.41019   1.41723   1.41757   1.67823   1.70839

 Mulliken charges and spin densities:
               1          2
     1  N   -0.500000   0.500000
     2  N   -0.500000   0.500000
 Sum of Mulliken charges =  -1.00000   1.00000

 Dipole moment (field-independent basis, Debye):
    X=             -0.0000    Y=             -0.0000    Z=             -0.0000  Tot=              0.0000
 Quadrupole moment (field-independent basis, Debye-Ang):
   XX=            -13.9020   YY=            -12.3997   ZZ=            -17.0566
   XY=              0.0000   XZ=              0.0000   YZ=             -0.0000

 3-0=-109.2433412\MP4SDQ=-109.2467358\CCSD=-109.2456693\CCSD(T)=-109.26
 Normal termination of Gaussian 16 at Sat Feb 10 15:38:58 2024.
