 Gaussian 16, Revision A.03,
 Gaussian 16:  ES64L-G16RevA.03 25-Dec-2016

 ------------------
 #p CCSD(T)/cc-pVTZ
 ------------------

 -----
 N2_17
 -----
 Symbolic Z-matrix:
 Charge = -1 Multiplicity = 2

                         Standard orientation:
 ---------------------------------------------------------------------
 Center     Atomic      Atomic             Coordinates (Angstroms)
 Number     Number       Type             X           Y           Z
 ---------------------------------------------------------------------
      1          7           0        0.000000    0.000000    0.655000
      2          7           0        0.000000    0.000000   -0.655000
 ---------------------------------------------------------------------

 SCF Done:  E(UHF) =  -108.837378856     A.U. after   10 cycles
 E2 =    -0.4004879417D+00 EUMP2 =    -0.10923786679776D+03
 CCSD(T)
 CCSD(T)= -0.10925736367D+03

 Unable to determine electronic state:  an orbital has unidentified symmetry.
 Alpha  occ. eigenvalues --  -15.31176 -15.31077  -0.95732  -0.51192  -0.29333
 Alpha  occ. eigenvalues --   -0.23680  -0.16502  -0.02901
 Alpha virt. eigenvalues --    0.41771   0.65090   0.87820   0.88029   0.90238
 Alpha virt. eigenvalues --    0.95902   0.99609   1.01417   1.05720   1.34545
 Alpha virt. eigenvalues --    1.40746   1.40773   1.54154   1.56636   1.75863

  Beta  occ. eigenvalues --  -15.29176 -15.29056  -0.90479  -0.42435  -0.21000
  Beta  occ. eigenvalues --   -0.15019  -0.10864
  Beta virt. eigenvalues --    0.43541   0.47531   0.66681   0.88747   0.90942
  Beta virt. eigenvalues --    0.93484   1.00287   1.02568   1.05598   1.08405
  Beta virt. eigenvalues --    1.36651   1.42957   1.42983   1.56813   1.59663

 Mulliken charges and spin densities:
               1          2
     1  N   -0.500000   0.500000
     2  N   -0.500000   0.500000
 Sum of Mulliken charges =  -1.00000   1.00000

 Dipole moment (field-independent basis, Debye):
    X=             -0.0000    Y=             -0.0000    Z=              0.0000  Tot=              0.0000
 Quadrupole moment (field-independent basis, Debye-Ang):
   XX=            -14.2975   YY=            -13.0197   ZZ=            -17.3430
   XY=              0.0000   XZ=              0.0000   YZ=             -0.0000

 -0=-109.2278977\MP4SDQ=-109.2384219\CCSD=-109.2349957\CCSD(T)=-109.257
 Normal termination of Gaussian 16 at Sat Feb 10 15:40:02 2024.
