 Gaussian 16, Revision A.03,
 Gaussian 16:  ES64L-G16RevA.03 25-Dec-2016

 ------------------
 #p CCSD(T)/cc-pVTZ
 ------------------

 -----
 N2_12
 -----
 Symbolic Z-matrix:
 Charge = -1 Multiplicity = 2

                         Standard orientation:
 ---------------------------------------------------------------------
 Center     Atomic      Atomic             Coordinates (Angstroms)
 Number     Number       Type             X           Y           Z
 ---------------------------------------------------------------------
      1          7           0        0.000000    0.000000    0.580000
      2          7           0        0.000000    0.000000   -0.580000
 ---------------------------------------------------------------------

 SCF Done:  E(UHF) =  -108.871959339     A.U. after   11 cycles
 E2 =    -0.3745368723D+00 EUMP2 =    -0.10924649621136D+03
 CCSD(T)
 CCSD(T)= -0.10926909508D+03

 Unable to determine electronic state:  an orbital has unidentified symmetry.
 Alpha  occ. eigenvalues --  -15.27010 -15.26805  -1.04270  -0.46396  -0.32094
 Alpha  occ. eigenvalues --   -0.25612  -0.20976   0.04097
 Alpha virt. eigenvalues --    0.47515   0.67678   0.86064   0.86717   0.88173
 Alpha virt. eigenvalues --    0.97566   1.00277   1.03649   1.22626   1.34860
 Alpha virt. eigenvalues --    1.39761   1.39790   1.62707   1.65589   1.81326

  Beta  occ. eigenvalues --  -15.25212 -15.24977  -1.00056  -0.38066  -0.22408
  Beta  occ. eigenvalues --   -0.19612  -0.15491
  Beta virt. eigenvalues --    0.49099   0.52819   0.68849   0.86621   0.88729
  Beta virt. eigenvalues --    0.91143   1.01252   1.04824   1.07936   1.24877
  Beta virt. eigenvalues --    1.37763   1.41882   1.41915   1.65864   1.68859

 Mulliken charges and spin densities:
               1          2
     1  N   -0.500000   0.500000
     2  N   -0.500000   0.500000
 Sum of Mulliken charges =  -1.00000   1.00000

 Dipole moment (field-independent basis, Debye):
    X=             -0.0000    Y=              0.0000    Z=              0.0000  Tot=              0.0000
 Quadrupole moment (field-independent basis, Debye-Ang):
   XX=            -13.9657   YY=            -12.5113   ZZ=            -17.1043
   XY=              0.0000   XZ=              0.0000   YZ=             -0.0000

 -0=-109.2484417\MP4SDQ=-109.252633\CCSD=-109.2513278\CCSD(T)=-109.2690
 Normal termination of Gaussian 16 at Sat Feb 10 15:39:08 2024.
