 Gaussian 16, Revision A.03,
 Gaussian 16:  ES64L-G16RevA.03 25-Dec-2016

 ------------------
 #p CCSD(T)/cc-pVTZ
 ------------------

 -----
 N2_28
 -----
 Symbolic Z-matrix:
 Charge = -1 Multiplicity = 2

                         Standard orientation:
 ---------------------------------------------------------------------
 Center     Atomic      Atomic             Coordinates (Angstroms)
 Number     Number       Type             X           Y           Z
 ---------------------------------------------------------------------
      1          7           0        0.000000    0.000000    0.820000
      2          7           0        0.000000    0.000000   -0.820000
 ---------------------------------------------------------------------

 SCF Done:  E(UHF) =  -108.669223374     A.U. after   11 cycles
 E2 =    -0.4850065039D+00 EUMP2 =    -0.10915422987756D+03
 CCSD(T)
 CCSD(T)= -0.10915058482D+03

 Unable to determine electronic state:  an orbital has unidentified symmetry.
 Alpha  occ. eigenvalues --  -15.37836 -15.37799  -0.83903  -0.60218  -0.26296
 Alpha  occ. eigenvalues --   -0.18836  -0.13170  -0.10467
 Alpha virt. eigenvalues --    0.31816   0.51178   0.86964   0.87626   0.90161
 Alpha virt. eigenvalues --    0.91946   0.93714   0.98448   1.00947   1.35374
 Alpha virt. eigenvalues --    1.41748   1.43044   1.44009   1.44026   1.65811

  Beta  occ. eigenvalues --  -15.35637 -15.35589  -0.77018  -0.50863  -0.17143
  Beta  occ. eigenvalues --   -0.08872  -0.04760
  Beta virt. eigenvalues --    0.33829   0.38193   0.54012   0.88304   0.91377
  Beta virt. eigenvalues --    0.92953   0.95829   0.99528   1.01162   1.02413
  Beta virt. eigenvalues --    1.37244   1.43011   1.45413   1.46541   1.46545

 Mulliken charges and spin densities:
               1          2
     1  N   -0.500000   0.500000
     2  N   -0.500000   0.500000
 Sum of Mulliken charges =  -1.00000   1.00000

 Dipole moment (field-independent basis, Debye):
    X=             -0.0000    Y=              0.0000    Z=              0.0000  Tot=              0.0000
 Quadrupole moment (field-independent basis, Debye-Ang):
   XX=            -13.8239   YY=            -14.9166   ZZ=            -17.8650
   XY=              0.0000   XZ=              0.0000   YZ=              0.0000

 3-0=-109.0819355\MP4SDQ=-109.1342256\CCSD=-109.1141352\CCSD(T)=-109.15
 Normal termination of Gaussian 16 at Sat Feb 10 15:41:59 2024.
