 Gaussian 16, Revision A.03,
 Gaussian 16:  ES64L-G16RevA.03 25-Dec-2016

 ------------------
 #p CCSD(T)/cc-pVTZ
 ------------------

 -----
 N2_26
 -----
 Symbolic Z-matrix:
 Charge = -1 Multiplicity = 2

                         Standard orientation:
 ---------------------------------------------------------------------
 Center     Atomic      Atomic             Coordinates (Angstroms)
 Number     Number       Type             X           Y           Z
 ---------------------------------------------------------------------
      1          7           0        0.000000    0.000000    0.790000
      2          7           0        0.000000    0.000000   -0.790000
 ---------------------------------------------------------------------

 SCF Done:  E(UHF) =  -108.701254470     A.U. after   10 cycles
 E2 =    -0.4668537091D+00 EUMP2 =    -0.10916810817924D+03
 CCSD(T)
 CCSD(T)= -0.10917072466D+03

 Unable to determine electronic state:  an orbital has unidentified symmetry.
 Alpha  occ. eigenvalues --  -15.36880 -15.36837  -0.85436  -0.58772  -0.26627
 Alpha  occ. eigenvalues --   -0.19738  -0.11717  -0.11290
 Alpha virt. eigenvalues --    0.33358   0.54225   0.87872   0.88286   0.89974
 Alpha virt. eigenvalues --    0.91902   0.94027   0.98861   1.00504   1.36222
 Alpha virt. eigenvalues --    1.43330   1.43358   1.43378   1.44837   1.67414

  Beta  occ. eigenvalues --  -15.34701 -15.34646  -0.78779  -0.49496  -0.17912
  Beta  occ. eigenvalues --   -0.09709  -0.05589
  Beta virt. eigenvalues --    0.35343   0.39659   0.56945   0.89793   0.91120
  Beta virt. eigenvalues --    0.92865   0.95682   0.99952   1.00750   1.02856
  Beta virt. eigenvalues --    1.38140   1.44836   1.45824   1.45833   1.47323

 Mulliken charges and spin densities:
               1          2
     1  N   -0.500000   0.500000
     2  N   -0.500000   0.500000
 Sum of Mulliken charges =  -1.00000   1.00000

 Dipole moment (field-independent basis, Debye):
    X=             -0.0000    Y=              0.0000    Z=              0.0000  Tot=              0.0000
 Quadrupole moment (field-independent basis, Debye-Ang):
   XX=            -14.8232   YY=            -13.7096   ZZ=            -17.7621
   XY=              0.0000   XZ=              0.0000   YZ=             -0.0000

 3-0=-109.1120385\MP4SDQ=-109.1522117\CCSD=-109.1371831\CCSD(T)=-109.17
 Normal termination of Gaussian 16 at Sat Feb 10 15:41:37 2024.
