 Gaussian 16, Revision A.03,
 Gaussian 16:  ES64L-G16RevA.03 25-Dec-2016

 ------------------
 #p CCSD(T)/cc-pVTZ
 ------------------

 ----
 N2_2
 ----
 Symbolic Z-matrix:
 Charge = -1 Multiplicity = 2

                         Standard orientation:
 ---------------------------------------------------------------------
 Center     Atomic      Atomic             Coordinates (Angstroms)
 Number     Number       Type             X           Y           Z
 ---------------------------------------------------------------------
      1          7           0        0.000000    0.000000    0.430000
      2          7           0        0.000000    0.000000   -0.430000
 ---------------------------------------------------------------------

 SCF Done:  E(UHF) =  -108.474523371     A.U. after   12 cycles
 E2 =    -0.3400466599D+00 EUMP2 =    -0.10881457003129D+03
 CCSD(T)
 CCSD(T)= -0.10883656779D+03

 Unable to determine electronic state:  an orbital has unidentified symmetry.
 Alpha  occ. eigenvalues --  -15.20287 -15.18243  -1.25332  -0.43216  -0.37096
 Alpha  occ. eigenvalues --   -0.36382  -0.29760   0.23276
 Alpha virt. eigenvalues --    0.59620   0.69504   0.80975   0.81078   0.81234
 Alpha virt. eigenvalues --    1.03702   1.04824   1.11565   1.29815   1.38892
 Alpha virt. eigenvalues --    1.38914   1.82066   1.83174   1.85075   1.92089

  Beta  occ. eigenvalues --  -15.19356 -15.17262  -1.23654  -0.36344  -0.32961
  Beta  occ. eigenvalues --   -0.29828  -0.26412
  Beta virt. eigenvalues --    0.60906   0.64032   0.70526   0.81687   0.81758
  Beta virt. eigenvalues --    0.84052   1.04943   1.12491   1.15512   1.32349
  Beta virt. eigenvalues --    1.40907   1.40956   1.85520   1.85588   1.88601

 Mulliken charges and spin densities:
               1          2
     1  N   -0.500000   0.500000
     2  N   -0.500000   0.500000
 Sum of Mulliken charges =  -1.00000   1.00000

 Dipole moment (field-independent basis, Debye):
    X=             -0.0000    Y=              0.0000    Z=              0.0000  Tot=              0.0000
 Quadrupole moment (field-independent basis, Debye-Ang):
   XX=            -13.6096   YY=            -11.3036   ZZ=            -16.7953
   XY=              0.0000   XZ=              0.0000   YZ=             -0.0000

 -108.8247773\MP4SDQ=-108.8250403\CCSD=-108.8248396\CCSD(T)=-108.836567
 Normal termination of Gaussian 16 at Sat Feb 10 15:37:24 2024.
