 Gaussian 16, Revision A.03,
 Gaussian 16:  ES64L-G16RevA.03 25-Dec-2016

 ------------------
 #p CCSD(T)/cc-pVTZ
 ------------------

 -----
 N2_29
 -----
 Symbolic Z-matrix:
 Charge = -1 Multiplicity = 2

                         Standard orientation:
 ---------------------------------------------------------------------
 Center     Atomic      Atomic             Coordinates (Angstroms)
 Number     Number       Type             X           Y           Z
 ---------------------------------------------------------------------
      1          7           0        0.000000    0.000000    0.835000
      2          7           0        0.000000    0.000000   -0.835000
 ---------------------------------------------------------------------

 SCF Done:  E(UHF) =  -108.653453713     A.U. after   11 cycles
 E2 =    -0.4945257286D+00 EUMP2 =    -0.10914797944206D+03
 CCSD(T)
 CCSD(T)= -0.10914083051D+03

 Unable to determine electronic state:  an orbital has unidentified symmetry.
 Alpha  occ. eigenvalues --  -15.38278 -15.38243  -0.83221  -0.60906  -0.26158
 Alpha  occ. eigenvalues --   -0.18389  -0.13842  -0.10091
 Alpha virt. eigenvalues --    0.31085   0.49679   0.86487   0.87476   0.90232
 Alpha virt. eigenvalues --    0.91928   0.93566   0.98256   1.01182   1.34872
 Alpha virt. eigenvalues --    1.41065   1.42262   1.44334   1.44351   1.65046

  Beta  occ. eigenvalues --  -15.36070 -15.36025  -0.76232  -0.51516  -0.16754
  Beta  occ. eigenvalues --   -0.08490  -0.04380
  Beta virt. eigenvalues --    0.33109   0.37496   0.52548   0.87765   0.91477
  Beta virt. eigenvalues --    0.92956   0.95860   0.99331   1.01393   1.02206
  Beta virt. eigenvalues --    1.36718   1.42216   1.44577   1.46900   1.46901

 Mulliken charges and spin densities:
               1          2
     1  N   -0.500000   0.500000
     2  N   -0.500000   0.500000
 Sum of Mulliken charges =  -1.00000   1.00000

 Dipole moment (field-independent basis, Debye):
    X=             -0.0000    Y=              0.0000    Z=              0.0000  Tot=              0.0000
 Quadrupole moment (field-independent basis, Debye-Ang):
   XX=            -14.9598   YY=            -13.8761   ZZ=            -17.9194
   XY=              0.0000   XZ=              0.0000   YZ=             -0.0000

 -0=-109.0665725\MP4SDQ=-109.1260092\CCSD=-109.1028774\CCSD(T)=-109.140
 Normal termination of Gaussian 16 at Sat Feb 10 15:42:09 2024.
