 Gaussian 16, Revision A.03,
 Gaussian 16:  ES64L-G16RevA.03 25-Dec-2016

 ------------------
 #p CCSD(T)/cc-pVTZ
 ------------------

 -----
 N2_20
 -----
 Symbolic Z-matrix:
 Charge = -1 Multiplicity = 2

                         Standard orientation:
 ---------------------------------------------------------------------
 Center     Atomic      Atomic             Coordinates (Angstroms)
 Number     Number       Type             X           Y           Z
 ---------------------------------------------------------------------
      1          7           0        0.000000    0.000000    0.700000
      2          7           0        0.000000    0.000000   -0.700000
 ---------------------------------------------------------------------

 SCF Done:  E(UHF) =  -108.796408250     A.U. after   11 cycles
 E2 =    -0.4197684155D+00 EUMP2 =    -0.10921617666521D+03
 CCSD(T)
 CCSD(T)= -0.10923191612D+03

 Unable to determine electronic state:  an orbital has unidentified symmetry.
 Alpha  occ. eigenvalues --  -15.33350 -15.33279  -0.91612  -0.53895  -0.28168
 Alpha  occ. eigenvalues --   -0.22417  -0.14439  -0.06315
 Alpha virt. eigenvalues --    0.38684   0.62400   0.88083   0.88909   0.91076
 Alpha virt. eigenvalues --    0.95164   0.97222   0.99640   1.00404   1.36312
 Alpha virt. eigenvalues --    1.41522   1.41548   1.49861   1.52036   1.72827

  Beta  occ. eigenvalues --  -15.31271 -15.31183  -0.85821  -0.44935  -0.20058
  Beta  occ. eigenvalues --   -0.12912  -0.08766
  Beta virt. eigenvalues --    0.40544   0.44664   0.64397   0.89773   0.91873
  Beta virt. eigenvalues --    0.94504   0.99547   1.00135   1.01534   1.04516
  Beta virt. eigenvalues --    1.38350   1.43808   1.43829   1.52152   1.54891

 Mulliken charges and spin densities:
               1          2
     1  N   -0.500000   0.500000
     2  N   -0.500000   0.500000
 Sum of Mulliken charges =  -1.00000   1.00000

 Dipole moment (field-independent basis, Debye):
    X=             -0.0000    Y=              0.0000    Z=             -0.0000  Tot=              0.0000
 Quadrupole moment (field-independent basis, Debye-Ang):
   XX=            -13.2821   YY=            -14.4892   ZZ=            -17.4811
   XY=              0.0000   XZ=              0.0000   YZ=              0.0000

 -0=-109.1950157\MP4SDQ=-109.2120224\CCSD=-109.2062105\CCSD(T)=-109.231
 Normal termination of Gaussian 16 at Sat Feb 10 15:40:36 2024.
