 Gaussian 16, Revision A.03,
 Gaussian 16:  ES64L-G16RevA.03 25-Dec-2016

 ------------------
 #p CCSD(T)/cc-pVTZ
 ------------------

 -----
 N2_27
 -----
 Symbolic Z-matrix:
 Charge = -1 Multiplicity = 2

                         Standard orientation:
 ---------------------------------------------------------------------
 Center     Atomic      Atomic             Coordinates (Angstroms)
 Number     Number       Type             X           Y           Z
 ---------------------------------------------------------------------
      1          7           0        0.000000    0.000000    0.805000
      2          7           0        0.000000    0.000000   -0.805000
 ---------------------------------------------------------------------

 SCF Done:  E(UHF) =  -108.685172214     A.U. after   11 cycles
 E2 =    -0.4757809536D+00 EUMP2 =    -0.10916095316779D+03
 CCSD(T)
 CCSD(T)= -0.10916056245D+03

 Unable to determine electronic state:  an orbital has unidentified symmetry.
 Alpha  occ. eigenvalues --  -15.37370 -15.37330  -0.84640  -0.59507  -0.26452
 Alpha  occ. eigenvalues --   -0.19286  -0.12463  -0.10867
 Alpha virt. eigenvalues --    0.32573   0.52698   0.87556   0.87758   0.90076
 Alpha virt. eigenvalues --    0.91937   0.93867   0.98649   1.00720   1.35829
 Alpha virt. eigenvalues --    1.42502   1.43683   1.43701   1.43903   1.66600

  Beta  occ. eigenvalues --  -15.35181 -15.35130  -0.77865  -0.50190  -0.17530
  Beta  occ. eigenvalues --   -0.09278  -0.05163
  Beta virt. eigenvalues --    0.34573   0.38914   0.55483   0.88972   0.91259
  Beta virt. eigenvalues --    0.92923   0.95770   0.99735   1.00947   1.02629
  Beta virt. eigenvalues --    1.37723   1.43885   1.46181   1.46189   1.46329

 Mulliken charges and spin densities:
               1          2
     1  N   -0.500000   0.500000
     2  N   -0.500000   0.500000
 Sum of Mulliken charges =  -1.00000   1.00000

 Dipole moment (field-independent basis, Debye):
    X=             -0.0000    Y=              0.0000    Z=              0.0000  Tot=              0.0000
 Quadrupole moment (field-independent basis, Debye-Ang):
   XX=            -14.8711   YY=            -13.7684   ZZ=            -17.8127
   XY=              0.0000   XZ=              0.0000   YZ=             -0.0000

 -0=-109.0970941\MP4SDQ=-109.142985\CCSD=-109.1255837\CCSD(T)=-109.1605
 Normal termination of Gaussian 16 at Sat Feb 10 15:41:48 2024.
