 Gaussian 16, Revision A.03,
 Gaussian 16:  ES64L-G16RevA.03 25-Dec-2016

 ------------------
 #p CCSD(T)/cc-pVTZ
 ------------------

 -----
 N2_24
 -----
 Symbolic Z-matrix:
 Charge = -1 Multiplicity = 2

                         Standard orientation:
 ---------------------------------------------------------------------
 Center     Atomic      Atomic             Coordinates (Angstroms)
 Number     Number       Type             X           Y           Z
 ---------------------------------------------------------------------
      1          7           0        0.000000    0.000000    0.760000
      2          7           0        0.000000    0.000000   -0.760000
 ---------------------------------------------------------------------

 SCF Done:  E(UHF) =  -108.733582974     A.U. after   11 cycles
 E2 =    -0.4499111581D+00 EUMP2 =    -0.10918349413211D+03
 CCSD(T)
 CCSD(T)= -0.10919139747D+03

 Unable to determine electronic state:  an orbital has unidentified symmetry.
 Alpha  occ. eigenvalues --  -15.35819 -15.35769  -0.87215  -0.57233  -0.27042
 Alpha  occ. eigenvalues --   -0.20643  -0.12217  -0.10103
 Alpha virt. eigenvalues --    0.35012   0.57225   0.88039   0.89712   0.90272
 Alpha virt. eigenvalues --    0.91748   0.94368   0.99318   1.00122   1.36754
 Alpha virt. eigenvalues --    1.42717   1.42740   1.45205   1.46935   1.69118

  Beta  occ. eigenvalues --  -15.33666 -15.33603  -0.80815  -0.48049  -0.18660
  Beta  occ. eigenvalues --   -0.10650  -0.06522
  Beta virt. eigenvalues --    0.36963   0.41222   0.59760   0.90775   0.92009
  Beta virt. eigenvalues --    0.92659   0.95414   1.00421   1.00425   1.03348
  Beta virt. eigenvalues --    1.38717   1.45120   1.45133   1.46970   1.49542

 Mulliken charges and spin densities:
               1          2
     1  N   -0.500000   0.500000
     2  N   -0.500000   0.500000
 Sum of Mulliken charges =  -1.00000   1.00000

 Dipole moment (field-independent basis, Debye):
    X=             -0.0000    Y=             -0.0000    Z=             -0.0000  Tot=              0.0000
 Quadrupole moment (field-independent basis, Debye-Ang):
   XX=            -13.5814   YY=            -14.7205   ZZ=            -17.6653
   XY=              0.0000   XZ=              0.0000   YZ=              0.0000

 -109.1411911\MP4SDQ=-109.1717298\CCSD=-109.1606244\CCSD(T)=-109.191397
 Normal termination of Gaussian 16 at Sat Feb 10 15:41:17 2024.
