 Gaussian 16, Revision A.03,
 Gaussian 16:  ES64L-G16RevA.03 25-Dec-2016

 ------------------
 #p CCSD(T)/cc-pVTZ
 ------------------

 -----
 N2_21
 -----
 Symbolic Z-matrix:
 Charge = -1 Multiplicity = 2

                         Standard orientation:
 ---------------------------------------------------------------------
 Center     Atomic      Atomic             Coordinates (Angstroms)
 Number     Number       Type             X           Y           Z
 ---------------------------------------------------------------------
      1          7           0        0.000000    0.000000    0.715000
      2          7           0        0.000000    0.000000   -0.715000
 ---------------------------------------------------------------------

 SCF Done:  E(UHF) =  -108.781224351     A.U. after   11 cycles
 E2 =    -0.4268301387D+00 EUMP2 =    -0.10920805448978D+03
 CCSD(T)
 CCSD(T)= -0.10922215753D+03

 Unable to determine electronic state:  an orbital has unidentified symmetry.
 Alpha  occ. eigenvalues --  -15.34013 -15.33948  -0.90401  -0.54760  -0.27845
 Alpha  occ. eigenvalues --   -0.21981  -0.13832  -0.07339
 Alpha virt. eigenvalues --    0.37719   0.61260   0.88112   0.89148   0.91291
 Alpha virt. eigenvalues --    0.94947   0.95040   0.99717   1.00107   1.36644
 Alpha virt. eigenvalues --    1.41807   1.41832   1.48583   1.50649   1.71862

  Beta  occ. eigenvalues --  -15.31912 -15.31832  -0.84446  -0.45739  -0.19723
  Beta  occ. eigenvalues --   -0.12294  -0.08152
  Beta virt. eigenvalues --    0.39604   0.43763   0.63403   0.90064   0.92118
  Beta virt. eigenvalues --    0.94780   0.97214   1.00157   1.01231   1.04198
  Beta virt. eigenvalues --    1.38666   1.44120   1.44139   1.50743   1.53442

 Mulliken charges and spin densities:
               1          2
     1  N   -0.500000   0.500000
     2  N   -0.500000   0.500000
 Sum of Mulliken charges =  -1.00000   1.00000

 Dipole moment (field-independent basis, Debye):
    X=             -0.0000    Y=              0.0000    Z=             -0.0000  Tot=              0.0000
 Quadrupole moment (field-independent basis, Debye-Ang):
   XX=            -14.5500   YY=            -13.3624   ZZ=            -17.5267
   XY=              0.0000   XZ=              0.0000   YZ=             -0.0000

 -0=-109.1823319\MP4SDQ=-109.2021208\CCSD=-109.1952481\CCSD(T)=-109.222
 Normal termination of Gaussian 16 at Sat Feb 10 15:40:47 2024.
