 Gaussian 16, Revision A.03,
 Gaussian 16:  ES64L-G16RevA.03 25-Dec-2016

 ------------------
 #p CCSD(T)/cc-pVTZ
 ------------------

 -----
 N2_22
 -----
 Symbolic Z-matrix:
 Charge = -1 Multiplicity = 2

                         Standard orientation:
 ---------------------------------------------------------------------
 Center     Atomic      Atomic             Coordinates (Angstroms)
 Number     Number       Type             X           Y           Z
 ---------------------------------------------------------------------
      1          7           0        0.000000    0.000000    0.730000
      2          7           0        0.000000    0.000000   -0.730000
 ---------------------------------------------------------------------

 SCF Done:  E(UHF) =  -108.765598936     A.U. after   11 cycles
 E2 =    -0.4342090090D+00 EUMP2 =    -0.10919980794498D+03
 CCSD(T)
 CCSD(T)= -0.10921206542D+03

 Unable to determine electronic state:  an orbital has unidentified symmetry.
 Alpha  occ. eigenvalues --  -15.34645 -15.34586  -0.89265  -0.55605  -0.27551
 Alpha  occ. eigenvalues --   -0.21539  -0.13261  -0.08309
 Alpha virt. eigenvalues --    0.36786   0.60006   0.88113   0.89361   0.91474
 Alpha virt. eigenvalues --    0.93171   0.94744   0.99825   0.99828   1.36824
 Alpha virt. eigenvalues --    1.42102   1.42126   1.47381   1.49335   1.70922

  Beta  occ. eigenvalues --  -15.32525 -15.32451  -0.83154  -0.46527  -0.19378
  Beta  occ. eigenvalues --   -0.11712  -0.07575
  Beta virt. eigenvalues --    0.38695   0.42889   0.62291   0.90327   0.92330
  Beta virt. eigenvalues --    0.95023   0.95192   1.00214   1.00945   1.03898
  Beta virt. eigenvalues --    1.38827   1.44443   1.44461   1.49409   1.52067

 Mulliken charges and spin densities:
               1          2
     1  N   -0.500000   0.500000
     2  N   -0.500000   0.500000
 Sum of Mulliken charges =  -1.00000   1.00000

 Dipole moment (field-independent basis, Debye):
    X=             -0.0000    Y=              0.0000    Z=             -0.0000  Tot=              0.0000
 Quadrupole moment (field-independent basis, Debye-Ang):
   XX=            -14.6089   YY=            -13.4390   ZZ=            -17.5724
   XY=              0.0000   XZ=              0.0000   YZ=             -0.0000

 3-0=-109.1690608\MP4SDQ=-109.192004\CCSD=-109.1839089\CCSD(T)=-109.212
 Normal termination of Gaussian 16 at Sat Feb 10 15:40:57 2024.
