 Gaussian 16, Revision A.03,
 Gaussian 16:  ES64L-G16RevA.03 25-Dec-2016

 ------------------
 #p CCSD(T)/cc-pVTZ
 ------------------

 -----
 N2_23
 -----
 Symbolic Z-matrix:
 Charge = -1 Multiplicity = 2

                         Standard orientation:
 ---------------------------------------------------------------------
 Center     Atomic      Atomic             Coordinates (Angstroms)
 Number     Number       Type             X           Y           Z
 ---------------------------------------------------------------------
      1          7           0        0.000000    0.000000    0.745000
      2          7           0        0.000000    0.000000   -0.745000
 ---------------------------------------------------------------------

 SCF Done:  E(UHF) =  -108.749678049     A.U. after   11 cycles
 E2 =    -0.4419034621D+00 EUMP2 =    -0.10919158151066D+03
 CCSD(T)
 CCSD(T)= -0.10920177514D+03

 Unable to determine electronic state:  an orbital has unidentified symmetry.
 Alpha  occ. eigenvalues --  -15.35247 -15.35192  -0.88204  -0.56430  -0.27284
 Alpha  occ. eigenvalues --   -0.21092  -0.12723  -0.09230
 Alpha virt. eigenvalues --    0.35884   0.58654   0.88089   0.89549   0.91592
 Alpha virt. eigenvalues --    0.91626   0.94551   0.99566   0.99961   1.36855
 Alpha virt. eigenvalues --    1.42406   1.42429   1.46255   1.48097   1.70007

  Beta  occ. eigenvalues --  -15.33109 -15.33041  -0.81945  -0.47297  -0.19023
  Beta  occ. eigenvalues --   -0.11165  -0.07033
  Beta virt. eigenvalues --    0.37814   0.42043   0.61071   0.90564   0.92510
  Beta virt. eigenvalues --    0.93465   0.95234   1.00304   1.00676   1.03615
  Beta virt. eigenvalues --    1.38840   1.44777   1.44793   1.48152   1.50767

 Mulliken charges and spin densities:
               1          2
     1  N   -0.500000   0.500000
     2  N   -0.500000   0.500000
 Sum of Mulliken charges =  -1.00000   1.00000

 Dipole moment (field-independent basis, Debye):
    X=             -0.0000    Y=              0.0000    Z=             -0.0000  Tot=              0.0000
 Quadrupole moment (field-independent basis, Debye-Ang):
   XX=            -13.5120   YY=            -14.6658   ZZ=            -17.6185
   XY=              0.0000   XZ=              0.0000   YZ=              0.0000

 -0=-109.1553175\MP4SDQ=-109.1818288\CCSD=-109.1723302\CCSD(T)=-109.201
 Normal termination of Gaussian 16 at Sat Feb 10 15:41:07 2024.
