 Gaussian 16, Revision A.03,
 Gaussian 16:  ES64L-G16RevA.03 25-Dec-2016

 ------------------
 #p CCSD(T)/cc-pVTZ
 ------------------

 -----
 N2_25
 -----
 Symbolic Z-matrix:
 Charge = -1 Multiplicity = 2

                         Standard orientation:
 ---------------------------------------------------------------------
 Center     Atomic      Atomic             Coordinates (Angstroms)
 Number     Number       Type             X           Y           Z
 ---------------------------------------------------------------------
      1          7           0        0.000000    0.000000    0.775000
      2          7           0        0.000000    0.000000   -0.775000
 ---------------------------------------------------------------------

 SCF Done:  E(UHF) =  -108.717414142     A.U. after   11 cycles
 E2 =    -0.4582290903D+00 EUMP2 =    -0.10917564323203D+03
 CCSD(T)
 CCSD(T)= -0.10918102277D+03

 Unable to determine electronic state:  an orbital has unidentified symmetry.
 Alpha  occ. eigenvalues --  -15.36363 -15.36317  -0.86293  -0.58014  -0.26823
 Alpha  occ. eigenvalues --   -0.20191  -0.11740  -0.10931
 Alpha virt. eigenvalues --    0.34170   0.55741   0.87967   0.89181   0.89853
 Alpha virt. eigenvalues --    0.91840   0.94193   0.99083   1.00304   1.36536
 Alpha virt. eigenvalues --    1.43035   1.43056   1.44231   1.45848   1.68253

  Beta  occ. eigenvalues --  -15.34197 -15.34138  -0.79761  -0.48782  -0.18289
  Beta  occ. eigenvalues --   -0.10165  -0.06042
  Beta virt. eigenvalues --    0.36139   0.40428   0.58377   0.90795   0.90959
  Beta virt. eigenvalues --    0.92777   0.95563   1.00180   1.00575   1.03096
  Beta virt. eigenvalues --    1.38477   1.45469   1.45481   1.45864   1.48394

 Mulliken charges and spin densities:
               1          2
     1  N   -0.500000   0.500000
     2  N   -0.500000   0.500000
 Sum of Mulliken charges =  -1.00000   1.00000

 Dipole moment (field-independent basis, Debye):
    X=             -0.0000    Y=             -0.0000    Z=              0.0000  Tot=              0.0000
 Quadrupole moment (field-independent basis, Debye-Ang):
   XX=            -14.7730   YY=            -13.6472   ZZ=            -17.7131
   XY=              0.0000   XZ=              0.0000   YZ=             -0.0000

 -0=-109.1267486\MP4SDQ=-109.1618235\CCSD=-109.1488836\CCSD(T)=-109.181
 Normal termination of Gaussian 16 at Sat Feb 10 15:41:27 2024.
