 Gaussian 16, Revision A.03,
 Gaussian 16:  ES64L-G16RevA.03 25-Dec-2016

 ------------------
 #p CCSD(T)/cc-pVTZ
 ------------------

 -----
 N2_32
 -----
 Symbolic Z-matrix:
 Charge = -1 Multiplicity = 2

                         Standard orientation:
 ---------------------------------------------------------------------
 Center     Atomic      Atomic             Coordinates (Angstroms)
 Number     Number       Type             X           Y           Z
 ---------------------------------------------------------------------
      1          7           0        0.000000    0.000000    0.880000
      2          7           0        0.000000    0.000000   -0.880000
 ---------------------------------------------------------------------

 SCF Done:  E(UHF) =  -108.607557353     A.U. after   11 cycles
 E2 =    -0.5247969937D+00 EUMP2 =    -0.10913235434638D+03
 CCSD(T)
 CCSD(T)= -0.10911319815D+03

 Unable to determine electronic state:  an orbital has unidentified symmetry.
 Alpha  occ. eigenvalues --  -15.39474 -15.39445  -0.81475  -0.62827  -0.25839
 Alpha  occ. eigenvalues --   -0.17074  -0.15660  -0.09087
 Alpha virt. eigenvalues --    0.29041   0.45400   0.85564   0.86943   0.90373
 Alpha virt. eigenvalues --    0.91735   0.93148   0.97725   1.01907   1.33197
 Alpha virt. eigenvalues --    1.39445   1.40378   1.45292   1.45303   1.62899

  Beta  occ. eigenvalues --  -15.37245 -15.37208  -0.74209  -0.53353  -0.15584
  Beta  occ. eigenvalues --   -0.07468  -0.03364
  Beta virt. eigenvalues --    0.31092   0.35533   0.48312   0.86717   0.91688
  Beta virt. eigenvalues --    0.92812   0.95793   0.98786   1.01639   1.02140
  Beta virt. eigenvalues --    1.34974   1.40299   1.42549   1.47947   1.47956

 Mulliken charges and spin densities:
               1          2
     1  N   -0.500000   0.500000
     2  N   -0.500000   0.500000
 Sum of Mulliken charges =  -1.00000   1.00000

 Dipole moment (field-independent basis, Debye):
    X=             -0.0000    Y=              0.0000    Z=             -0.0000  Tot=              0.0000
 Quadrupole moment (field-independent basis, Debye-Ang):
   XX=            -15.0754   YY=            -14.0135   ZZ=            -18.0969
   XY=              0.0000   XZ=              0.0000   YZ=             -0.0000

 -0=-109.0192276\MP4SDQ=-109.1053224\CCSD=-109.0705412\CCSD(T)=-109.113
 Normal termination of Gaussian 16 at Sat Feb 10 15:42:42 2024.
