 Gaussian 16, Revision A.03,
 Gaussian 16:  ES64L-G16RevA.03 25-Dec-2016

 ------------------
 #p CCSD(T)/cc-pVTZ
 ------------------

 -----
 N2_36
 -----
 Symbolic Z-matrix:
 Charge = -1 Multiplicity = 2

                         Standard orientation:
 ---------------------------------------------------------------------
 Center     Atomic      Atomic             Coordinates (Angstroms)
 Number     Number       Type             X           Y           Z
 ---------------------------------------------------------------------
      1          7           0        0.000000    0.000000    0.940000
      2          7           0        0.000000    0.000000   -0.940000
 ---------------------------------------------------------------------

 SCF Done:  E(UHF) =  -108.550437230     A.U. after   11 cycles
 E2 =    -0.5689728344D+00 EUMP2 =    -0.10911941006421D+03
 CCSD(T)
 CCSD(T)= -0.10908085366D+03

 Unable to determine electronic state:  an orbital has unidentified symmetry.
 Alpha  occ. eigenvalues --  -15.40801 -15.40777  -0.79734  -0.65066  -0.25596
 Alpha  occ. eigenvalues --   -0.17689  -0.15417  -0.07997
 Alpha virt. eigenvalues --    0.26628   0.40370   0.85072   0.86090   0.90451
 Alpha virt. eigenvalues --    0.91196   0.92635   0.97099   1.02819   1.30842
 Alpha virt. eigenvalues --    1.38259   1.38933   1.46472   1.46473   1.60364

  Beta  occ. eigenvalues --  -15.38556 -15.38526  -0.72174  -0.55520  -0.14056
  Beta  occ. eigenvalues --   -0.06355  -0.02250
  Beta virt. eigenvalues --    0.28699   0.33191   0.43251   0.86152   0.91833
  Beta virt. eigenvalues --    0.92316   0.95373   0.98146   1.00977   1.03150
  Beta virt. eigenvalues --    1.32538   1.38836   1.40971   1.49227   1.49262

 Mulliken charges and spin densities:
               1          2
     1  N   -0.500000   0.500000
     2  N   -0.500000   0.500000
 Sum of Mulliken charges =  -1.00000   1.00000

 Dipole moment (field-independent basis, Debye):
    X=             -0.0000    Y=             -0.0000    Z=             -0.0000  Tot=              0.0000
 Quadrupole moment (field-independent basis, Debye-Ang):
   XX=            -14.1558   YY=            -15.1985   ZZ=            -18.3735
   XY=              0.0000   XZ=              0.0000   YZ=              0.0000

 0=-108.9525703\MP4SDQ=-109.0895375\CCSD=-109.0314519\CCSD(T)=-109.0808
 Normal termination of Gaussian 16 at Sat Feb 10 15:43:26 2024.
