 Gaussian 16, Revision A.03,
 Gaussian 16:  ES64L-G16RevA.03 25-Dec-2016

 ------------------
 #p CCSD(T)/cc-pVTZ
 ------------------

 -----
 N2_35
 -----
 Symbolic Z-matrix:
 Charge = -1 Multiplicity = 2

                         Standard orientation:
 ---------------------------------------------------------------------
 Center     Atomic      Atomic             Coordinates (Angstroms)
 Number     Number       Type             X           Y           Z
 ---------------------------------------------------------------------
      1          7           0        0.000000    0.000000    0.925000
      2          7           0        0.000000    0.000000   -0.925000
 ---------------------------------------------------------------------

 SCF Done:  E(UHF) =  -108.564240958     A.U. after   11 cycles
 E2 =    -0.5575349217D+00 EUMP2 =    -0.10912177587996D+03
 CCSD(T)
 CCSD(T)= -0.10908841907D+03

 Unable to determine electronic state:  an orbital has unidentified symmetry.
 Alpha  occ. eigenvalues --  -15.40495 -15.40470  -0.80114  -0.64540  -0.25640
 Alpha  occ. eigenvalues --   -0.17220  -0.15819  -0.08246
 Alpha virt. eigenvalues --    0.27200   0.41551   0.85141   0.86314   0.90439
 Alpha virt. eigenvalues --    0.91357   0.92760   0.97249   1.02604   1.31429
 Alpha virt. eigenvalues --    1.38454   1.39182   1.46191   1.46195   1.60964

  Beta  occ. eigenvalues --  -15.38253 -15.38222  -0.72621  -0.55007  -0.14432
  Beta  occ. eigenvalues --   -0.06610  -0.02505
  Beta virt. eigenvalues --    0.29268   0.33749   0.44445   0.86232   0.91807
  Beta virt. eigenvalues --    0.92468   0.95510   0.98299   1.01134   1.02904
  Beta virt. eigenvalues --    1.33144   1.39087   1.41246   1.48924   1.48951

 Mulliken charges and spin densities:
               1          2
     1  N   -0.500000   0.500000
     2  N   -0.500000   0.500000
 Sum of Mulliken charges =  -1.00000   1.00000

 Dipole moment (field-independent basis, Debye):
    X=             -0.0000    Y=             -0.0000    Z=             -0.0000  Tot=              0.0000
 Quadrupole moment (field-independent basis, Debye-Ang):
   XX=            -14.1243   YY=            -15.1709   ZZ=            -18.2997
   XY=              0.0000   XZ=              0.0000   YZ=              0.0000

 -0=-108.9696843\MP4SDQ=-109.0920104\CCSD=-109.0407582\CCSD(T)=-109.088
 Normal termination of Gaussian 16 at Sat Feb 10 15:43:15 2024.
