 Gaussian 16, Revision A.03,
 Gaussian 16:  ES64L-G16RevA.03 25-Dec-2016

 ------------------
 #p CCSD(T)/cc-pVTZ
 ------------------

 ----
 N2_3
 ----
 Symbolic Z-matrix:
 Charge = -1 Multiplicity = 2

                         Standard orientation:
 ---------------------------------------------------------------------
 Center     Atomic      Atomic             Coordinates (Angstroms)
 Number     Number       Type             X           Y           Z
 ---------------------------------------------------------------------
      1          7           0        0.000000    0.000000    0.445000
      2          7           0        0.000000    0.000000   -0.445000
 ---------------------------------------------------------------------

 SCF Done:  E(UHF) =  -108.573737916     A.U. after   11 cycles
 E2 =    -0.3430231114D+00 EUMP2 =    -0.10891676102702D+03
 CCSD(T)
 CCSD(T)= -0.10893898808D+03

 Unable to determine electronic state:  an orbital has unidentified symmetry.
 Alpha  occ. eigenvalues --  -15.20438 -15.18882  -1.23334  -0.41547  -0.37373
 Alpha  occ. eigenvalues --   -0.34801  -0.29248   0.21150
 Alpha virt. eigenvalues --    0.58520   0.69513   0.81530   0.81922   0.82121
 Alpha virt. eigenvalues --    1.03316   1.03662   1.10481   1.28956   1.38944
 Alpha virt. eigenvalues --    1.38968   1.78620   1.80223   1.83282   1.91171

  Beta  occ. eigenvalues --  -15.19384 -15.17781  -1.21391  -0.33957  -0.30535
  Beta  occ. eigenvalues --   -0.30427  -0.25801
  Beta virt. eigenvalues --    0.59812   0.62986   0.70526   0.82248   0.82560
  Beta virt. eigenvalues --    0.84905   1.04564   1.11467   1.14532   1.31392
  Beta virt. eigenvalues --    1.40976   1.41023   1.81179   1.83711   1.86802

 Mulliken charges and spin densities:
               1          2
     1  N   -0.500000   0.500000
     2  N   -0.500000   0.500000
 Sum of Mulliken charges =  -1.00000   1.00000

 Dipole moment (field-independent basis, Debye):
    X=             -0.0000    Y=              0.0000    Z=              0.0000  Tot=              0.0000
 Quadrupole moment (field-independent basis, Debye-Ang):
   XX=            -13.5986   YY=            -11.4273   ZZ=            -16.7936
   XY=              0.0000   XZ=              0.0000   YZ=             -0.0000

 0=-108.9266758\MP4SDQ=-108.9270361\CCSD=-108.9267919\CCSD(T)=-108.9389
 Normal termination of Gaussian 16 at Sat Feb 10 15:37:35 2024.
