 Gaussian 16, Revision A.03,
 Gaussian 16:  ES64L-G16RevA.03 25-Dec-2016

 ------------------
 #p CCSD(T)/cc-pVTZ
 ------------------

 -----
 N2_34
 -----
 Symbolic Z-matrix:
 Charge = -1 Multiplicity = 2

                         Standard orientation:
 ---------------------------------------------------------------------
 Center     Atomic      Atomic             Coordinates (Angstroms)
 Number     Number       Type             X           Y           Z
 ---------------------------------------------------------------------
      1          7           0        0.000000    0.000000    0.910000
      2          7           0        0.000000    0.000000   -0.910000
 ---------------------------------------------------------------------

 SCF Done:  E(UHF) =  -108.578368087     A.U. after   11 cycles
 E2 =    -0.5463564172D+00 EUMP2 =    -0.10912472450410D+03
 CCSD(T)
 CCSD(T)= -0.10909633825D+03

 Unable to determine electronic state:  an orbital has unidentified symmetry.
 Alpha  occ. eigenvalues --  -15.40172 -15.40146  -0.80530  -0.63991  -0.25695
 Alpha  occ. eigenvalues --   -0.16726  -0.16230  -0.08510
 Alpha virt. eigenvalues --    0.27793   0.42783   0.85242   0.86532   0.90423
 Alpha virt. eigenvalues --    0.91501   0.92887   0.97402   1.02379   1.32019
 Alpha virt. eigenvalues --    1.38716   1.39505   1.45900   1.45907   1.61586

  Beta  occ. eigenvalues --  -15.37934 -15.37901  -0.73108  -0.54475  -0.14812
  Beta  occ. eigenvalues --   -0.06880  -0.02776
  Beta virt. eigenvalues --    0.29856   0.34325   0.45687   0.86349   0.91774
  Beta virt. eigenvalues --    0.92603   0.95626   0.98456   1.01297   1.02652
  Beta virt. eigenvalues --    1.33755   1.39414   1.41600   1.48609   1.48629

 Mulliken charges and spin densities:
               1          2
     1  N   -0.500000   0.500000
     2  N   -0.500000   0.500000
 Sum of Mulliken charges =  -1.00000   1.00000

 Dipole moment (field-independent basis, Debye):
    X=             -0.0000    Y=              0.0000    Z=              0.0000  Tot=              0.0000
 Quadrupole moment (field-independent basis, Debye-Ang):
   XX=            -15.1412   YY=            -14.0901   ZZ=            -18.2290
   XY=              0.0000   XZ=              0.0000   YZ=             -0.0000

 3-0=-108.9864797\MP4SDQ=-109.0955135\CCSD=-109.0503805\CCSD(T)=-109.09
 Normal termination of Gaussian 16 at Sat Feb 10 15:43:03 2024.
