 Gaussian 16, Revision A.03,
 Gaussian 16:  ES64L-G16RevA.03 25-Dec-2016

 ------------------
 #p CCSD(T)/cc-pVTZ
 ------------------

 -----
 N2_37
 -----
 Symbolic Z-matrix:
 Charge = -1 Multiplicity = 2

                         Standard orientation:
 ---------------------------------------------------------------------
 Center     Atomic      Atomic             Coordinates (Angstroms)
 Number     Number       Type             X           Y           Z
 ---------------------------------------------------------------------
      1          7           0        0.000000    0.000000    0.955000
      2          7           0        0.000000    0.000000   -0.955000
 ---------------------------------------------------------------------

 SCF Done:  E(UHF) =  -108.536962297     A.U. after   11 cycles
 E2 =    -0.5806654073D+00 EUMP2 =    -0.10911762770394D+03
 CCSD(T)
 CCSD(T)= -0.10907364968D+03

 Unable to determine electronic state:  an orbital has unidentified symmetry.
 Alpha  occ. eigenvalues --  -15.41091 -15.41069  -0.79386  -0.65570  -0.25561
 Alpha  occ. eigenvalues --   -0.18136  -0.15023  -0.07761
 Alpha virt. eigenvalues --    0.26075   0.39240   0.85030   0.85860   0.90459
 Alpha virt. eigenvalues --    0.91022   0.92512   0.96954   1.03023   1.30260
 Alpha virt. eigenvalues --    1.38129   1.38756   1.46739   1.46742   1.59787

  Beta  occ. eigenvalues --  -15.38843 -15.38815  -0.71763  -0.56013  -0.13686
  Beta  occ. eigenvalues --   -0.06114  -0.02008
  Beta virt. eigenvalues --    0.28148   0.32650   0.42105   0.86102   0.91855
  Beta virt. eigenvalues --    0.92147   0.95218   0.97998   1.00824   1.03387
  Beta virt. eigenvalues --    1.31939   1.38659   1.40772   1.49516   1.49561

 Mulliken charges and spin densities:
               1          2
     1  N   -0.500000   0.500000
     2  N   -0.500000   0.500000
 Sum of Mulliken charges =  -1.00000   1.00000

 Dipole moment (field-independent basis, Debye):
    X=             -0.0000    Y=              0.0000    Z=             -0.0000  Tot=              0.0000
 Quadrupole moment (field-independent basis, Debye-Ang):
   XX=            -14.1847   YY=            -15.2241   ZZ=            -18.4508
   XY=              0.0000   XZ=              0.0000   YZ=              0.0000

 3-0=-108.9351061\MP4SDQ=-109.0881707\CCSD=-109.0224667\CCSD(T)=-109.07
 Normal termination of Gaussian 16 at Sat Feb 10 15:43:38 2024.
