 Gaussian 16, Revision A.03,
 Gaussian 16:  ES64L-G16RevA.03 25-Dec-2016

 ------------------
 #p CCSD(T)/cc-pVTZ
 ------------------

 -----
 N2_39
 -----
 Symbolic Z-matrix:
 Charge = -1 Multiplicity = 2

                         Standard orientation:
 ---------------------------------------------------------------------
 Center     Atomic      Atomic             Coordinates (Angstroms)
 Number     Number       Type             X           Y           Z
 ---------------------------------------------------------------------
      1          7           0        0.000000    0.000000    0.985000
      2          7           0        0.000000    0.000000   -0.985000
 ---------------------------------------------------------------------

 SCF Done:  E(UHF) =  -108.511009501     A.U. after   11 cycles
 E2 =    -0.6047959666D+00 EUMP2 =    -0.10911580546719D+03
 CCSD(T)
 CCSD(T)= -0.10906034978D+03

 Unable to determine electronic state:  an orbital has unidentified symmetry.
 Alpha  occ. eigenvalues --  -15.41627 -15.41607  -0.78779  -0.66518  -0.25517
 Alpha  occ. eigenvalues --   -0.18965  -0.14264  -0.07330
 Alpha virt. eigenvalues --    0.25024   0.37126   0.85009   0.85388   0.90467
 Alpha virt. eigenvalues --    0.90635   0.92270   0.96674   1.03383   1.29122
 Alpha virt. eigenvalues --    1.38054   1.38609   1.47232   1.47247   1.58698

  Beta  occ. eigenvalues --  -15.39375 -15.39350  -0.71039  -0.56946  -0.12965
  Beta  occ. eigenvalues --   -0.05672  -0.01561
  Beta virt. eigenvalues --    0.27100   0.31617   0.39955   0.86073   0.91768
  Beta virt. eigenvalues --    0.91889   0.94860   0.97712   1.00531   1.03825
  Beta virt. eigenvalues --    1.30767   1.38515   1.40595   1.50045   1.50122

 Mulliken charges and spin densities:
               1          2
     1  N   -0.500000   0.500000
     2  N   -0.500000   0.500000
 Sum of Mulliken charges =  -1.00000   1.00000

 Dipole moment (field-independent basis, Debye):
    X=             -0.0000    Y=              0.0000    Z=              0.0000  Tot=              0.0000
 Quadrupole moment (field-independent basis, Debye-Ang):
   XX=            -15.2698   YY=            -14.2355   ZZ=            -18.6156
   XY=              0.0000   XZ=              0.0000   YZ=             -0.0000

 0=-108.8989907\MP4SDQ=-109.0890768\CCSD=-109.0054719\CCSD(T)=-109.0603
 Normal termination of Gaussian 16 at Sat Feb 10 15:44:00 2024.
