 Gaussian 16, Revision A.03,
 Gaussian 16:  ES64L-G16RevA.03 25-Dec-2016

 ------------------
 #p CCSD(T)/cc-pVTZ
 ------------------

 -----
 N2_38
 -----
 Symbolic Z-matrix:
 Charge = -1 Multiplicity = 2

                         Standard orientation:
 ---------------------------------------------------------------------
 Center     Atomic      Atomic             Coordinates (Angstroms)
 Number     Number       Type             X           Y           Z
 ---------------------------------------------------------------------
      1          7           0        0.000000    0.000000    0.970000
      2          7           0        0.000000    0.000000   -0.970000
 ---------------------------------------------------------------------

 SCF Done:  E(UHF) =  -108.523819308     A.U. after   11 cycles
 E2 =    -0.5926079763D+00 EUMP2 =    -0.10911642728460D+03
 CCSD(T)
 CCSD(T)= -0.10906681328D+03

 Unable to determine electronic state:  an orbital has unidentified symmetry.
 Alpha  occ. eigenvalues --  -15.41366 -15.41345  -0.79068  -0.66054  -0.25535
 Alpha  occ. eigenvalues --   -0.18561  -0.14639  -0.07540
 Alpha virt. eigenvalues --    0.25540   0.38159   0.85010   0.85625   0.90464
 Alpha virt. eigenvalues --    0.90834   0.92391   0.96812   1.03211   1.29687
 Alpha virt. eigenvalues --    1.38061   1.38649   1.46992   1.47001   1.59232

  Beta  occ. eigenvalues --  -15.39116 -15.39089  -0.71385  -0.56489  -0.13323
  Beta  occ. eigenvalues --   -0.05887  -0.01778
  Beta virt. eigenvalues --    0.27616   0.32126   0.41007   0.86076   0.91873
  Beta virt. eigenvalues --    0.91964   0.95046   0.97853   1.00676   1.03613
  Beta virt. eigenvalues --    1.31348   1.38553   1.40648   1.49790   1.49848

 Mulliken charges and spin densities:
               1          2
     1  N   -0.500000   0.500000
     2  N   -0.500000   0.500000
 Sum of Mulliken charges =  -1.00000   1.00000

 Dipole moment (field-independent basis, Debye):
    X=             -0.0000    Y=              0.0000    Z=             -0.0000  Tot=              0.0000
 Quadrupole moment (field-independent basis, Debye-Ang):
   XX=            -14.2113   YY=            -15.2479   ZZ=            -18.5314
   XY=              0.0000   XZ=              0.0000   YZ=              0.0000

 3-0=-108.917258\MP4SDQ=-109.0879894\CCSD=-109.0138064\CCSD(T)=-109.066
 Normal termination of Gaussian 16 at Sat Feb 10 15:43:48 2024.
