 Gaussian 16, Revision A.03,
 Gaussian 16:  ES64L-G16RevA.03 25-Dec-2016

 ------------------
 #p CCSD(T)/cc-pVTZ
 ------------------

 -----
 N2_30
 -----
 Symbolic Z-matrix:
 Charge = -1 Multiplicity = 2

                         Standard orientation:
 ---------------------------------------------------------------------
 Center     Atomic      Atomic             Coordinates (Angstroms)
 Number     Number       Type             X           Y           Z
 ---------------------------------------------------------------------
      1          7           0        0.000000    0.000000    0.850000
      2          7           0        0.000000    0.000000   -0.850000
 ---------------------------------------------------------------------

 SCF Done:  E(UHF) =  -108.637900449     A.U. after   11 cycles
 E2 =    -0.5043338282D+00 EUMP2 =    -0.10914223427709D+03
 CCSD(T)
 CCSD(T)= -0.10913133168D+03

 Unable to determine electronic state:  an orbital has unidentified symmetry.
 Alpha  occ. eigenvalues --  -15.38698 -15.38665  -0.82591  -0.61570  -0.26036
 Alpha  occ. eigenvalues --   -0.17945  -0.14479  -0.09737
 Alpha virt. eigenvalues --    0.30379   0.48211   0.86106   0.87312   0.90289
 Alpha virt. eigenvalues --    0.91886   0.93422   0.98072   1.01423   1.34335
 Alpha virt. eigenvalues --    1.40454   1.41557   1.44658   1.44673   1.64306

  Beta  occ. eigenvalues --  -15.36482 -15.36440  -0.75504  -0.52149  -0.16364
  Beta  occ. eigenvalues --   -0.08129  -0.04022
  Beta virt. eigenvalues --    0.32414   0.36820   0.51104   0.87332   0.91560
  Beta virt. eigenvalues --    0.92932   0.95864   0.99142   1.01635   1.02009
  Beta virt. eigenvalues --    1.36158   1.41498   1.43820   1.47255   1.47256

 Mulliken charges and spin densities:
               1          2
     1  N   -0.500000   0.500000
     2  N   -0.500000   0.500000
 Sum of Mulliken charges =  -1.00000   1.00000

 Dipole moment (field-independent basis, Debye):
    X=             -0.0000    Y=             -0.0000    Z=              0.0000  Tot=              0.0000
 Quadrupole moment (field-independent basis, Debye-Ang):
   XX=            -15.0007   YY=            -13.9250   ZZ=            -17.9760
   XY=              0.0000   XZ=              0.0000   YZ=             -0.0000

 0=-109.0510056\MP4SDQ=-109.1184075\CCSD=-109.0918427\CCSD(T)=-109.1313
 Normal termination of Gaussian 16 at Sat Feb 10 15:42:20 2024.
