 Gaussian 16, Revision A.03,
 Gaussian 16:  ES64L-G16RevA.03 25-Dec-2016

 ------------------
 #p CCSD(T)/cc-pVTZ
 ------------------

 -----
 N2_33
 -----
 Symbolic Z-matrix:
 Charge = -1 Multiplicity = 2

                         Standard orientation:
 ---------------------------------------------------------------------
 Center     Atomic      Atomic             Coordinates (Angstroms)
 Number     Number       Type             X           Y           Z
 ---------------------------------------------------------------------
      1          7           0        0.000000    0.000000    0.895000
      2          7           0        0.000000    0.000000   -0.895000
 ---------------------------------------------------------------------

 SCF Done:  E(UHF) =  -108.592810589     A.U. after   11 cycles
 E2 =    -0.5354421450D+00 EUMP2 =    -0.10912825273390D+03
 CCSD(T)
 CCSD(T)= -0.10910460186D+03

 Unable to determine electronic state:  an orbital has unidentified symmetry.
 Alpha  occ. eigenvalues --  -15.39832 -15.39805  -0.80982  -0.63421  -0.25761
 Alpha  occ. eigenvalues --   -0.16648  -0.16207  -0.08790
 Alpha virt. eigenvalues --    0.28406   0.44066   0.85381   0.86743   0.90401
 Alpha virt. eigenvalues --    0.91627   0.93016   0.97561   1.02146   1.32610
 Alpha virt. eigenvalues --    1.39046   1.39903   1.45600   1.45609   1.62231

  Beta  occ. eigenvalues --  -15.37598 -15.37563  -0.73636  -0.53924  -0.15197
  Beta  occ. eigenvalues --   -0.07166  -0.03061
  Beta virt. eigenvalues --    0.30463   0.34919   0.46977   0.86507   0.91735
  Beta virt. eigenvalues --    0.92718   0.95721   0.98618   1.01465   1.02396
  Beta virt. eigenvalues --    1.34366   1.39817   1.42034   1.48283   1.48297

 Mulliken charges and spin densities:
               1          2
     1  N   -0.500000   0.500000
     2  N   -0.500000   0.500000
 Sum of Mulliken charges =  -1.00000   1.00000

 Dipole moment (field-independent basis, Debye):
    X=             -0.0000    Y=              0.0000    Z=             -0.0000  Tot=              0.0000
 Quadrupole moment (field-independent basis, Debye-Ang):
   XX=            -14.0533   YY=            -15.1094   ZZ=            -18.1614
   XY=              0.0000   XZ=              0.0000   YZ=              0.0000

 0=-109.0029855\MP4SDQ=-109.0999743\CCSD=-109.0603115\CCSD(T)=-109.1046
 Normal termination of Gaussian 16 at Sat Feb 10 15:42:52 2024.
