 Gaussian 16, Revision A.03,
 Gaussian 16:  ES64L-G16RevA.03 25-Dec-2016

 ------------------
 #p CCSD(T)/cc-pVTZ
 ------------------

 -----
 N2_31
 -----
 Symbolic Z-matrix:
 Charge = -1 Multiplicity = 2

                         Standard orientation:
 ---------------------------------------------------------------------
 Center     Atomic      Atomic             Coordinates (Angstroms)
 Number     Number       Type             X           Y           Z
 ---------------------------------------------------------------------
      1          7           0        0.000000    0.000000    0.865000
      2          7           0        0.000000    0.000000   -0.865000
 ---------------------------------------------------------------------

 SCF Done:  E(UHF) =  -108.622593642     A.U. after   11 cycles
 E2 =    -0.5144259011D+00 EUMP2 =    -0.10913701954292D+03
 CCSD(T)
 CCSD(T)= -0.10912211391D+03

 Unable to determine electronic state:  an orbital has unidentified symmetry.
 Alpha  occ. eigenvalues --  -15.39096 -15.39065  -0.82010  -0.62210  -0.25930
 Alpha  occ. eigenvalues --   -0.17507  -0.15085  -0.09402
 Alpha virt. eigenvalues --    0.29698   0.46783   0.85802   0.87134   0.90336
 Alpha virt. eigenvalues --    0.91821   0.93283   0.97895   1.01665   1.33774
 Alpha virt. eigenvalues --    1.39914   1.40929   1.44978   1.44991   1.63591

  Beta  occ. eigenvalues --  -15.36873 -15.36834  -0.74831  -0.52761  -0.15974
  Beta  occ. eigenvalues --   -0.07789  -0.03683
  Beta virt. eigenvalues --    0.31742   0.36166   0.49689   0.86987   0.91630
  Beta virt. eigenvalues --    0.92884   0.95841   0.98960   1.01820   1.01885
  Beta virt. eigenvalues --    1.35574   1.40859   1.43144   1.47604   1.47609

 Mulliken charges and spin densities:
               1          2
     1  N   -0.500000   0.500000
     2  N   -0.500000   0.500000
 Sum of Mulliken charges =  -1.00000   1.00000

 Dipole moment (field-independent basis, Debye):
    X=             -0.0000    Y=              0.0000    Z=             -0.0000  Tot=              0.0000
 Quadrupole moment (field-independent basis, Debye-Ang):
   XX=            -13.9708   YY=            -15.0392   ZZ=            -18.0351
   XY=              0.0000   XZ=              0.0000   YZ=              0.0000

 0=-109.0352283\MP4SDQ=-109.1114893\CCSD=-109.0810571\CCSD(T)=-109.1221
 Normal termination of Gaussian 16 at Sat Feb 10 15:42:31 2024.
