 Gaussian 16, Revision A.03,
 Gaussian 16:  ES64L-G16RevA.03 25-Dec-2016

 ------------------
 #p CCSD(T)/cc-pVTZ
 ------------------

 ----
 N2_4
 ----
 Symbolic Z-matrix:
 Charge = -1 Multiplicity = 2

                         Standard orientation:
 ---------------------------------------------------------------------
 Center     Atomic      Atomic             Coordinates (Angstroms)
 Number     Number       Type             X           Y           Z
 ---------------------------------------------------------------------
      1          7           0        0.000000    0.000000    0.460000
      2          7           0        0.000000    0.000000   -0.460000
 ---------------------------------------------------------------------

 SCF Done:  E(UHF) =  -108.653170509     A.U. after   11 cycles
 E2 =    -0.3459946446D+00 EUMP2 =    -0.10899916515355D+03
 CCSD(T)
 CCSD(T)= -0.10902161755D+03

 Unable to determine electronic state:  an orbital has unidentified symmetry.
 Alpha  occ. eigenvalues --  -15.20802 -15.19609  -1.21222  -0.40046  -0.38370
 Alpha  occ. eigenvalues --   -0.32701  -0.28766   0.19036
 Alpha virt. eigenvalues --    0.57372   0.69474   0.82075   0.82692   0.82963
 Alpha virt. eigenvalues --    1.02634   1.02921   1.09475   1.28164   1.38998
 Alpha virt. eigenvalues --    1.39023   1.73727   1.78323   1.81413   1.90191

  Beta  occ. eigenvalues --  -15.19634 -15.18395  -1.19011  -0.31772  -0.31279
  Beta  occ. eigenvalues --   -0.28115  -0.25255
  Beta virt. eigenvalues --    0.58678   0.61904   0.70482   0.82740   0.83394
  Beta virt. eigenvalues --    0.85726   1.04168   1.10512   1.13611   1.30506
  Beta virt. eigenvalues --    1.41042   1.41088   1.76429   1.81826   1.84920

 Mulliken charges and spin densities:
               1          2
     1  N   -0.500000   0.500000
     2  N   -0.500000   0.500000
 Sum of Mulliken charges =  -1.00000   1.00000

 Dipole moment (field-independent basis, Debye):
    X=             -0.0000    Y=             -0.0000    Z=              0.0000  Tot=              0.0000
 Quadrupole moment (field-independent basis, Debye-Ang):
   XX=            -13.6022   YY=            -11.5521   ZZ=            -16.8032
   XY=              0.0000   XZ=              0.0000   YZ=             -0.0000

 -0=-109.0087208\MP4SDQ=-109.0092227\CCSD=-109.0089325\CCSD(T)=-109.021
 Normal termination of Gaussian 16 at Sat Feb 10 15:37:46 2024.
