 Gaussian 16, Revision A.03,
 Gaussian 16:  ES64L-G16RevA.03 25-Dec-2016

 ------------------
 #p CCSD(T)/cc-pVTZ
 ------------------

 -----
 N2_47
 -----
 Symbolic Z-matrix:
 Charge = -1 Multiplicity = 2

                         Standard orientation:
 ---------------------------------------------------------------------
 Center     Atomic      Atomic             Coordinates (Angstroms)
 Number     Number       Type             X           Y           Z
 ---------------------------------------------------------------------
      1          7           0        0.000000    0.000000    1.105000
      2          7           0        0.000000    0.000000   -1.105000
 ---------------------------------------------------------------------

 SCF Done:  E(UHF) =  -108.420238953     A.U. after   12 cycles
 E2 =    -0.7106176342D+00 EUMP2 =    -0.10913085658700D+03
 CCSD(T)
 CCSD(T)= -0.10902238079D+03

 Unable to determine electronic state:  an orbital has unidentified symmetry.
 Alpha  occ. eigenvalues --  -15.43282 -15.43268  -0.77249  -0.69581  -0.25583
 Alpha  occ. eigenvalues --   -0.21580  -0.11615  -0.06022
 Alpha virt. eigenvalues --    0.21445   0.30339   0.83525   0.85416   0.88847
 Alpha virt. eigenvalues --    0.90441   0.91325   0.95640   1.03694   1.24997
 Alpha virt. eigenvalues --    1.39718   1.40199   1.46494   1.48731   1.49014

  Beta  occ. eigenvalues --  -15.41030 -15.41012  -0.69161  -0.60028  -0.10383
  Beta  occ. eigenvalues --   -0.04322  -0.00186
  Beta virt. eigenvalues --    0.23507   0.28047   0.33010   0.86502   0.89973
  Beta virt. eigenvalues --    0.91966   0.93070   0.96663   0.99465   1.04520
  Beta virt. eigenvalues --    1.26539   1.40161   1.42201   1.47795   1.51787

 Mulliken charges and spin densities:
               1          2
     1  N   -0.500000   0.500000
     2  N   -0.500000   0.500000
 Sum of Mulliken charges =  -1.00000   1.00000

 Dipole moment (field-independent basis, Debye):
    X=             -0.0000    Y=              0.0000    Z=              0.0000  Tot=              0.0000
 Quadrupole moment (field-independent basis, Debye-Ang):
   XX=            -14.3599   YY=            -15.3884   ZZ=            -19.4211
   XY=              0.0000   XZ=              0.0000   YZ=              0.0000

 =-108.7331046\MP4SDQ=-109.1550937\CCSD=-108.9504068\CCSD(T)=-109.02238
 Normal termination of Gaussian 16 at Sat Feb 10 15:45:29 2024.
