 Gaussian 16, Revision A.03,
 Gaussian 16:  ES64L-G16RevA.03 25-Dec-2016

 ------------------
 #p CCSD(T)/cc-pVTZ
 ------------------

 -----
 N2_44
 -----
 Symbolic Z-matrix:
 Charge = -1 Multiplicity = 2

                         Standard orientation:
 ---------------------------------------------------------------------
 Center     Atomic      Atomic             Coordinates (Angstroms)
 Number     Number       Type             X           Y           Z
 ---------------------------------------------------------------------
      1          7           0        0.000000    0.000000    1.060000
      2          7           0        0.000000    0.000000   -1.060000
 ---------------------------------------------------------------------

 SCF Done:  E(UHF) =  -108.451900669     A.U. after   12 cycles
 E2 =    -0.6692638397D+00 EUMP2 =    -0.10912116450915D+03
 CCSD(T)
 CCSD(T)= -0.10903373623D+03

 Unable to determine electronic state:  an orbital has unidentified symmetry.
 Alpha  occ. eigenvalues --  -15.42742 -15.42726  -0.77682  -0.68557  -0.25523
 Alpha  occ. eigenvalues --   -0.20715  -0.12535  -0.06445
 Alpha virt. eigenvalues --    0.22680   0.32606   0.84201   0.85203   0.89533
 Alpha virt. eigenvalues --    0.90459   0.91679   0.96016   1.03866   1.26459
 Alpha virt. eigenvalues --    1.38797   1.39274   1.48127   1.48277   1.51784

  Beta  occ. eigenvalues --  -15.40488 -15.40468  -0.69707  -0.58984  -0.11292
  Beta  occ. eigenvalues --   -0.04760  -0.00635
  Beta virt. eigenvalues --    0.24751   0.29290   0.35335   0.86274   0.90667
  Beta virt. eigenvalues --    0.91945   0.93774   0.97044   0.99850   1.04540
  Beta virt. eigenvalues --    1.28035   1.39209   1.41250   1.50690   1.51273

 Mulliken charges and spin densities:
               1          2
     1  N   -0.500000   0.500000
     2  N   -0.500000   0.500000
 Sum of Mulliken charges =  -1.00000   1.00000

 Dipole moment (field-independent basis, Debye):
    X=             -0.0000    Y=              0.0000    Z=              0.0000  Tot=              0.0000
 Quadrupole moment (field-independent basis, Debye-Ang):
   XX=            -14.3262   YY=            -15.3545   ZZ=            -19.0909
   XY=              0.0000   XZ=              0.0000   YZ=              0.0000

 3-0=-108.8000294\MP4SDQ=-109.116798\CCSD=-108.9686788\CCSD(T)=-109.033
 Normal termination of Gaussian 16 at Sat Feb 10 15:44:56 2024.
