 Gaussian 16, Revision A.03,
 Gaussian 16:  ES64L-G16RevA.03 25-Dec-2016

 ------------------
 #p CCSD(T)/cc-pVTZ
 ------------------

 -----
 N2_46
 -----
 Symbolic Z-matrix:
 Charge = -1 Multiplicity = 2

                         Standard orientation:
 ---------------------------------------------------------------------
 Center     Atomic      Atomic             Coordinates (Angstroms)
 Number     Number       Type             X           Y           Z
 ---------------------------------------------------------------------
      1          7           0        0.000000    0.000000    1.090000
      2          7           0        0.000000    0.000000   -1.090000
 ---------------------------------------------------------------------

 SCF Done:  E(UHF) =  -108.430488805     A.U. after   12 cycles
 E2 =    -0.6966195313D+00 EUMP2 =    -0.10912710833624D+03
 CCSD(T)
 CCSD(T)= -0.10902578162D+03

 Unable to determine electronic state:  an orbital has unidentified symmetry.
 Alpha  occ. eigenvalues --  -15.43111 -15.43097  -0.77378  -0.69255  -0.25560
 Alpha  occ. eigenvalues --   -0.21305  -0.11912  -0.06156
 Alpha virt. eigenvalues --    0.21844   0.31062   0.83745   0.85340   0.89074
 Alpha virt. eigenvalues --    0.90448   0.91443   0.95764   1.03802   1.25473
 Alpha virt. eigenvalues --    1.39382   1.39858   1.47623   1.48593   1.49214

  Beta  occ. eigenvalues --  -15.40859 -15.40840  -0.69325  -0.59694  -0.10678
  Beta  occ. eigenvalues --   -0.04460  -0.00328
  Beta virt. eigenvalues --    0.23909   0.28450   0.33752   0.86420   0.90203
  Beta virt. eigenvalues --    0.91960   0.93304   0.96789   0.99592   1.04577
  Beta virt. eigenvalues --    1.27026   1.39811   1.41850   1.49101   1.51630

 Mulliken charges and spin densities:
               1          2
     1  N   -0.500000   0.500000
     2  N   -0.500000   0.500000
 Sum of Mulliken charges =  -1.00000   1.00000

 Dipole moment (field-independent basis, Debye):
    X=             -0.0000    Y=             -0.0000    Z=              0.0000  Tot=              0.0000
 Quadrupole moment (field-independent basis, Debye-Ang):
   XX=            -15.3784   YY=            -14.3502   ZZ=            -19.3072
   XY=              0.0000   XZ=              0.0000   YZ=             -0.0000

 3-0=-108.7561383\MP4SDQ=-109.140247\CCSD=-108.9561902\CCSD(T)=-109.025
 Normal termination of Gaussian 16 at Sat Feb 10 15:45:18 2024.
