 Gaussian 16, Revision A.03,
 Gaussian 16:  ES64L-G16RevA.03 25-Dec-2016

 ------------------
 #p CCSD(T)/cc-pVTZ
 ------------------

 -----
 N2_42
 -----
 Symbolic Z-matrix:
 Charge = -1 Multiplicity = 2

                         Standard orientation:
 ---------------------------------------------------------------------
 Center     Atomic      Atomic             Coordinates (Angstroms)
 Number     Number       Type             X           Y           Z
 ---------------------------------------------------------------------
      1          7           0        0.000000    0.000000    1.030000
      2          7           0        0.000000    0.000000   -1.030000
 ---------------------------------------------------------------------

 SCF Done:  E(UHF) =  -108.474568581     A.U. after   12 cycles
 E2 =    -0.6427881743D+00 EUMP2 =    -0.10911735675547D+03
 CCSD(T)
 CCSD(T)= -0.10904323176D+03

 Unable to determine electronic state:  an orbital has unidentified symmetry.
 Alpha  occ. eigenvalues --  -15.42331 -15.42314  -0.78057  -0.67794  -0.25504
 Alpha  occ. eigenvalues --   -0.20065  -0.13197  -0.06770
 Alpha virt. eigenvalues --    0.23572   0.34292   0.84672   0.85094   0.89989
 Alpha virt. eigenvalues --    0.90465   0.91914   0.96273   1.03764   1.27491
 Alpha virt. eigenvalues --    1.38359   1.38852   1.47851   1.47905   1.55647

  Beta  occ. eigenvalues --  -15.40077 -15.40055  -0.70168  -0.58216  -0.11938
  Beta  occ. eigenvalues --   -0.05095  -0.00976
  Beta virt. eigenvalues --    0.25647   0.30180   0.37062   0.86158   0.91125
  Beta virt. eigenvalues --    0.91926   0.94231   0.97305   1.00115   1.04340
  Beta virt. eigenvalues --    1.29092   1.38773   1.40822   1.50654   1.50857

 Mulliken charges and spin densities:
               1          2
     1  N   -0.500000   0.500000
     2  N   -0.500000   0.500000
 Sum of Mulliken charges =  -1.00000   1.00000

 Dipole moment (field-independent basis, Debye):
    X=             -0.0000    Y=              0.0000    Z=              0.0000  Tot=              0.0000
 Quadrupole moment (field-independent basis, Debye-Ang):
   XX=            -15.3252   YY=            -14.2956   ZZ=            -18.8896
   XY=              0.0000   XZ=              0.0000   YZ=             -0.0000

 -0=-108.8412964\MP4SDQ=-109.1008552\CCSD=-108.9824275\CCSD(T)=-109.043
 Normal termination of Gaussian 16 at Sat Feb 10 15:44:33 2024.
