 Gaussian 16, Revision A.03,
 Gaussian 16:  ES64L-G16RevA.03 25-Dec-2016

 ------------------
 #p CCSD(T)/cc-pVTZ
 ------------------

 -----
 N2_43
 -----
 Symbolic Z-matrix:
 Charge = -1 Multiplicity = 2

                         Standard orientation:
 ---------------------------------------------------------------------
 Center     Atomic      Atomic             Coordinates (Angstroms)
 Number     Number       Type             X           Y           Z
 ---------------------------------------------------------------------
      1          7           0        0.000000    0.000000    1.045000
      2          7           0        0.000000    0.000000   -1.045000
 ---------------------------------------------------------------------

 SCF Done:  E(UHF) =  -108.463074875     A.U. after   12 cycles
 E2 =    -0.6559140131D+00 EUMP2 =    -0.10911898888855D+03
 CCSD(T)
 CCSD(T)= -0.10903829144D+03

 Unable to determine electronic state:  an orbital has unidentified symmetry.
 Alpha  occ. eigenvalues --  -15.42542 -15.42525  -0.77860  -0.68184  -0.25511
 Alpha  occ. eigenvalues --   -0.20398  -0.12862  -0.06603
 Alpha virt. eigenvalues --    0.23119   0.33430   0.84435   0.85144   0.89762
 Alpha virt. eigenvalues --    0.90462   0.91796   0.96144   1.03833   1.26970
 Alpha virt. eigenvalues --    1.38557   1.39040   1.48012   1.48098   1.53631

  Beta  occ. eigenvalues --  -15.40288 -15.40267  -0.69927  -0.58608  -0.11611
  Beta  occ. eigenvalues --   -0.04923  -0.00801
  Beta virt. eigenvalues --    0.25192   0.29728   0.36180   0.86212   0.90898
  Beta virt. eigenvalues --    0.91936   0.94004   0.97173   0.99981   1.04458
  Beta virt. eigenvalues --    1.28557   1.38968   1.41012   1.50754   1.51072

 Mulliken charges and spin densities:
               1          2
     1  N   -0.500000   0.500000
     2  N   -0.500000   0.500000
 Sum of Mulliken charges =  -1.00000   1.00000

 Dipole moment (field-independent basis, Debye):
    X=             -0.0000    Y=              0.0000    Z=              0.0000  Tot=              0.0000
 Quadrupole moment (field-independent basis, Debye-Ang):
   XX=            -15.3406   YY=            -14.3118   ZZ=            -18.9884
   XY=              0.0000   XZ=              0.0000   YZ=             -0.0000

 3-0=-108.8209703\MP4SDQ=-109.1079467\CCSD=-108.9753936\CCSD(T)=-109.03
 Normal termination of Gaussian 16 at Sat Feb 10 15:44:44 2024.
