 Gaussian 16, Revision A.03,
 Gaussian 16:  ES64L-G16RevA.03 25-Dec-2016

 ------------------
 #p CCSD(T)/cc-pVTZ
 ------------------

 -----
 N2_40
 -----
 Symbolic Z-matrix:
 Charge = -1 Multiplicity = 2

                         Standard orientation:
 ---------------------------------------------------------------------
 Center     Atomic      Atomic             Coordinates (Angstroms)
 Number     Number       Type             X           Y           Z
 ---------------------------------------------------------------------
      1          7           0        0.000000    0.000000    1.000000
      2          7           0        0.000000    0.000000   -1.000000
 ---------------------------------------------------------------------

 SCF Done:  E(UHF) =  -108.498532482     A.U. after   11 cycles
 E2 =    -0.6172248972D+00 EUMP2 =    -0.10911575737940D+03
 CCSD(T)
 CCSD(T)= -0.10905426298D+03

 Unable to determine electronic state:  an orbital has unidentified symmetry.
 Alpha  occ. eigenvalues --  -15.41874 -15.41855  -0.78515  -0.66962  -0.25507
 Alpha  occ. eigenvalues --   -0.19350  -0.13899  -0.07133
 Alpha virt. eigenvalues --    0.24524   0.36138   0.85024   0.85150   0.90427
 Alpha virt. eigenvalues --    0.90468   0.92151   0.96538   1.03535   1.28568
 Alpha virt. eigenvalues --    1.38103   1.38632   1.47456   1.47480   1.58185

  Beta  occ. eigenvalues --  -15.39621 -15.39597  -0.70723  -0.57386  -0.12615
  Beta  occ. eigenvalues --   -0.05469  -0.01356
  Beta virt. eigenvalues --    0.26600   0.31124   0.38948   0.86087   0.91562
  Beta virt. eigenvalues --    0.91903   0.94660   0.97574   1.00389   1.04019
  Beta virt. eigenvalues --    1.30197   1.38542   1.40609   1.50279   1.50381

 Mulliken charges and spin densities:
               1          2
     1  N   -0.500000   0.500000
     2  N   -0.500000   0.500000
 Sum of Mulliken charges =  -1.00000   1.00000

 Dipole moment (field-independent basis, Debye):
    X=             -0.0000    Y=             -0.0000    Z=              0.0000  Tot=              0.0000
 Quadrupole moment (field-independent basis, Debye-Ang):
   XX=            -14.2576   YY=            -15.2899   ZZ=            -18.7033
   XY=              0.0000   XZ=              0.0000   YZ=              0.0000

 0=-108.880267\MP4SDQ=-109.0915209\CCSD=-108.9974646\CCSD(T)=-109.05426
 Normal termination of Gaussian 16 at Sat Feb 10 15:44:11 2024.
