 Gaussian 16, Revision A.03,
 Gaussian 16:  ES64L-G16RevA.03 25-Dec-2016

 ------------------
 #p CCSD(T)/cc-pVTZ
 ------------------

 -----
 N2_48
 -----
 Symbolic Z-matrix:
 Charge = -1 Multiplicity = 2

                         Standard orientation:
 ---------------------------------------------------------------------
 Center     Atomic      Atomic             Coordinates (Angstroms)
 Number     Number       Type             X           Y           Z
 ---------------------------------------------------------------------
      1          7           0        0.000000    0.000000    1.120000
      2          7           0        0.000000    0.000000   -1.120000
 ---------------------------------------------------------------------

 SCF Done:  E(UHF) =  -108.410284419     A.U. after   12 cycles
 E2 =    -0.7248241796D+00 EUMP2 =    -0.10913510859892D+03
 CCSD(T)
 CCSD(T)= -0.10901936186D+03

 Unable to determine electronic state:  an orbital has unidentified symmetry.
 Alpha  occ. eigenvalues --  -15.43444 -15.43430  -0.77134  -0.69894  -0.25610
 Alpha  occ. eigenvalues --   -0.21843  -0.11327  -0.05896
 Alpha virt. eigenvalues --    0.21058   0.29647   0.83311   0.85497   0.88623
 Alpha virt. eigenvalues --    0.90432   0.91207   0.95516   1.03530   1.24531
 Alpha virt. eigenvalues --    1.40078   1.40565   1.45283   1.48856   1.49040

  Beta  occ. eigenvalues --  -15.41193 -15.41176  -0.69012  -0.60349  -0.10097
  Beta  occ. eigenvalues --   -0.04191  -0.00052
  Beta virt. eigenvalues --    0.23116   0.27656   0.32299   0.86589   0.89745
  Beta virt. eigenvalues --    0.91971   0.92837   0.96538   0.99339   1.04405
  Beta virt. eigenvalues --    1.26063   1.40536   1.42579   1.46526   1.51929

 Mulliken charges and spin densities:
               1          2
     1  N   -0.500000   0.500000
     2  N   -0.500000   0.500000
 Sum of Mulliken charges =  -1.00000   1.00000

 Dipole moment (field-independent basis, Debye):
    X=             -0.0000    Y=              0.0000    Z=             -0.0000  Tot=              0.0000
 Quadrupole moment (field-independent basis, Debye-Ang):
   XX=            -14.3683   YY=            -15.3973   ZZ=            -19.5387
   XY=              0.0000   XZ=              0.0000   YZ=              0.0000

 -0=-108.7092896\MP4SDQ=-109.1721988\CCSD=-108.944923\CCSD(T)=-109.0193
 Normal termination of Gaussian 16 at Sat Feb 10 15:45:40 2024.
