 Gaussian 16, Revision A.03,
 Gaussian 16:  ES64L-G16RevA.03 25-Dec-2016

 ------------------
 #p CCSD(T)/cc-pVTZ
 ------------------

 -----
 N2_49
 -----
 Symbolic Z-matrix:
 Charge = -1 Multiplicity = 2

                         Standard orientation:
 ---------------------------------------------------------------------
 Center     Atomic      Atomic             Coordinates (Angstroms)
 Number     Number       Type             X           Y           Z
 ---------------------------------------------------------------------
      1          7           0        0.000000    0.000000    1.135000
      2          7           0        0.000000    0.000000   -1.135000
 ---------------------------------------------------------------------

 SCF Done:  E(UHF) =  -108.400618330     A.U. after   12 cycles
 E2 =    -0.7392354369D+00 EUMP2 =    -0.10913985376716D+03
 CCSD(T)
 CCSD(T)= -0.10901672257D+03

 Unable to determine electronic state:  an orbital has unidentified symmetry.
 Alpha  occ. eigenvalues --  -15.43597 -15.43585  -0.77031  -0.70193  -0.25639
 Alpha  occ. eigenvalues --   -0.22093  -0.11049  -0.05776
 Alpha virt. eigenvalues --    0.20684   0.28983   0.83104   0.85580   0.88403
 Alpha virt. eigenvalues --    0.90421   0.91088   0.95393   1.03306   1.24076
 Alpha virt. eigenvalues --    1.40456   1.40952   1.44175   1.48968   1.49109

  Beta  occ. eigenvalues --  -15.41348 -15.41332  -0.68878  -0.60659  -0.09819
  Beta  occ. eigenvalues --   -0.04067   0.00076
  Beta virt. eigenvalues --    0.22737   0.27275   0.31616   0.86679   0.89522
  Beta virt. eigenvalues --    0.91975   0.92608   0.96414   0.99214   1.04228
  Beta virt. eigenvalues --    1.25598   1.40932   1.42978   1.45373   1.52058

 Mulliken charges and spin densities:
               1          2
     1  N   -0.500000   0.500000
     2  N   -0.500000   0.500000
 Sum of Mulliken charges =  -1.00000   1.00000

 Dipole moment (field-independent basis, Debye):
    X=             -0.0000    Y=              0.0000    Z=              0.0000  Tot=              0.0000
 Quadrupole moment (field-independent basis, Debye-Ang):
   XX=            -15.4051   YY=            -14.3754   ZZ=            -19.6602
   XY=              0.0000   XZ=              0.0000   YZ=             -0.0000

 3-0=-108.6846514\MP4SDQ=-109.1917032\CCSD=-108.9397332\CCSD(T)=-109.01
 Normal termination of Gaussian 16 at Sat Feb 10 15:45:51 2024.
