 Gaussian 16, Revision A.03,
 Gaussian 16:  ES64L-G16RevA.03 25-Dec-2016

 ------------------
 #p CCSD(T)/cc-pVTZ
 ------------------

 -----
 N2_41
 -----
 Symbolic Z-matrix:
 Charge = -1 Multiplicity = 2

                         Standard orientation:
 ---------------------------------------------------------------------
 Center     Atomic      Atomic             Coordinates (Angstroms)
 Number     Number       Type             X           Y           Z
 ---------------------------------------------------------------------
      1          7           0        0.000000    0.000000    1.015000
      2          7           0        0.000000    0.000000   -1.015000
 ---------------------------------------------------------------------

 SCF Done:  E(UHF) =  -108.486386485     A.U. after   12 cycles
 E2 =    -0.6298904161D+00 EUMP2 =    -0.10911627690097D+03
 CCSD(T)
 CCSD(T)= -0.10904855731D+03

 Unable to determine electronic state:  an orbital has unidentified symmetry.
 Alpha  occ. eigenvalues --  -15.42109 -15.42091  -0.78275  -0.67387  -0.25502
 Alpha  occ. eigenvalues --   -0.19716  -0.13543  -0.06946
 Alpha virt. eigenvalues --    0.24040   0.35194   0.84910   0.85053   0.90211
 Alpha virt. eigenvalues --    0.90467   0.92032   0.96405   1.03663   1.28024
 Alpha virt. eigenvalues --    1.38206   1.38714   1.47663   1.47699   1.57693

  Beta  occ. eigenvalues --  -15.39855 -15.39832  -0.70433  -0.57809  -0.12273
  Beta  occ. eigenvalues --   -0.05277  -0.01161
  Beta virt. eigenvalues --    0.26116   0.30645   0.37984   0.86116   0.91347
  Beta virt. eigenvalues --    0.91915   0.94450   0.97438   1.00251   1.04192
  Beta virt. eigenvalues --    1.29639   1.38629   1.40686   1.50486   1.50626

 Mulliken charges and spin densities:
               1          2
     1  N   -0.500000   0.500000
     2  N   -0.500000   0.500000
 Sum of Mulliken charges =  -1.00000   1.00000

 Dipole moment (field-independent basis, Debye):
    X=             -0.0000    Y=              0.0000    Z=             -0.0000  Tot=              0.0000
 Quadrupole moment (field-independent basis, Debye-Ang):
   XX=            -14.2776   YY=            -15.3084   ZZ=            -18.7946
   XY=              0.0000   XZ=              0.0000   YZ=              0.0000

 -0=-108.8610486\MP4SDQ=-109.0954144\CCSD=-108.9897847\CCSD(T)=-109.048
 Normal termination of Gaussian 16 at Sat Feb 10 15:44:22 2024.
