 Gaussian 16, Revision A.03,
 Gaussian 16:  ES64L-G16RevA.03 25-Dec-2016

 ------------------
 #p CCSD(T)/cc-pVTZ
 ------------------

 -----
 N2_45
 -----
 Symbolic Z-matrix:
 Charge = -1 Multiplicity = 2

                         Standard orientation:
 ---------------------------------------------------------------------
 Center     Atomic      Atomic             Coordinates (Angstroms)
 Number     Number       Type             X           Y           Z
 ---------------------------------------------------------------------
      1          7           0        0.000000    0.000000    1.075000
      2          7           0        0.000000    0.000000   -1.075000
 ---------------------------------------------------------------------

 SCF Done:  E(UHF) =  -108.441040608     A.U. after   12 cycles
 E2 =    -0.6828336518D+00 EUMP2 =    -0.10912387425989D+03
 CCSD(T)
 CCSD(T)= -0.10902956640D+03

 Unable to determine electronic state:  an orbital has unidentified symmetry.
 Alpha  occ. eigenvalues --  -15.42932 -15.42916  -0.77522  -0.68914  -0.25540
 Alpha  occ. eigenvalues --   -0.21017  -0.12219  -0.06297
 Alpha virt. eigenvalues --    0.22256   0.31817   0.83971   0.85268   0.89304
 Alpha virt. eigenvalues --    0.90454   0.91561   0.95890   1.03857   1.25961
 Alpha virt. eigenvalues --    1.39073   1.39548   1.48117   1.48442   1.50189

  Beta  occ. eigenvalues --  -15.40678 -15.40659  -0.69507  -0.59346  -0.10981
  Beta  occ. eigenvalues --   -0.04606  -0.00478
  Beta virt. eigenvalues --    0.24324   0.28864   0.34526   0.86344   0.90435
  Beta virt. eigenvalues --    0.91953   0.93540   0.96916   0.99720   1.04582
  Beta virt. eigenvalues --    1.27524   1.39492   1.41531   1.50192   1.51459

 Mulliken charges and spin densities:
               1          2
     1  N   -0.500000   0.500000
     2  N   -0.500000   0.500000
 Sum of Mulliken charges =  -1.00000   1.00000

 Dipole moment (field-independent basis, Debye):
    X=             -0.0000    Y=              0.0000    Z=              0.0000  Tot=              0.0000
 Quadrupole moment (field-independent basis, Debye-Ang):
   XX=            -15.3671   YY=            -14.3390   ZZ=            -19.1971
   XY=              0.0000   XZ=              0.0000   YZ=             -0.0000

 -0=-108.7784326\MP4SDQ=-109.1275244\CCSD=-108.9622792\CCSD(T)=-109.029
 Normal termination of Gaussian 16 at Sat Feb 10 15:45:07 2024.
