 Gaussian 16, Revision A.03,
 Gaussian 16:  ES64L-G16RevA.03 25-Dec-2016

 ------------------
 #p CCSD(T)/cc-pVTZ
 ------------------

 -----
 N2_55
 -----
 Symbolic Z-matrix:
 Charge = -1 Multiplicity = 2

                         Standard orientation:
 ---------------------------------------------------------------------
 Center     Atomic      Atomic             Coordinates (Angstroms)
 Number     Number       Type             X           Y           Z
 ---------------------------------------------------------------------
      1          7           0        0.000000    0.000000    1.225000
      2          7           0        0.000000    0.000000   -1.225000
 ---------------------------------------------------------------------

 SCF Done:  E(UHF) =  -108.348280063     A.U. after   12 cycles
 E2 =    -0.8297964469D+00 EUMP2 =    -0.10917807650971D+03
 CCSD(T)
 CCSD(T)= -0.10900861977D+03

 Unable to determine electronic state:  an orbital has unidentified symmetry.
 Alpha  occ. eigenvalues --  -15.44371 -15.44361  -0.76633  -0.71737  -0.25856
 Alpha  occ. eigenvalues --   -0.23379  -0.09557  -0.05177
 Alpha virt. eigenvalues --    0.18657   0.25518   0.82038   0.86125   0.87225
 Alpha virt. eigenvalues --    0.90292   0.90355   0.94653   1.00698   1.21549
 Alpha virt. eigenvalues --    1.40523   1.42890   1.43463   1.49397   1.49475

  Beta  occ. eigenvalues --  -15.42134 -15.42121  -0.68325  -0.62282  -0.08310
  Beta  occ. eigenvalues --   -0.03444   0.00719
  Beta virt. eigenvalues --    0.20678   0.25196   0.28050   0.87267   0.88321
  Beta virt. eigenvalues --    0.91362   0.91941   0.95671   0.98469   1.01807
  Beta virt. eigenvalues --    1.23029   1.41499   1.43497   1.45572   1.52566

 Mulliken charges and spin densities:
               1          2
     1  N   -0.500000   0.500000
     2  N   -0.500000   0.500000
 Sum of Mulliken charges =  -1.00000   1.00000

 Dipole moment (field-independent basis, Debye):
    X=             -0.0000    Y=              0.0000    Z=             -0.0000  Tot=              0.0000
 Quadrupole moment (field-independent basis, Debye-Ang):
   XX=            -14.3958   YY=            -15.4332   ZZ=            -20.4682
   XY=              0.0000   XZ=              0.0000   YZ=              0.0000

 3-0=-108.5172056\MP4SDQ=-109.367864\CCSD=-108.9143729\CCSD(T)=-109.008
 Normal termination of Gaussian 16 at Sat Feb 10 15:46:57 2024.
