 Gaussian 16, Revision A.03,
 Gaussian 16:  ES64L-G16RevA.03 25-Dec-2016

 ------------------
 #p CCSD(T)/cc-pVTZ
 ------------------

 -----
 N2_53
 -----
 Symbolic Z-matrix:
 Charge = -1 Multiplicity = 2

                         Standard orientation:
 ---------------------------------------------------------------------
 Center     Atomic      Atomic             Coordinates (Angstroms)
 Number     Number       Type             X           Y           Z
 ---------------------------------------------------------------------
      1          7           0        0.000000    0.000000    1.195000
      2          7           0        0.000000    0.000000   -1.195000
 ---------------------------------------------------------------------

 SCF Done:  E(UHF) =  -108.364696275     A.U. after   12 cycles
 E2 =    -0.7988540559D+00 EUMP2 =    -0.10916355033050D+03
 CCSD(T)
 CCSD(T)= -0.10900988257D+03

 Unable to determine electronic state:  an orbital has unidentified symmetry.
 Alpha  occ. eigenvalues --  -15.44139 -15.44128  -0.76730  -0.71266  -0.25777
 Alpha  occ. eigenvalues --   -0.22988  -0.10021  -0.05357
 Alpha virt. eigenvalues --    0.19293   0.26584   0.82358   0.85938   0.87586
 Alpha virt. eigenvalues --    0.90351   0.90604   0.94901   1.01792   1.22354
 Alpha virt. eigenvalues --    1.41185   1.42072   1.42616   1.49297   1.49384

  Beta  occ. eigenvalues --  -15.41897 -15.41883  -0.68467  -0.61782  -0.08783
  Beta  occ. eigenvalues --   -0.03630   0.00527
  Beta virt. eigenvalues --    0.21326   0.25853   0.29148   0.87065   0.88690
  Beta virt. eigenvalues --    0.91747   0.91966   0.95919   0.98718   1.02861
  Beta virt. eigenvalues --    1.23846   1.42221   1.42633   1.44698   1.52444

 Mulliken charges and spin densities:
               1          2
     1  N   -0.500000   0.500000
     2  N   -0.500000   0.500000
 Sum of Mulliken charges =  -1.00000   1.00000

 Dipole moment (field-independent basis, Debye):
    X=             -0.0000    Y=              0.0000    Z=              0.0000  Tot=              0.0000
 Quadrupole moment (field-independent basis, Debye-Ang):
   XX=            -15.4270   YY=            -14.3927   ZZ=            -20.1838
   XY=              0.0000   XZ=              0.0000   YZ=             -0.0000

 3-0=-108.5770315\MP4SDQ=-109.2967697\CCSD=-108.9217753\CCSD(T)=-109.00
 Normal termination of Gaussian 16 at Sat Feb 10 15:46:36 2024.
