 Gaussian 16, Revision A.03,
 Gaussian 16:  ES64L-G16RevA.03 25-Dec-2016

 ------------------
 #p CCSD(T)/cc-pVTZ
 ------------------

 -----
 N2_50
 -----
 Symbolic Z-matrix:
 Charge = -1 Multiplicity = 2

                         Standard orientation:
 ---------------------------------------------------------------------
 Center     Atomic      Atomic             Coordinates (Angstroms)
 Number     Number       Type             X           Y           Z
 ---------------------------------------------------------------------
      1          7           0        0.000000    0.000000    1.150000
      2          7           0        0.000000    0.000000   -1.150000
 ---------------------------------------------------------------------

 SCF Done:  E(UHF) =  -108.391233642     A.U. after   12 cycles
 E2 =    -0.7538477133D+00 EUMP2 =    -0.10914508135573D+03
 CCSD(T)
 CCSD(T)= -0.10901445942D+03

 Unable to determine electronic state:  an orbital has unidentified symmetry.
 Alpha  occ. eigenvalues --  -15.43743 -15.43731  -0.76941  -0.70479  -0.25671
 Alpha  occ. eigenvalues --   -0.22332  -0.10779  -0.05663
 Alpha virt. eigenvalues --    0.20320   0.28346   0.82905   0.85667   0.88188
 Alpha virt. eigenvalues --    0.90408   0.90968   0.95270   1.03020   1.23631
 Alpha virt. eigenvalues --    1.40848   1.41355   1.43207   1.49068   1.49185

  Beta  occ. eigenvalues --  -15.41496 -15.41480  -0.68757  -0.60956  -0.09548
  Beta  occ. eigenvalues --   -0.03949   0.00198
  Beta virt. eigenvalues --    0.22369   0.26905   0.30962   0.86772   0.89304
  Beta virt. eigenvalues --    0.91976   0.92383   0.96290   0.99090   1.03986
  Beta virt. eigenvalues --    1.25145   1.41345   1.43394   1.44361   1.52173

 Mulliken charges and spin densities:
               1          2
     1  N   -0.500000   0.500000
     2  N   -0.500000   0.500000
 Sum of Mulliken charges =  -1.00000   1.00000

 Dipole moment (field-independent basis, Debye):
    X=             -0.0000    Y=             -0.0000    Z=             -0.0000  Tot=              0.0000
 Quadrupole moment (field-independent basis, Debye-Ang):
   XX=            -15.4120   YY=            -14.3813   ZZ=            -19.7854
   XY=              0.0000   XZ=              0.0000   YZ=             -0.0000

 -0=-108.659148\MP4SDQ=-109.2137545\CCSD=-108.9348306\CCSD(T)=-109.0144
 Normal termination of Gaussian 16 at Sat Feb 10 15:46:02 2024.
