 Gaussian 16, Revision A.03,
 Gaussian 16:  ES64L-G16RevA.03 25-Dec-2016

 ------------------
 #p CCSD(T)/cc-pVTZ
 ------------------

 -----
 N2_56
 -----
 Symbolic Z-matrix:
 Charge = -1 Multiplicity = 2

                         Standard orientation:
 ---------------------------------------------------------------------
 Center     Atomic      Atomic             Coordinates (Angstroms)
 Number     Number       Type             X           Y           Z
 ---------------------------------------------------------------------
      1          7           0        0.000000    0.000000    1.240000
      2          7           0        0.000000    0.000000   -1.240000
 ---------------------------------------------------------------------

 SCF Done:  E(UHF) =  -108.340433256     A.U. after   12 cycles
 E2 =    -0.8455381918D+00 EUMP2 =    -0.10918597144729D+03
 CCSD(T)
 CCSD(T)= -0.10900850668D+03

 Unable to determine electronic state:  an orbital has unidentified symmetry.
 Alpha  occ. eigenvalues --  -15.44479 -15.44469  -0.76596  -0.71958  -0.25896
 Alpha  occ. eigenvalues --   -0.23563  -0.09337  -0.05095
 Alpha virt. eigenvalues --    0.18352   0.25014   0.81893   0.86219   0.87058
 Alpha virt. eigenvalues --    0.90229   0.90253   0.94528   1.00087   1.21160
 Alpha virt. eigenvalues --    1.40369   1.43291   1.43878   1.49433   1.49507

  Beta  occ. eigenvalues --  -15.42244 -15.42232  -0.68267  -0.62518  -0.08085
  Beta  occ. eigenvalues --   -0.03358   0.00809
  Beta virt. eigenvalues --    0.20367   0.24881   0.27532   0.87369   0.88151
  Beta virt. eigenvalues --    0.91183   0.91921   0.95545   0.98344   1.01207
  Beta virt. eigenvalues --    1.22634   1.41323   1.43920   1.46001   1.52612

 Mulliken charges and spin densities:
               1          2
     1  N   -0.500000   0.500000
     2  N   -0.500000   0.500000
 Sum of Mulliken charges =  -1.00000   1.00000

 Dipole moment (field-independent basis, Debye):
    X=             -0.0000    Y=              0.0000    Z=             -0.0000  Tot=              0.0000
 Quadrupole moment (field-independent basis, Debye-Ang):
   XX=            -15.4354   YY=            -14.3963   ZZ=            -20.6159
   XY=              0.0000   XZ=              0.0000   YZ=             -0.0000

 3-0=-108.4856477\MP4SDQ=-109.4086825\CCSD=-108.9110387\CCSD(T)=-109.00
 Normal termination of Gaussian 16 at Sat Feb 10 15:47:09 2024.
