 Gaussian 16, Revision A.03,
 Gaussian 16:  ES64L-G16RevA.03 25-Dec-2016

 ------------------
 #p CCSD(T)/cc-pVTZ
 ------------------

 -----
 N2_51
 -----
 Symbolic Z-matrix:
 Charge = -1 Multiplicity = 2

                         Standard orientation:
 ---------------------------------------------------------------------
 Center     Atomic      Atomic             Coordinates (Angstroms)
 Number     Number       Type             X           Y           Z
 ---------------------------------------------------------------------
      1          7           0        0.000000    0.000000    1.165000
      2          7           0        0.000000    0.000000   -1.165000
 ---------------------------------------------------------------------

 SCF Done:  E(UHF) =  -108.382123206     A.U. after   12 cycles
 E2 =    -0.7686573416D+00 EUMP2 =    -0.10915078054788D+03
 CCSD(T)
 CCSD(T)= -0.10901256826D+03

 Unable to determine electronic state:  an orbital has unidentified symmetry.
 Alpha  occ. eigenvalues --  -15.43882 -15.43870  -0.76861  -0.70753  -0.25705
 Alpha  occ. eigenvalues --   -0.22561  -0.10518  -0.05555
 Alpha virt. eigenvalues --    0.19967   0.27735   0.82714   0.85756   0.87980
 Alpha virt. eigenvalues --    0.90392   0.90847   0.95147   1.02671   1.23196
 Alpha virt. eigenvalues --    1.41251   1.41769   1.42386   1.49155   1.49259

  Beta  occ. eigenvalues --  -15.41636 -15.41621  -0.68649  -0.61242  -0.09285
  Beta  occ. eigenvalues --   -0.03837   0.00313
  Beta virt. eigenvalues --    0.22011   0.26545   0.30333   0.86868   0.89092
  Beta virt. eigenvalues --    0.91976   0.92164   0.96167   0.98966   1.03676
  Beta virt. eigenvalues --    1.24702   1.41768   1.43499   1.43823   1.52276

 Mulliken charges and spin densities:
               1          2
     1  N   -0.500000   0.500000
     2  N   -0.500000   0.500000
 Sum of Mulliken charges =  -1.00000   1.00000

 Dipole moment (field-independent basis, Debye):
    X=             -0.0000    Y=             -0.0000    Z=             -0.0000  Tot=              0.0000
 Quadrupole moment (field-independent basis, Debye-Ang):
   XX=            -14.3861   YY=            -15.4178   ZZ=            -19.9145
   XY=              0.0000   XZ=              0.0000   YZ=              0.0000

 3-0=-108.6327378\MP4SDQ=-109.2385073\CCSD=-108.9302083\CCSD(T)=-109.01
 Normal termination of Gaussian 16 at Sat Feb 10 15:46:13 2024.
