 Gaussian 16, Revision A.03,
 Gaussian 16:  ES64L-G16RevA.03 25-Dec-2016

 ------------------
 #p CCSD(T)/cc-pVTZ
 ------------------

 -----
 N2_57
 -----
 Symbolic Z-matrix:
 Charge = -1 Multiplicity = 2

                         Standard orientation:
 ---------------------------------------------------------------------
 Center     Atomic      Atomic             Coordinates (Angstroms)
 Number     Number       Type             X           Y           Z
 ---------------------------------------------------------------------
      1          7           0        0.000000    0.000000    1.255000
      2          7           0        0.000000    0.000000   -1.255000
 ---------------------------------------------------------------------

 SCF Done:  E(UHF) =  -108.332818051     A.U. after   12 cycles
 E2 =    -0.8614554854D+00 EUMP2 =    -0.10919427353640D+03
 CCSD(T)
 CCSD(T)= -0.10900873127D+03

 Unable to determine electronic state:  an orbital has unidentified symmetry.
 Alpha  occ. eigenvalues --  -15.44582 -15.44572  -0.76565  -0.72170  -0.25938
 Alpha  occ. eigenvalues --   -0.23738  -0.09124  -0.05016
 Alpha virt. eigenvalues --    0.18056   0.24529   0.81756   0.86313   0.86899
 Alpha virt. eigenvalues --    0.90102   0.90207   0.94402   0.99444   1.20778
 Alpha virt. eigenvalues --    1.40319   1.43683   1.44284   1.49460   1.49532

  Beta  occ. eigenvalues --  -15.42350 -15.42337  -0.68216  -0.62746  -0.07866
  Beta  occ. eigenvalues --   -0.03276   0.00894
  Beta virt. eigenvalues --    0.20065   0.24573   0.27032   0.87471   0.87989
  Beta virt. eigenvalues --    0.91013   0.91895   0.95419   0.98217   1.00569
  Beta virt. eigenvalues --    1.22248   1.41254   1.44335   1.46420   1.52648

 Mulliken charges and spin densities:
               1          2
     1  N   -0.500000   0.500000
     2  N   -0.500000   0.500000
 Sum of Mulliken charges =  -1.00000   1.00000

 Dipole moment (field-independent basis, Debye):
    X=             -0.0000    Y=             -0.0000    Z=             -0.0000  Tot=              0.0000
 Quadrupole moment (field-independent basis, Debye-Ang):
   XX=            -15.4369   YY=            -14.3960   ZZ=            -20.7674
   XY=              0.0000   XZ=              0.0000   YZ=             -0.0000

 3-0=-108.4529407\MP4SDQ=-109.4532738\CCSD=-108.9079388\CCSD(T)=-109.00
 Normal termination of Gaussian 16 at Sat Feb 10 15:47:20 2024.
