 Gaussian 16, Revision A.03,
 Gaussian 16:  ES64L-G16RevA.03 25-Dec-2016

 ------------------
 #p CCSD(T)/cc-pVTZ
 ------------------

 -----
 N2_52
 -----
 Symbolic Z-matrix:
 Charge = -1 Multiplicity = 2

                         Standard orientation:
 ---------------------------------------------------------------------
 Center     Atomic      Atomic             Coordinates (Angstroms)
 Number     Number       Type             X           Y           Z
 ---------------------------------------------------------------------
      1          7           0        0.000000    0.000000    1.180000
      2          7           0        0.000000    0.000000   -1.180000
 ---------------------------------------------------------------------

 SCF Done:  E(UHF) =  -108.373279820     A.U. after   12 cycles
 E2 =    -0.7836606702D+00 EUMP2 =    -0.10915694049009D+03
 CCSD(T)
 CCSD(T)= -0.10901104436D+03

 Unable to determine electronic state:  an orbital has unidentified symmetry.
 Alpha  occ. eigenvalues --  -15.44014 -15.44002  -0.76791  -0.71015  -0.25740
 Alpha  occ. eigenvalues --   -0.22780  -0.10265  -0.05453
 Alpha virt. eigenvalues --    0.19625   0.27148   0.82532   0.85846   0.87779
 Alpha virt. eigenvalues --    0.90374   0.90726   0.95024   1.02261   1.22770
 Alpha virt. eigenvalues --    1.41660   1.41714   1.42191   1.49232   1.49325

  Beta  occ. eigenvalues --  -15.41770 -15.41755  -0.68553  -0.61517  -0.09030
  Beta  occ. eigenvalues --   -0.03731   0.00422
  Beta virt. eigenvalues --    0.21663   0.26194   0.29729   0.86966   0.88887
  Beta virt. eigenvalues --    0.91952   0.91972   0.96043   0.98842   1.03301
  Beta virt. eigenvalues --    1.24269   1.42199   1.42786   1.44258   1.52366

 Mulliken charges and spin densities:
               1          2
     1  N   -0.500000   0.500000
     2  N   -0.500000   0.500000
 Sum of Mulliken charges =  -1.00000   1.00000

 Dipole moment (field-independent basis, Debye):
    X=             -0.0000    Y=             -0.0000    Z=              0.0000  Tot=              0.0000
 Quadrupole moment (field-independent basis, Debye-Ang):
   XX=            -14.3899   YY=            -15.4229   ZZ=            -20.0473
   XY=              0.0000   XZ=              0.0000   YZ=              0.0000

 3-0=-108.6053793\MP4SDQ=-109.266123\CCSD=-108.9258589\CCSD(T)=-109.011
 Normal termination of Gaussian 16 at Sat Feb 10 15:46:24 2024.
