 Gaussian 16, Revision A.03,
 Gaussian 16:  ES64L-G16RevA.03 25-Dec-2016

 ------------------
 #p CCSD(T)/cc-pVTZ
 ------------------

 -----
 N2_54
 -----
 Symbolic Z-matrix:
 Charge = -1 Multiplicity = 2

                         Standard orientation:
 ---------------------------------------------------------------------
 Center     Atomic      Atomic             Coordinates (Angstroms)
 Number     Number       Type             X           Y           Z
 ---------------------------------------------------------------------
      1          7           0        0.000000    0.000000    1.210000
      2          7           0        0.000000    0.000000   -1.210000
 ---------------------------------------------------------------------

 SCF Done:  E(UHF) =  -108.356365394     A.U. after   12 cycles
 E2 =    -0.8142338597D+00 EUMP2 =    -0.10917059925325D+03
 CCSD(T)
 CCSD(T)= -0.10900907645D+03

 Unable to determine electronic state:  an orbital has unidentified symmetry.
 Alpha  occ. eigenvalues --  -15.44258 -15.44247  -0.76678  -0.71507  -0.25816
 Alpha  occ. eigenvalues --   -0.23188  -0.09785  -0.05265
 Alpha virt. eigenvalues --    0.18970   0.26041   0.82194   0.86031   0.87401
 Alpha virt. eigenvalues --    0.90324   0.90480   0.94777   1.01269   1.21947
 Alpha virt. eigenvalues --    1.40791   1.42483   1.43041   1.49352   1.49433

  Beta  occ. eigenvalues --  -15.42018 -15.42005  -0.68391  -0.62036  -0.08543
  Beta  occ. eigenvalues --   -0.03535   0.00625
  Beta virt. eigenvalues --    0.20997   0.25520   0.28589   0.87165   0.88501
  Beta virt. eigenvalues --    0.91550   0.91955   0.95795   0.98594   1.02361
  Beta virt. eigenvalues --    1.23433   1.41795   1.43067   1.45137   1.52510

 Mulliken charges and spin densities:
               1          2
     1  N   -0.500000   0.500000
     2  N   -0.500000   0.500000
 Sum of Mulliken charges =  -1.00000   1.00000

 Dipole moment (field-independent basis, Debye):
    X=             -0.0000    Y=              0.0000    Z=              0.0000  Tot=              0.0000
 Quadrupole moment (field-independent basis, Debye-Ang):
   XX=            -14.3947   YY=            -15.4305   ZZ=            -20.3241
   XY=              0.0000   XZ=              0.0000   YZ=              0.0000

 0=-108.5476537\MP4SDQ=-109.3306228\CCSD=-108.9179492\CCSD(T)=-109.0090
 Normal termination of Gaussian 16 at Sat Feb 10 15:46:46 2024.
