 Gaussian 16, Revision A.03,
 Gaussian 16:  ES64L-G16RevA.03 25-Dec-2016

 ------------------
 #p CCSD(T)/cc-pVTZ
 ------------------

 -----
 N2_58
 -----
 Symbolic Z-matrix:
 Charge = -1 Multiplicity = 2

                         Standard orientation:
 ---------------------------------------------------------------------
 Center     Atomic      Atomic             Coordinates (Angstroms)
 Number     Number       Type             X           Y           Z
 ---------------------------------------------------------------------
      1          7           0        0.000000    0.000000    1.270000
      2          7           0        0.000000    0.000000   -1.270000
 ---------------------------------------------------------------------

 SCF Done:  E(UHF) =  -108.325427648     A.U. after   12 cycles
 E2 =    -0.8775447483D+00 EUMP2 =    -0.10920297239588D+03
 CCSD(T)
 CCSD(T)= -0.10900928841D+03

 Unable to determine electronic state:  an orbital has unidentified symmetry.
 Alpha  occ. eigenvalues --  -15.44680 -15.44670  -0.76540  -0.72374  -0.25980
 Alpha  occ. eigenvalues --   -0.23906  -0.08919  -0.04941
 Alpha virt. eigenvalues --    0.17768   0.24060   0.81629   0.86408   0.86751
 Alpha virt. eigenvalues --    0.89973   0.90153   0.94275   0.98779   1.20405
 Alpha virt. eigenvalues --    1.40359   1.44064   1.44679   1.49478   1.49549

  Beta  occ. eigenvalues --  -15.42450 -15.42439  -0.68173  -0.62966  -0.07654
  Beta  occ. eigenvalues --   -0.03199   0.00974
  Beta virt. eigenvalues --    0.19771   0.24273   0.26549   0.87574   0.87837
  Beta virt. eigenvalues --    0.90852   0.91862   0.95292   0.98090   0.99902
  Beta virt. eigenvalues --    1.21870   1.41280   1.44737   1.46827   1.52675

 Mulliken charges and spin densities:
               1          2
     1  N   -0.500000   0.500000
     2  N   -0.500000   0.500000
 Sum of Mulliken charges =  -1.00000   1.00000

 Dipole moment (field-independent basis, Debye):
    X=             -0.0000    Y=             -0.0000    Z=             -0.0000  Tot=              0.0000
 Quadrupole moment (field-independent basis, Debye-Ang):
   XX=            -14.3952   YY=            -15.4379   ZZ=            -20.9227
   XY=              0.0000   XZ=              0.0000   YZ=              0.0000

 3-0=-108.4190461\MP4SDQ=-109.5018406\CCSD=-108.9050659\CCSD(T)=-109.00
 Normal termination of Gaussian 16 at Sat Feb 10 15:47:31 2024.
