 Gaussian 16, Revision A.03,
 Gaussian 16:  ES64L-G16RevA.03 25-Dec-2016

 ------------------
 #p CCSD(T)/cc-pVTZ
 ------------------

 ----
 N2_5
 ----
 Symbolic Z-matrix:
 Charge = -1 Multiplicity = 2

                         Standard orientation:
 ---------------------------------------------------------------------
 Center     Atomic      Atomic             Coordinates (Angstroms)
 Number     Number       Type             X           Y           Z
 ---------------------------------------------------------------------
      1          7           0        0.000000    0.000000    0.475000
      2          7           0        0.000000    0.000000   -0.475000
 ---------------------------------------------------------------------

 SCF Done:  E(UHF) =  -108.716053789     A.U. after   11 cycles
 E2 =    -0.3490090185D+00 EUMP2 =    -0.10906506280737D+03
 CCSD(T)
 CCSD(T)= -0.10908772319D+03

 Unable to determine electronic state:  an orbital has unidentified symmetry.
 Alpha  occ. eigenvalues --  -15.21329 -15.20407  -1.19045  -0.39373  -0.38693
 Alpha  occ. eigenvalues --   -0.30778  -0.28313   0.16952
 Alpha virt. eigenvalues --    0.56183   0.69388   0.82611   0.83392   0.83759
 Alpha virt. eigenvalues --    1.01723   1.02527   1.08542   1.27453   1.39056
 Alpha virt. eigenvalues --    1.39082   1.68564   1.76381   1.79485   1.89160

  Beta  occ. eigenvalues --  -15.20054 -15.19089  -1.16566  -0.32057  -0.29771
  Beta  occ. eigenvalues --   -0.26006  -0.24769
  Beta virt. eigenvalues --    0.57511   0.60794   0.70397   0.83232   0.84190
  Beta virt. eigenvalues --    0.86516   1.03764   1.09620   1.12743   1.29707
  Beta virt. eigenvalues --    1.41109   1.41153   1.71400   1.79881   1.82975

 Mulliken charges and spin densities:
               1          2
     1  N   -0.500000   0.500000
     2  N   -0.500000   0.500000
 Sum of Mulliken charges =  -1.00000   1.00000

 Dipole moment (field-independent basis, Debye):
    X=             -0.0000    Y=             -0.0000    Z=              0.0000  Tot=              0.0000
 Quadrupole moment (field-independent basis, Debye-Ang):
   XX=            -11.6772   YY=            -13.6189   ZZ=            -16.8225
   XY=              0.0000   XZ=              0.0000   YZ=             -0.0000

 0=-109.0741722\MP4SDQ=-109.0748675\CCSD=-109.0745247\CCSD(T)=-109.0877
 Normal termination of Gaussian 16 at Sat Feb 10 15:37:57 2024.
