 Gaussian 16, Revision A.03,
 Gaussian 16:  ES64L-G16RevA.03 25-Dec-2016

 ------------------
 #p CCSD(T)/cc-pVTZ
 ------------------

 -----
 N2_67
 -----
 Symbolic Z-matrix:
 Charge = -1 Multiplicity = 2

                         Standard orientation:
 ---------------------------------------------------------------------
 Center     Atomic      Atomic             Coordinates (Angstroms)
 Number     Number       Type             X           Y           Z
 ---------------------------------------------------------------------
      1          7           0        0.000000    0.000000    1.405000
      2          7           0        0.000000    0.000000   -1.405000
 ---------------------------------------------------------------------

 SCF Done:  E(UHF) =  -108.267972200     A.U. after   12 cycles
 E2 =    -0.1029533779D+01 EUMP2 =    -0.10929750597933D+03
 CCSD(T)
 CCSD(T)= -0.10903089509D+03

 Unable to determine electronic state:  an orbital has unidentified symmetry.
 Alpha  occ. eigenvalues --  -15.45392 -15.45385  -0.76521  -0.73888  -0.26379
 Alpha  occ. eigenvalues --   -0.25150  -0.07363  -0.04412
 Alpha virt. eigenvalues --    0.15499   0.20474   0.80882   0.85817   0.87238
 Alpha virt. eigenvalues --    0.88729   0.88785   0.93062   0.93292   1.17305
 Alpha virt. eigenvalues --    1.42982   1.46771   1.47499   1.49356   1.49430

  Beta  occ. eigenvalues --  -15.43190 -15.43181  -0.68038  -0.64631  -0.06024
  Beta  occ. eigenvalues --   -0.02655   0.01538
  Beta virt. eigenvalues --    0.17442   0.21884   0.22849   0.86877   0.88477
  Beta virt. eigenvalues --    0.89821   0.90641   0.94076   0.94317   0.96875
  Beta virt. eigenvalues --    1.18753   1.43877   1.47611   1.49736   1.52606

 Mulliken charges and spin densities:
               1          2
     1  N   -0.500000   0.500000
     2  N   -0.500000   0.500000
 Sum of Mulliken charges =  -1.00000   1.00000

 Dipole moment (field-independent basis, Debye):
    X=             -0.0000    Y=              0.0000    Z=              0.0000  Tot=              0.0000
 Quadrupole moment (field-independent basis, Debye-Ang):
   XX=            -15.4313   YY=            -14.3704   ZZ=            -22.4900
   XY=              0.0000   XZ=              0.0000   YZ=             -0.0000

 -0=-108.0544532\MP4SDQ=-110.1546447\CCSD=-108.8889582\CCSD(T)=-109.030
 Normal termination of Gaussian 16 at Sat Feb 10 15:49:16 2024.
