 Gaussian 16, Revision A.03,
 Gaussian 16:  ES64L-G16RevA.03 25-Dec-2016

 ------------------
 #p CCSD(T)/cc-pVTZ
 ------------------

 -----
 N2_66
 -----
 Symbolic Z-matrix:
 Charge = -1 Multiplicity = 2

                         Standard orientation:
 ---------------------------------------------------------------------
 Center     Atomic      Atomic             Coordinates (Angstroms)
 Number     Number       Type             X           Y           Z
 ---------------------------------------------------------------------
      1          7           0        0.000000    0.000000    1.390000
      2          7           0        0.000000    0.000000   -1.390000
 ---------------------------------------------------------------------

 SCF Done:  E(UHF) =  -108.273624039     A.U. after   12 cycles
 E2 =    -0.1012044003D+01 EUMP2 =    -0.10928566804189D+03
 CCSD(T)
 CCSD(T)= -0.10902649798D+03

 Unable to determine electronic state:  an orbital has unidentified symmetry.
 Alpha  occ. eigenvalues --  -15.45325 -15.45318  -0.76509  -0.73743  -0.26334
 Alpha  occ. eigenvalues --   -0.25032  -0.07512  -0.04460
 Alpha virt. eigenvalues --    0.15726   0.20825   0.80933   0.85887   0.87150
 Alpha virt. eigenvalues --    0.88875   0.89067   0.93204   0.93744   1.17634
 Alpha virt. eigenvalues --    1.42598   1.46543   1.47259   1.49390   1.49462

  Beta  occ. eigenvalues --  -15.43120 -15.43111  -0.68036  -0.64470  -0.06183
  Beta  occ. eigenvalues --   -0.02703   0.01487
  Beta virt. eigenvalues --    0.17676   0.22125   0.23211   0.86950   0.88380
  Beta virt. eigenvalues --    0.89901   0.90934   0.94218   0.94759   0.97017
  Beta virt. eigenvalues --    1.19083   1.43492   1.47367   1.49489   1.52635

 Mulliken charges and spin densities:
               1          2
     1  N   -0.500000   0.500000
     2  N   -0.500000   0.500000
 Sum of Mulliken charges =  -1.00000   1.00000

 Dipole moment (field-independent basis, Debye):
    X=             -0.0000    Y=             -0.0000    Z=              0.0000  Tot=              0.0000
 Quadrupole moment (field-independent basis, Debye-Ang):
   XX=            -15.4330   YY=            -14.3742   ZZ=            -22.3004
   XY=              0.0000   XZ=              0.0000   YZ=             -0.0000

 0=-108.1006858\MP4SDQ=-110.0600521\CCSD=-108.8898023\CCSD(T)=-109.0264
 Normal termination of Gaussian 16 at Sat Feb 10 15:49:04 2024.
