 Gaussian 16, Revision A.03,
 Gaussian 16:  ES64L-G16RevA.03 25-Dec-2016

 ------------------
 #p CCSD(T)/cc-pVTZ
 ------------------

 -----
 N2_61
 -----
 Symbolic Z-matrix:
 Charge = -1 Multiplicity = 2

                         Standard orientation:
 ---------------------------------------------------------------------
 Center     Atomic      Atomic             Coordinates (Angstroms)
 Number     Number       Type             X           Y           Z
 ---------------------------------------------------------------------
      1          7           0        0.000000    0.000000    1.315000
      2          7           0        0.000000    0.000000   -1.315000
 ---------------------------------------------------------------------

 SCF Done:  E(UHF) =  -108.304539164     A.U. after   12 cycles
 E2 =    -0.9268093429D+00 EUMP2 =    -0.10923134850723D+03
 CCSD(T)
 CCSD(T)= -0.10901293894D+03

 Unable to determine electronic state:  an orbital has unidentified symmetry.
 Alpha  occ. eigenvalues --  -15.44948 -15.44940  -0.76497  -0.72937  -0.26111
 Alpha  occ. eigenvalues --   -0.24370  -0.08344  -0.04738
 Alpha virt. eigenvalues --    0.16951   0.22748   0.81304   0.86360   0.86691
 Alpha virt. eigenvalues --    0.89575   0.89918   0.93886   0.96734   1.19326
 Alpha virt. eigenvalues --    1.40902   1.45122   1.45778   1.49489   1.49558

  Beta  occ. eigenvalues --  -15.42728 -15.42717  -0.68083  -0.63579  -0.07057
  Beta  occ. eigenvalues --   -0.02988   0.01192
  Beta virt. eigenvalues --    0.18934   0.23418   0.25196   0.87437   0.87881
  Beta virt. eigenvalues --    0.90427   0.91696   0.94901   0.97700   0.97824
  Beta virt. eigenvalues --    1.20782   1.41799   1.45857   1.47961   1.52708

 Mulliken charges and spin densities:
               1          2
     1  N   -0.500000   0.500000
     2  N   -0.500000   0.500000
 Sum of Mulliken charges =  -1.00000   1.00000

 Dipole moment (field-independent basis, Debye):
    X=             -0.0000    Y=              0.0000    Z=             -0.0000  Tot=              0.0000
 Quadrupole moment (field-independent basis, Debye-Ang):
   XX=            -15.4384   YY=            -14.3898   ZZ=            -21.4108
   XY=              0.0000   XZ=              0.0000   YZ=             -0.0000

 3-0=-108.3098594\MP4SDQ=-109.6735213\CCSD=-108.8977471\CCSD(T)=-109.01
 Normal termination of Gaussian 16 at Sat Feb 10 15:48:05 2024.
