 Gaussian 16, Revision A.03,
 Gaussian 16:  ES64L-G16RevA.03 25-Dec-2016

 ------------------
 #p CCSD(T)/cc-pVTZ
 ------------------

 -----
 N2_62
 -----
 Symbolic Z-matrix:
 Charge = -1 Multiplicity = 2

                         Standard orientation:
 ---------------------------------------------------------------------
 Center     Atomic      Atomic             Coordinates (Angstroms)
 Number     Number       Type             X           Y           Z
 ---------------------------------------------------------------------
      1          7           0        0.000000    0.000000    1.330000
      2          7           0        0.000000    0.000000   -1.330000
 ---------------------------------------------------------------------

 SCF Done:  E(UHF) =  -108.297982549     A.U. after   12 cycles
 E2 =    -0.9435518698D+00 EUMP2 =    -0.10924153441920D+03
 CCSD(T)
 CCSD(T)= -0.10901482846D+03

 Unable to determine electronic state:  an orbital has unidentified symmetry.
 Alpha  occ. eigenvalues --  -15.45030 -15.45022  -0.76492  -0.73111  -0.26155
 Alpha  occ. eigenvalues --   -0.24513  -0.08166  -0.04677
 Alpha virt. eigenvalues --    0.16693   0.22339   0.81213   0.86248   0.86784
 Alpha virt. eigenvalues --    0.89439   0.89805   0.93753   0.96068   1.18979
 Alpha virt. eigenvalues --    1.41187   1.45442   1.46111   1.49480   1.49548

  Beta  occ. eigenvalues --  -15.42812 -15.42802  -0.68064  -0.63769  -0.06871
  Beta  occ. eigenvalues --   -0.02925   0.01258
  Beta virt. eigenvalues --    0.18670   0.23147   0.24774   0.87322   0.87982
  Beta virt. eigenvalues --    0.90304   0.91609   0.94768   0.97140   0.97567
  Beta virt. eigenvalues --    1.20433   1.42081   1.46197   1.48305   1.52705

 Mulliken charges and spin densities:
               1          2
     1  N   -0.500000   0.500000
     2  N   -0.500000   0.500000
 Sum of Mulliken charges =  -1.00000   1.00000

 Dipole moment (field-independent basis, Debye):
    X=             -0.0000    Y=              0.0000    Z=             -0.0000  Tot=              0.0000
 Quadrupole moment (field-independent basis, Debye-Ang):
   XX=            -14.3873   YY=            -15.4378   ZZ=            -21.5811
   XY=              0.0000   XZ=              0.0000   YZ=              0.0000

 3-0=-108.2708398\MP4SDQ=-109.7401517\CCSD=-108.8957257\CCSD(T)=-109.01
 Normal termination of Gaussian 16 at Sat Feb 10 15:48:16 2024.
