 Gaussian 16, Revision A.03,
 Gaussian 16:  ES64L-G16RevA.03 25-Dec-2016

 ------------------
 #p CCSD(T)/cc-pVTZ
 ------------------

 -----
 N2_64
 -----
 Symbolic Z-matrix:
 Charge = -1 Multiplicity = 2

                         Standard orientation:
 ---------------------------------------------------------------------
 Center     Atomic      Atomic             Coordinates (Angstroms)
 Number     Number       Type             X           Y           Z
 ---------------------------------------------------------------------
      1          7           0        0.000000    0.000000    1.360000
      2          7           0        0.000000    0.000000   -1.360000
 ---------------------------------------------------------------------

 SCF Done:  E(UHF) =  -108.285441562     A.U. after   12 cycles
 E2 =    -0.9774993064D+00 EUMP2 =    -0.10926294086830D+03
 CCSD(T)
 CCSD(T)= -0.10901973040D+03

 Unable to determine electronic state:  an orbital has unidentified symmetry.
 Alpha  occ. eigenvalues --  -15.45184 -15.45176  -0.76494  -0.73439  -0.26244
 Alpha  occ. eigenvalues --   -0.24782  -0.07827  -0.04563
 Alpha virt. eigenvalues --    0.16197   0.21559   0.81057   0.86051   0.86969
 Alpha virt. eigenvalues --    0.89160   0.89505   0.93482   0.94819   1.18300
 Alpha virt. eigenvalues --    1.41854   1.46029   1.46723   1.49444   1.49514

  Beta  occ. eigenvalues --  -15.42972 -15.42963  -0.68042  -0.64131  -0.06516
  Beta  occ. eigenvalues --   -0.02809   0.01379
  Beta virt. eigenvalues --    0.18160   0.22623   0.23969   0.87119   0.88183
  Beta virt. eigenvalues --    0.90085   0.91354   0.94497   0.95852   0.97296
  Beta virt. eigenvalues --    1.19750   1.42746   1.46820   1.48936   1.52680

 Mulliken charges and spin densities:
               1          2
     1  N   -0.500000   0.500000
     2  N   -0.500000   0.500000
 Sum of Mulliken charges =  -1.00000   1.00000

 Dipole moment (field-independent basis, Debye):
    X=             -0.0000    Y=              0.0000    Z=             -0.0000  Tot=              0.0000
 Quadrupole moment (field-independent basis, Debye-Ang):
   XX=            -14.3812   YY=            -15.4358   ZZ=            -21.9330
   XY=              0.0000   XZ=              0.0000   YZ=              0.0000

 -0=-108.1886484\MP4SDQ=-109.8889278\CCSD=-108.8923118\CCSD(T)=-109.019
 Normal termination of Gaussian 16 at Sat Feb 10 15:48:40 2024.
