 Gaussian 16, Revision A.03,
 Gaussian 16:  ES64L-G16RevA.03 25-Dec-2016

 ------------------
 #p CCSD(T)/cc-pVTZ
 ------------------

 -----
 N2_65
 -----
 Symbolic Z-matrix:
 Charge = -1 Multiplicity = 2

                         Standard orientation:
 ---------------------------------------------------------------------
 Center     Atomic      Atomic             Coordinates (Angstroms)
 Number     Number       Type             X           Y           Z
 ---------------------------------------------------------------------
      1          7           0        0.000000    0.000000    1.375000
      2          7           0        0.000000    0.000000   -1.375000
 ---------------------------------------------------------------------

 SCF Done:  E(UHF) =  -108.279445272     A.U. after   12 cycles
 E2 =    -0.9946983539D+00 EUMP2 =    -0.10927414362560D+03
 CCSD(T)
 CCSD(T)= -0.10902283553D+03

 Unable to determine electronic state:  an orbital has unidentified symmetry.
 Alpha  occ. eigenvalues --  -15.45256 -15.45249  -0.76500  -0.73594  -0.26289
 Alpha  occ. eigenvalues --   -0.24909  -0.07667  -0.04510
 Alpha virt. eigenvalues --    0.15958   0.21186   0.80991   0.85965   0.87060
 Alpha virt. eigenvalues --    0.89018   0.89306   0.93344   0.94255   1.17966
 Alpha virt. eigenvalues --    1.42220   1.46295   1.47001   1.49419   1.49490

  Beta  occ. eigenvalues --  -15.43048 -15.43038  -0.68037  -0.64303  -0.06346
  Beta  occ. eigenvalues --   -0.02755   0.01434
  Beta virt. eigenvalues --    0.17915   0.22371   0.23584   0.87030   0.88282
  Beta virt. eigenvalues --    0.89989   0.91169   0.94358   0.95274   0.97157
  Beta virt. eigenvalues --    1.19415   1.43113   1.47103   1.49222   1.52660

 Mulliken charges and spin densities:
               1          2
     1  N   -0.500000   0.500000
     2  N   -0.500000   0.500000
 Sum of Mulliken charges =  -1.00000   1.00000

 Dipole moment (field-independent basis, Debye):
    X=             -0.0000    Y=             -0.0000    Z=             -0.0000  Tot=              0.0000
 Quadrupole moment (field-independent basis, Debye-Ang):
   XX=            -14.3778   YY=            -15.4345   ZZ=            -22.1148
   XY=              0.0000   XZ=              0.0000   YZ=              0.0000

 -0=-108.145406\MP4SDQ=-109.9715683\CCSD=-108.8909342\CCSD(T)=-109.0228
 Normal termination of Gaussian 16 at Sat Feb 10 15:48:52 2024.
