 Gaussian 16, Revision A.03,
 Gaussian 16:  ES64L-G16RevA.03 25-Dec-2016

 ------------------
 #p CCSD(T)/cc-pVTZ
 ------------------

 ----
 N2_6
 ----
 Symbolic Z-matrix:
 Charge = -1 Multiplicity = 2

                         Standard orientation:
 ---------------------------------------------------------------------
 Center     Atomic      Atomic             Coordinates (Angstroms)
 Number     Number       Type             X           Y           Z
 ---------------------------------------------------------------------
      1          7           0        0.000000    0.000000    0.490000
      2          7           0        0.000000    0.000000   -0.490000
 ---------------------------------------------------------------------

 SCF Done:  E(UHF) =  -108.765080372     A.U. after   11 cycles
 E2 =    -0.3521118140D+00 EUMP2 =    -0.10911719218598D+03
 CCSD(T)
 CCSD(T)= -0.10914002991D+03

 Unable to determine electronic state:  an orbital has unidentified symmetry.
 Alpha  occ. eigenvalues --  -15.21980 -15.21261  -1.16841  -0.40380  -0.37468
 Alpha  occ. eigenvalues --   -0.29015  -0.27886   0.14914
 Alpha virt. eigenvalues --    0.54964   0.69258   0.83137   0.84028   0.84511
 Alpha virt. eigenvalues --    1.00916   1.02141   1.07675   1.26832   1.39119
 Alpha virt. eigenvalues --    1.39147   1.63211   1.74410   1.77515   1.88089

  Beta  occ. eigenvalues --  -15.20607 -15.19847  -1.14097  -0.32865  -0.27937
  Beta  occ. eigenvalues --   -0.24335  -0.24082
  Beta virt. eigenvalues --    0.56320   0.59664   0.70272   0.83724   0.84948
  Beta virt. eigenvalues --    0.87274   1.03358   1.08786   1.11924   1.29006
  Beta virt. eigenvalues --    1.41181   1.41223   1.66168   1.77895   1.80984

 Mulliken charges and spin densities:
               1          2
     1  N   -0.500000   0.500000
     2  N   -0.500000   0.500000
 Sum of Mulliken charges =  -1.00000   1.00000

 Dipole moment (field-independent basis, Debye):
    X=             -0.0000    Y=             -0.0000    Z=              0.0000  Tot=              0.0000
 Quadrupole moment (field-independent basis, Debye-Ang):
   XX=            -11.8019   YY=            -13.6471   ZZ=            -16.8498
   XY=              0.0000   XZ=              0.0000   YZ=             -0.0000

 -0=-109.1257482\MP4SDQ=-109.1266962\CCSD=-109.1262896\CCSD(T)=-109.140
 Normal termination of Gaussian 16 at Sat Feb 10 15:38:07 2024.
