 Gaussian 16, Revision A.03,
 Gaussian 16:  ES64L-G16RevA.03 25-Dec-2016

 ------------------
 #p CCSD(T)/cc-pVTZ
 ------------------

 -----
 N2_60
 -----
 Symbolic Z-matrix:
 Charge = -1 Multiplicity = 2

                         Standard orientation:
 ---------------------------------------------------------------------
 Center     Atomic      Atomic             Coordinates (Angstroms)
 Number     Number       Type             X           Y           Z
 ---------------------------------------------------------------------
      1          7           0        0.000000    0.000000    1.300000
      2          7           0        0.000000    0.000000   -1.300000
 ---------------------------------------------------------------------

 SCF Done:  E(UHF) =  -108.311294680     A.U. after   12 cycles
 E2 =    -0.9102251069D+00 EUMP2 =    -0.10922151978645D+03
 CCSD(T)
 CCSD(T)= -0.10901139061D+03

 Unable to determine electronic state:  an orbital has unidentified symmetry.
 Alpha  occ. eigenvalues --  -15.44863 -15.44854  -0.76507  -0.72757  -0.26067
 Alpha  occ. eigenvalues --   -0.24222  -0.08529  -0.04802
 Alpha virt. eigenvalues --    0.17216   0.23171   0.81403   0.86481   0.86597
 Alpha virt. eigenvalues --    0.89709   0.90011   0.94017   0.97414   1.19679
 Alpha virt. eigenvalues --    1.40662   1.44785   1.45427   1.49492   1.49561

  Beta  occ. eigenvalues --  -15.42639 -15.42628  -0.68107  -0.63382  -0.07250
  Beta  occ. eigenvalues --   -0.03055   0.01123
  Beta virt. eigenvalues --    0.19206   0.23696   0.25632   0.87561   0.87779
  Beta virt. eigenvalues --    0.90559   0.91765   0.95033   0.97832   0.98519
  Beta virt. eigenvalues --    1.21138   1.41564   1.45500   1.47599   1.52705

 Mulliken charges and spin densities:
               1          2
     1  N   -0.500000   0.500000
     2  N   -0.500000   0.500000
 Sum of Mulliken charges =  -1.00000   1.00000

 Dipole moment (field-independent basis, Debye):
    X=             -0.0000    Y=              0.0000    Z=             -0.0000  Tot=              0.0000
 Quadrupole moment (field-independent basis, Debye-Ang):
   XX=            -15.4386   YY=            -14.3921   ZZ=            -21.2443
   XY=              0.0000   XZ=              0.0000   YZ=             -0.0000

 0=-108.3475426\MP4SDQ=-109.6117448\CCSD=-108.8999751\CCSD(T)=-109.0113
 Normal termination of Gaussian 16 at Sat Feb 10 15:47:53 2024.
