 Gaussian 16, Revision A.03,
 Gaussian 16:  ES64L-G16RevA.03 25-Dec-2016

 ------------------
 #p CCSD(T)/cc-pVTZ
 ------------------

 -----
 N2_63
 -----
 Symbolic Z-matrix:
 Charge = -1 Multiplicity = 2

                         Standard orientation:
 ---------------------------------------------------------------------
 Center     Atomic      Atomic             Coordinates (Angstroms)
 Number     Number       Type             X           Y           Z
 ---------------------------------------------------------------------
      1          7           0        0.000000    0.000000    1.345000
      2          7           0        0.000000    0.000000   -1.345000
 ---------------------------------------------------------------------

 SCF Done:  E(UHF) =  -108.291618689     A.U. after   12 cycles
 E2 =    -0.9604495287D+00 EUMP2 =    -0.10925206821731D+03
 CCSD(T)
 CCSD(T)= -0.10901708027D+03

 Unable to determine electronic state:  an orbital has unidentified symmetry.
 Alpha  occ. eigenvalues --  -15.45109 -15.45101  -0.76491  -0.73278  -0.26199
 Alpha  occ. eigenvalues --   -0.24650  -0.07993  -0.04618
 Alpha virt. eigenvalues --    0.16442   0.21943   0.81131   0.86145   0.86877
 Alpha virt. eigenvalues --    0.89300   0.89670   0.93618   0.95427   1.18637
 Alpha virt. eigenvalues --    1.41507   1.45745   1.46426   1.49465   1.49534

  Beta  occ. eigenvalues --  -15.42894 -15.42884  -0.68051  -0.63953  -0.06690
  Beta  occ. eigenvalues --   -0.02866   0.01320
  Beta virt. eigenvalues --    0.18412   0.22882   0.24365   0.87216   0.88083
  Beta virt. eigenvalues --    0.90190   0.91497   0.94633   0.96478   0.97433
  Beta virt. eigenvalues --    1.20089   1.42399   1.46518   1.48630   1.52696

 Mulliken charges and spin densities:
               1          2
     1  N   -0.500000   0.500000
     2  N   -0.500000   0.500000
 Sum of Mulliken charges =  -1.00000   1.00000

 Dipole moment (field-independent basis, Debye):
    X=             -0.0000    Y=             -0.0000    Z=             -0.0000  Tot=              0.0000
 Quadrupole moment (field-independent basis, Debye-Ang):
   XX=            -14.3843   YY=            -15.4369   ZZ=            -21.7551
   XY=              0.0000   XZ=              0.0000   YZ=              0.0000

 3-0=-108.230448\MP4SDQ=-109.8118726\CCSD=-108.8939123\CCSD(T)=-109.017
 Normal termination of Gaussian 16 at Sat Feb 10 15:48:27 2024.
