 Gaussian 16, Revision A.03,
 Gaussian 16:  ES64L-G16RevA.03 25-Dec-2016

 ------------------
 #p CCSD(T)/cc-pVTZ
 ------------------

 -----
 N2_68
 -----
 Symbolic Z-matrix:
 Charge = -1 Multiplicity = 2

                         Standard orientation:
 ---------------------------------------------------------------------
 Center     Atomic      Atomic             Coordinates (Angstroms)
 Number     Number       Type             X           Y           Z
 ---------------------------------------------------------------------
      1          7           0        0.000000    0.000000    1.420000
      2          7           0        0.000000    0.000000   -1.420000
 ---------------------------------------------------------------------

 SCF Done:  E(UHF) =  -108.262484203     A.U. after   12 cycles
 E2 =    -0.1047165414D+01 EUMP2 =    -0.10930964961708D+03
 CCSD(T)
 CCSD(T)= -0.10903635677D+03

 Unable to determine electronic state:  an orbital has unidentified symmetry.
 Alpha  occ. eigenvalues --  -15.45456 -15.45450  -0.76535  -0.74027  -0.26424
 Alpha  occ. eigenvalues --   -0.25263  -0.07220  -0.04367
 Alpha virt. eigenvalues --    0.15279   0.20133   0.80838   0.85754   0.87326
 Alpha virt. eigenvalues --    0.88459   0.88581   0.92903   0.92919   1.16976
 Alpha virt. eigenvalues --    1.43368   1.46982   1.47720   1.49319   1.49395

  Beta  occ. eigenvalues --  -15.43257 -15.43249  -0.68044  -0.64787  -0.05871
  Beta  occ. eigenvalues --   -0.02609   0.01585
  Beta virt. eigenvalues --    0.17215   0.21649   0.22496   0.86812   0.88572
  Beta virt. eigenvalues --    0.89748   0.90289   0.93932   0.93952   0.96731
  Beta virt. eigenvalues --    1.18424   1.44263   1.47837   1.49963   1.52572

 Mulliken charges and spin densities:
               1          2
     1  N   -0.500000   0.500000
     2  N   -0.500000   0.500000
 Sum of Mulliken charges =  -1.00000   1.00000

 Dipole moment (field-independent basis, Debye):
    X=             -0.0000    Y=              0.0000    Z=             -0.0000  Tot=              0.0000
 Quadrupole moment (field-independent basis, Debye-Ang):
   XX=            -14.3665   YY=            -15.4295   ZZ=            -22.6836
   XY=              0.0000   XZ=              0.0000   YZ=              0.0000

 3-0=-108.0066738\MP4SDQ=-110.2556191\CCSD=-108.8884821\CCSD(T)=-109.03
 Normal termination of Gaussian 16 at Sat Feb 10 15:49:28 2024.
