 Gaussian 16, Revision A.03,
 Gaussian 16:  ES64L-G16RevA.03 25-Dec-2016

 ------------------
 #p CCSD(T)/cc-pVTZ
 ------------------

 -----
 N2_69
 -----
 Symbolic Z-matrix:
 Charge = -1 Multiplicity = 2

                         Standard orientation:
 ---------------------------------------------------------------------
 Center     Atomic      Atomic             Coordinates (Angstroms)
 Number     Number       Type             X           Y           Z
 ---------------------------------------------------------------------
      1          7           0        0.000000    0.000000    1.435000
      2          7           0        0.000000    0.000000   -1.435000
 ---------------------------------------------------------------------

 SCF Done:  E(UHF) =  -108.257154609     A.U. after   12 cycles
 E2 =    -0.1064936847D+01 EUMP2 =    -0.10932209145601D+03
 CCSD(T)
 CCSD(T)= -0.10904356611D+03

 Unable to determine electronic state:  an orbital has unidentified symmetry.
 Alpha  occ. eigenvalues --  -15.45518 -15.45511  -0.76552  -0.74161  -0.26469
 Alpha  occ. eigenvalues --   -0.25373  -0.07081  -0.04324
 Alpha virt. eigenvalues --    0.15063   0.19801   0.80801   0.85699   0.87412
 Alpha virt. eigenvalues --    0.88092   0.88432   0.92574   0.92774   1.16646
 Alpha virt. eigenvalues --    1.43750   1.47174   1.47922   1.49279   1.49358

  Beta  occ. eigenvalues --  -15.43322 -15.43314  -0.68053  -0.64938  -0.05723
  Beta  occ. eigenvalues --   -0.02565   0.01631
  Beta virt. eigenvalues --    0.16993   0.21420   0.22153   0.86754   0.88666
  Beta virt. eigenvalues --    0.89684   0.89884   0.93661   0.93787   0.96585
  Beta virt. eigenvalues --    1.18094   1.44646   1.48043   1.50172   1.52536

 Mulliken charges and spin densities:
               1          2
     1  N   -0.500000   0.500000
     2  N   -0.500000   0.500000
 Sum of Mulliken charges =  -1.00000   1.00000

 Dipole moment (field-independent basis, Debye):
    X=             -0.0000    Y=              0.0000    Z=              0.0000  Tot=              0.0000
 Quadrupole moment (field-independent basis, Debye-Ang):
   XX=            -14.3625   YY=            -15.4277   ZZ=            -22.8812
   XY=              0.0000   XZ=              0.0000   YZ=              0.0000

 3-0=-107.9573133\MP4SDQ=-110.3632562\CCSD=-108.8885403\CCSD(T)=-109.04
 Normal termination of Gaussian 16 at Sat Feb 10 15:49:39 2024.
