 Gaussian 16, Revision A.03,
 Gaussian 16:  ES64L-G16RevA.03 25-Dec-2016

 ------------------
 #p CCSD(T)/cc-pVTZ
 ------------------

 -----
 N2_71
 -----
 Symbolic Z-matrix:
 Charge = -1 Multiplicity = 2

                         Standard orientation:
 ---------------------------------------------------------------------
 Center     Atomic      Atomic             Coordinates (Angstroms)
 Number     Number       Type             X           Y           Z
 ---------------------------------------------------------------------
      1          7           0        0.000000    0.000000    1.465000
      2          7           0        0.000000    0.000000   -1.465000
 ---------------------------------------------------------------------

 SCF Done:  E(UHF) =  -108.246949421     A.U. after   12 cycles
 E2 =    -0.1100891934D+01 EUMP2 =    -0.10934784135537D+03
 CCSD(T)
 CCSD(T)= -0.10907665562D+03

 Unable to determine electronic state:  an orbital has unidentified symmetry.
 Alpha  occ. eigenvalues --  -15.45634 -15.45628  -0.76591  -0.74416  -0.26558
 Alpha  occ. eigenvalues --   -0.25580  -0.06818  -0.04243
 Alpha virt. eigenvalues --    0.14648   0.19164   0.80745   0.85608   0.87268
 Alpha virt. eigenvalues --    0.87579   0.88130   0.92076   0.92479   1.15980
 Alpha virt. eigenvalues --    1.44487   1.47506   1.48273   1.49191   1.49277

  Beta  occ. eigenvalues --  -15.43445 -15.43437  -0.68079  -0.65226  -0.05440
  Beta  occ. eigenvalues --   -0.02483   0.01714
  Beta virt. eigenvalues --    0.16564   0.20977   0.21494   0.86658   0.88849
  Beta virt. eigenvalues --    0.88964   0.89575   0.93254   0.93491   0.96289
  Beta virt. eigenvalues --    1.17430   1.45384   1.48402   1.50534   1.52454

 Mulliken charges and spin densities:
               1          2
     1  N   -0.500000   0.500000
     2  N   -0.500000   0.500000
 Sum of Mulliken charges =  -1.00000   1.00000

 Dipole moment (field-independent basis, Debye):
    X=             -0.0000    Y=             -0.0000    Z=              0.0000  Tot=              0.0000
 Quadrupole moment (field-independent basis, Debye-Ang):
   XX=            -14.3544   YY=            -15.4237   ZZ=            -23.2885
   XY=              0.0000   XZ=              0.0000   YZ=              0.0000

 3-0=-107.8537113\MP4SDQ=-110.5996807\CCSD=-108.8934279\CCSD(T)=-109.07
 Normal termination of Gaussian 16 at Sat Feb 10 15:50:04 2024.
