 Gaussian 16, Revision A.03,
 Gaussian 16:  ES64L-G16RevA.03 25-Dec-2016

 ------------------
 #p CCSD(T)/cc-pVTZ
 ------------------

 ----
 N2_7
 ----
 Symbolic Z-matrix:
 Charge = -1 Multiplicity = 2

                         Standard orientation:
 ---------------------------------------------------------------------
 Center     Atomic      Atomic             Coordinates (Angstroms)
 Number     Number       Type             X           Y           Z
 ---------------------------------------------------------------------
      1          7           0        0.000000    0.000000    0.505000
      2          7           0        0.000000    0.000000   -0.505000
 ---------------------------------------------------------------------

 SCF Done:  E(UHF) =  -108.802499879     A.U. after   11 cycles
 E2 =    -0.3553442606D+00 EUMP2 =    -0.10915784413992D+03
 CCSD(T)
 CCSD(T)= -0.10918081607D+03

 Unable to determine electronic state:  an orbital has unidentified symmetry.
 Alpha  occ. eigenvalues --  -15.22722 -15.22155  -1.14638  -0.41388  -0.36357
 Alpha  occ. eigenvalues --   -0.27481  -0.27395   0.12934
 Alpha virt. eigenvalues --    0.53726   0.69086   0.83654   0.84602   0.85220
 Alpha virt. eigenvalues --    1.00197   1.01770   1.06872   1.26307   1.39192
 Alpha virt. eigenvalues --    1.39220   1.57762   1.72426   1.75518   1.86989

  Beta  occ. eigenvalues --  -15.21259 -15.20653  -1.11634  -0.33699  -0.26253
  Beta  occ. eigenvalues --   -0.23947  -0.22325
  Beta virt. eigenvalues --    0.55114   0.58520   0.70110   0.84216   0.85668
  Beta virt. eigenvalues --    0.88000   1.02960   1.08007   1.11153   1.28411
  Beta virt. eigenvalues --    1.41262   1.41302   1.60822   1.75881   1.78961

 Mulliken charges and spin densities:
               1          2
     1  N   -0.500000   0.500000
     2  N   -0.500000   0.500000
 Sum of Mulliken charges =  -1.00000   1.00000

 Dipole moment (field-independent basis, Debye):
    X=             -0.0000    Y=              0.0000    Z=              0.0000  Tot=              0.0000
 Quadrupole moment (field-independent basis, Debye-Ang):
   XX=            -11.9256   YY=            -13.6851   ZZ=            -16.8836
   XY=              0.0000   XZ=              0.0000   YZ=             -0.0000

 0=-109.1657203\MP4SDQ=-109.1669882\CCSD=-109.1665019\CCSD(T)=-109.1808
 Normal termination of Gaussian 16 at Sat Feb 10 15:38:17 2024.
