 Gaussian 16, Revision A.03,
 Gaussian 16:  ES64L-G16RevA.03 25-Dec-2016

 ------------------
 #p CCSD(T)/cc-pVTZ
 ------------------

 -----
 N2_70
 -----
 Symbolic Z-matrix:
 Charge = -1 Multiplicity = 2

                         Standard orientation:
 ---------------------------------------------------------------------
 Center     Atomic      Atomic             Coordinates (Angstroms)
 Number     Number       Type             X           Y           Z
 ---------------------------------------------------------------------
      1          7           0        0.000000    0.000000    1.450000
      2          7           0        0.000000    0.000000   -1.450000
 ---------------------------------------------------------------------

 SCF Done:  E(UHF) =  -108.251978087     A.U. after   12 cycles
 E2 =    -0.1082846233D+01 EUMP2 =    -0.10933482432025D+03
 CCSD(T)
 CCSD(T)= -0.10905426829D+03

 Unable to determine electronic state:  an orbital has unidentified symmetry.
 Alpha  occ. eigenvalues --  -15.45577 -15.45571  -0.76571  -0.74291  -0.26514
 Alpha  occ. eigenvalues --   -0.25479  -0.06947  -0.04282
 Alpha virt. eigenvalues --    0.14853   0.19479   0.80770   0.85650   0.87496
 Alpha virt. eigenvalues --    0.87692   0.88282   0.92301   0.92627   1.16315
 Alpha virt. eigenvalues --    1.44124   1.47348   1.48106   1.49237   1.49318

  Beta  occ. eigenvalues --  -15.43384 -15.43377  -0.68064  -0.65084  -0.05579
  Beta  occ. eigenvalues --   -0.02523   0.01674
  Beta virt. eigenvalues --    0.16776   0.21196   0.21819   0.86703   0.88759
  Beta virt. eigenvalues --    0.89437   0.89626   0.93432   0.93640   0.96438
  Beta virt. eigenvalues --    1.17763   1.45021   1.48231   1.50362   1.52496

 Mulliken charges and spin densities:
               1          2
     1  N   -0.500000   0.500000
     2  N   -0.500000   0.500000
 Sum of Mulliken charges =  -1.00000   1.00000

 Dipole moment (field-independent basis, Debye):
    X=             -0.0000    Y=              0.0000    Z=             -0.0000  Tot=              0.0000
 Quadrupole moment (field-independent basis, Debye-Ang):
   XX=            -14.3585   YY=            -15.4257   ZZ=            -23.0828
   XY=              0.0000   XZ=              0.0000   YZ=              0.0000

 -0=-107.9063372\MP4SDQ=-110.4778445\CCSD=-108.8895525\CCSD(T)=-109.054
 Normal termination of Gaussian 16 at Sat Feb 10 15:49:52 2024.
