 Gaussian 16, Revision A.03,
 Gaussian 16:  ES64L-G16RevA.03 25-Dec-2016

 ------------------
 #p CCSD(T)/cc-pVTZ
 ------------------

 ----
 N2_8
 ----
 Symbolic Z-matrix:
 Charge = -1 Multiplicity = 2

                         Standard orientation:
 ---------------------------------------------------------------------
 Center     Atomic      Atomic             Coordinates (Angstroms)
 Number     Number       Type             X           Y           Z
 ---------------------------------------------------------------------
      1          7           0        0.000000    0.000000    0.520000
      2          7           0        0.000000    0.000000   -0.520000
 ---------------------------------------------------------------------

 SCF Done:  E(UHF) =  -108.830197429     A.U. after   11 cycles
 E2 =    -0.3587423767D+00 EUMP2 =    -0.10918893980551D+03
 CCSD(T)
 CCSD(T)= -0.10921199085D+03

 Unable to determine electronic state:  an orbital has unidentified symmetry.
 Alpha  occ. eigenvalues --  -15.23527 -15.23075  -1.12460  -0.42397  -0.35345
 Alpha  occ. eigenvalues --   -0.27092  -0.25903   0.11019
 Alpha virt. eigenvalues --    0.52475   0.68875   0.84161   0.85122   0.85887
 Alpha virt. eigenvalues --    0.99556   1.01417   1.06127   1.25870   1.39276
 Alpha virt. eigenvalues --    1.39305   1.52330   1.70440   1.73508   1.85869

  Beta  occ. eigenvalues --  -15.21983 -15.21494  -1.09201  -0.34552  -0.24706
  Beta  occ. eigenvalues --   -0.23596  -0.20718
  Beta virt. eigenvalues --    0.53900   0.57370   0.69914   0.84706   0.86350
  Beta virt. eigenvalues --    0.88693   1.02575   1.07279   1.10427   1.27915
  Beta virt. eigenvalues --    1.41354   1.41393   1.55472   1.73854   1.76922

 Mulliken charges and spin densities:
               1          2
     1  N   -0.500000   0.500000
     2  N   -0.500000   0.500000
 Sum of Mulliken charges =  -1.00000   1.00000

 Dipole moment (field-independent basis, Debye):
    X=             -0.0000    Y=             -0.0000    Z=              0.0000  Tot=              0.0000
 Quadrupole moment (field-independent basis, Debye-Ang):
   XX=            -12.0476   YY=            -13.7311   ZZ=            -16.9223
   XY=              0.0000   XZ=              0.0000   YZ=             -0.0000

 -0=-109.1959914\MP4SDQ=-109.1976545\CCSD=-109.1970676\CCSD(T)=-109.211
 Normal termination of Gaussian 16 at Sat Feb 10 15:38:28 2024.
