 Gaussian 16, Revision A.03,
 Gaussian 16:  ES64L-G16RevA.03 25-Dec-2016

 ------------------
 #p CCSD(T)/cc-pVTZ
 ------------------

 ----
 N2_9
 ----
 Symbolic Z-matrix:
 Charge = -1 Multiplicity = 2

                         Standard orientation:
 ---------------------------------------------------------------------
 Center     Atomic      Atomic             Coordinates (Angstroms)
 Number     Number       Type             X           Y           Z
 ---------------------------------------------------------------------
      1          7           0        0.000000    0.000000    0.535000
      2          7           0        0.000000    0.000000   -0.535000
 ---------------------------------------------------------------------

 SCF Done:  E(UHF) =  -108.849757274     A.U. after   11 cycles
 E2 =    -0.3623369339D+00 EUMP2 =    -0.10921209420783D+03
 CCSD(T)
 CCSD(T)= -0.10923515812D+03

 Unable to determine electronic state:  an orbital has unidentified symmetry.
 Alpha  occ. eigenvalues --  -15.24374 -15.24010  -1.10323  -0.43404  -0.34421
 Alpha  occ. eigenvalues --   -0.26716  -0.24527   0.09176
 Alpha virt. eigenvalues --    0.51222   0.68628   0.84657   0.85589   0.86515
 Alpha virt. eigenvalues --    0.98980   1.01089   1.05436   1.25479   1.39374
 Alpha virt. eigenvalues --    1.39403   1.47053   1.68464   1.71499   1.84736

  Beta  occ. eigenvalues --  -15.22756 -15.22357  -1.06815  -0.35419  -0.23279
  Beta  occ. eigenvalues --   -0.23274  -0.19244
  Beta virt. eigenvalues --    0.52685   0.56219   0.69687   0.85193   0.86997
  Beta virt. eigenvalues --    0.89354   1.02207   1.06600   1.09745   1.27481
  Beta virt. eigenvalues --    1.41460   1.41497   1.50248   1.71828   1.74881

 Mulliken charges and spin densities:
               1          2
     1  N   -0.500000   0.500000
     2  N   -0.500000   0.500000
 Sum of Mulliken charges =  -1.00000   1.00000

 Dipole moment (field-independent basis, Debye):
    X=             -0.0000    Y=             -0.0000    Z=              0.0000  Tot=              0.0000
 Quadrupole moment (field-independent basis, Debye-Ang):
   XX=            -12.1675   YY=            -13.7836   ZZ=            -16.9647
   XY=              0.0000   XZ=              0.0000   YZ=             -0.0000

 0=-109.2181585\MP4SDQ=-109.220301\CCSD=-109.2195876\CCSD(T)=-109.23515
 Normal termination of Gaussian 16 at Sat Feb 10 15:38:38 2024.
