 Gaussian 16, Revision A.03,
 Gaussian 16:  ES64L-G16RevA.03 25-Dec-2016

 --------------------
 #p ROCCSD(T)/cc-pVTZ
 --------------------

 ---------
 H2_H2_292
 ---------
 Symbolic Z-matrix:
 Charge = -1 Multiplicity = 2

                         Standard orientation:
 ---------------------------------------------------------------------
 Center     Atomic      Atomic             Coordinates (Angstroms)
 Number     Number       Type             X           Y           Z
 ---------------------------------------------------------------------
      1          1           0       -0.226657   -3.034404   -0.000000
      2          1           0        0.267170   -2.483283   -0.000000
      3          1           0       -0.000000    2.389398    0.000000
      4          1           0       -0.040514    3.128288    0.000000
 ---------------------------------------------------------------------

 SCF Done:  E(ROHF) =  -2.11318056243     A.U. after   12 cycles
 E2 =    -0.7173134950D-01 EUMP2 =    -0.21849119119261D+01
 CCSD(T)
 CCSD(T)= -0.22014877226D+01

 The electronic state is 2-A'.
 Alpha  occ. eigenvalues --   -0.40562  -0.40295   0.15049
 Alpha virt. eigenvalues --    0.27837   0.45843   0.48018   0.80751   0.84338
 Alpha virt. eigenvalues --    0.88430   0.88431   0.88648   0.88729   1.28164
 Alpha virt. eigenvalues --    1.28410   1.30573   1.30580   1.30745   1.30825

 Mulliken charges and spin densities:
               1          2
     1  H   -0.233007   0.182269
     2  H   -0.269505   0.320247
     3  H   -0.253936   0.308597
     4  H   -0.243552   0.188887
 Sum of Mulliken charges =  -1.00000   1.00000

 Dipole moment (field-independent basis, Debye):
    X=             -0.1889    Y=              0.0596    Z=              0.0000  Tot=              0.1981
 Quadrupole moment (field-independent basis, Debye-Ang):
   XX=             -8.9741   YY=            -45.9765   ZZ=             -7.7253
   XY=             -0.5989   XZ=              0.0000   YZ=             -0.0000

 MP2-0=-2.1849119\MP4SDQ=-2.2000364\CCSD=-2.2008776\CCSD(T)=-2.2014877\
 Normal termination of Gaussian 16 at Tue Feb 13 12:34:05 2024.
