 Gaussian 16, Revision A.03,
 Gaussian 16:  ES64L-G16RevA.03 25-Dec-2016

 --------------------
 #p ROCCSD(T)/cc-pVTZ
 --------------------

 -------
 H2_H2_3
 -------
 Symbolic Z-matrix:
 Charge = -1 Multiplicity = 2

                         Standard orientation:
 ---------------------------------------------------------------------
 Center     Atomic      Atomic             Coordinates (Angstroms)
 Number     Number       Type             X           Y           Z
 ---------------------------------------------------------------------
      1          1           0        0.000000    0.000000    1.260000
      2          1           0        0.000000    0.000000    0.520000
      3          1           0        0.000000    0.000000   -0.520000
      4          1           0        0.000000    0.000000   -1.260000
 ---------------------------------------------------------------------

 SCF Done:  E(ROHF) =  -2.06729935797     A.U. after   12 cycles
 E2 =    -0.8533631335D-01 EUMP2 =    -0.21526356713134D+01
 CCSD(T)
 CCSD(T)= -0.21697307440D+01

 The electronic state is 2-SGG.
 Alpha  occ. eigenvalues --   -0.47793  -0.25620   0.14972
 Alpha virt. eigenvalues --    0.39263   0.55627   0.72549   0.73077   0.84557
 Alpha virt. eigenvalues --    0.84557   1.01977   1.01977   1.06508   1.32193
 Alpha virt. eigenvalues --    1.32193   1.50327   1.79730   1.79730   1.86870

 Mulliken charges and spin densities:
               1          2
     1  H   -0.587276   0.545167
     2  H    0.087276  -0.045167
     3  H    0.087276  -0.045167
     4  H   -0.587276   0.545167
 Sum of Mulliken charges =  -1.00000   1.00000

 Dipole moment (field-independent basis, Debye):
    X=             -0.0000    Y=              0.0000    Z=              0.0000  Tot=              0.0000
 Quadrupole moment (field-independent basis, Debye-Ang):
   XX=             -7.3668   YY=             -7.3668   ZZ=            -24.2959
   XY=              0.0000   XZ=              0.0000   YZ=             -0.0000

 4SDQ=-2.1678384\CCSD=-2.1680652\CCSD(T)=-2.1697307\RMSD=2.958e-09\PG=D
 Normal termination of Gaussian 16 at Tue Feb 13 12:15:53 2024.
