 Gaussian 16, Revision A.03,
 Gaussian 16:  ES64L-G16RevA.03 25-Dec-2016

 --------------------
 #p ROCCSD(T)/cc-pVTZ
 --------------------

 ---------
 H2_H2_227
 ---------
 Symbolic Z-matrix:
 Charge = -1 Multiplicity = 2

                         Standard orientation:
 ---------------------------------------------------------------------
 Center     Atomic      Atomic             Coordinates (Angstroms)
 Number     Number       Type             X           Y           Z
 ---------------------------------------------------------------------
      1          1           0       -0.330574   -2.230016    0.000000
      2          1           0        0.405612   -2.154978    0.000000
      3          1           0       -0.000000    1.824404    0.000000
      4          1           0       -0.075038    2.560590    0.000000
 ---------------------------------------------------------------------

 SCF Done:  E(ROHF) =  -2.10713265512     A.U. after   17 cycles
 E2 =    -0.7132267557D-01 EUMP2 =    -0.21784553306943D+01
 CCSD(T)
 CCSD(T)= -0.21954912679D+01

 The electronic state is 2-A'.
 Alpha  occ. eigenvalues --   -0.43878  -0.33930   0.15523
 Alpha virt. eigenvalues --    0.29510   0.44453   0.53024   0.79231   0.83724
 Alpha virt. eigenvalues --    0.84862   0.90525   0.95333   0.95345   1.25386
 Alpha virt. eigenvalues --    1.27246   1.27692   1.34430   1.36921   1.36944

 Mulliken charges and spin densities:
               1          2
     1  H   -0.011088  -0.020131
     2  H   -0.156873   0.187641
     3  H   -0.428956   0.474395
     4  H   -0.403084   0.358095
 Sum of Mulliken charges =  -1.00000   1.00000

 Dipole moment (field-independent basis, Debye):
    X=             -0.3962    Y=             -6.8096    Z=              0.0000  Tot=              6.8211
 Quadrupole moment (field-independent basis, Debye-Ang):
   XX=             -8.0597   YY=            -34.5875   ZZ=             -7.7095
   XY=              1.5050   XZ=              0.0000   YZ=              0.0000

 DQ=-2.1936756\CCSD=-2.1949047\CCSD(T)=-2.1954913\RMSD=9.247e-09\PG=CS
 Normal termination of Gaussian 16 at Tue Feb 13 12:30:01 2024.
