 Gaussian 16, Revision A.03,
 Gaussian 16:  ES64L-G16RevA.03 25-Dec-2016

 --------------------
 #p ROCCSD(T)/cc-pVTZ
 --------------------

 ---------
 H2_H2_284
 ---------
 Symbolic Z-matrix:
 Charge = -1 Multiplicity = 2

                         Standard orientation:
 ---------------------------------------------------------------------
 Center     Atomic      Atomic             Coordinates (Angstroms)
 Number     Number       Type             X           Y           Z
 ---------------------------------------------------------------------
      1          1           0       -0.337618   -2.602549    0.000000
      2          1           0        0.399767   -2.540401    0.000000
      3          1           0        0.000000    2.202782    0.000000
      4          1           0       -0.062149    2.940168    0.000000
 ---------------------------------------------------------------------

 SCF Done:  E(ROHF) =  -2.10340627828     A.U. after   31 cycles
 E2 =    -0.7224767002D-01 EUMP2 =    -0.21756539482960D+01
 CCSD(T)
 CCSD(T)= -0.21923814579D+01

 The electronic state is 2-A'.
 Alpha  occ. eigenvalues --   -0.41294  -0.38920   0.16028
 Alpha virt. eigenvalues --    0.27044   0.45589   0.48888   0.81673   0.83363
 Alpha virt. eigenvalues --    0.87649   0.87655   0.90108   0.90319   1.27434
 Alpha virt. eigenvalues --    1.29609   1.29822   1.29847   1.31992   1.32125

 Mulliken charges and spin densities:
               1          2
     1  H   -0.215023   0.192175
     2  H   -0.341764   0.364620
     3  H   -0.200019   0.247231
     4  H   -0.243193   0.195974
 Sum of Mulliken charges =  -1.00000   1.00000

 Dipole moment (field-independent basis, Debye):
    X=             -0.4695    Y=              1.3820    Z=              0.0000  Tot=              1.4596
 Quadrupole moment (field-independent basis, Debye-Ang):
   XX=            -10.8646   YY=            -41.7213   ZZ=             -7.6847
   XY=              1.2368   XZ=              0.0000   YZ=              0.0000

 4SDQ=-2.1908593\CCSD=-2.1917282\CCSD(T)=-2.1923815\RMSD=1.097e-09\PG=C
 Normal termination of Gaussian 16 at Tue Feb 13 12:33:34 2024.
