 Gaussian 16, Revision A.03,
 Gaussian 16:  ES64L-G16RevA.03 25-Dec-2016

 --------------------
 #p ROCCSD(T)/cc-pVTZ
 --------------------

 ---------
 H2_H2_201
 ---------
 Symbolic Z-matrix:
 Charge = -1 Multiplicity = 2

                         Standard orientation:
 ---------------------------------------------------------------------
 Center     Atomic      Atomic             Coordinates (Angstroms)
 Number     Number       Type             X           Y           Z
 ---------------------------------------------------------------------
      1          1           0        0.000000    0.000000    2.580000
      2          1           0        0.000000    0.000000    1.840000
      3          1           0        0.000000    0.000000   -1.840000
      4          1           0        0.000000    0.000000   -2.580000
 ---------------------------------------------------------------------

 SCF Done:  E(ROHF) =  -2.13347200924     A.U. after   10 cycles
 E2 =    -0.7070866220D-01 EUMP2 =    -0.22041806714404D+01
 CCSD(T)
 CCSD(T)= -0.22207586104D+01

 The electronic state is 2-SGG.
 Alpha  occ. eigenvalues --   -0.38965  -0.38455   0.12804
 Alpha virt. eigenvalues --    0.33612   0.46124   0.53038   0.83334   0.89862
 Alpha virt. eigenvalues --    0.90193   0.90193   0.90242   0.90242   1.29612
 Alpha virt. eigenvalues --    1.31436   1.32425   1.32425   1.32746   1.32746

 Mulliken charges and spin densities:
               1          2
     1  H   -0.210194   0.088931
     2  H   -0.289806   0.411069
     3  H   -0.289806   0.411069
     4  H   -0.210194   0.088931
 Sum of Mulliken charges =  -1.00000   1.00000

 Dipole moment (field-independent basis, Debye):
    X=             -0.0000    Y=              0.0000    Z=             -0.0000  Tot=              0.0000
 Quadrupole moment (field-independent basis, Debye-Ang):
   XX=             -7.7213   YY=             -7.7213   ZZ=            -30.0130
   XY=              0.0000   XZ=              0.0000   YZ=             -0.0000

 4SDQ=-2.2192745\CCSD=-2.2202213\CCSD(T)=-2.2207586\RMSD=5.179e-09\PG=D
 Normal termination of Gaussian 16 at Tue Feb 13 12:28:21 2024.
