 Gaussian 16, Revision A.03,
 Gaussian 16:  ES64L-G16RevA.03 25-Dec-2016

 --------------------
 #p ROCCSD(T)/cc-pVTZ
 --------------------

 --------
 H2_H2_85
 --------
 Symbolic Z-matrix:
 Charge = -1 Multiplicity = 2

                         Standard orientation:
 ---------------------------------------------------------------------
 Center     Atomic      Atomic             Coordinates (Angstroms)
 Number     Number       Type             X           Y           Z
 ---------------------------------------------------------------------
      1          1           0       -0.177982   -1.674383    0.000000
      2          1           0        0.273421   -1.088008    0.000000
      3          1           0       -0.000000    1.014286   -0.000000
      4          1           0       -0.095440    1.748105   -0.000000
 ---------------------------------------------------------------------

 SCF Done:  E(ROHF) =  -2.11061232578     A.U. after   14 cycles
 E2 =    -0.7548983720D-01 EUMP2 =    -0.21861021629844D+01
 CCSD(T)
 CCSD(T)= -0.22033039569D+01

 The electronic state is 2-A'.
 Alpha  occ. eigenvalues --   -0.38281  -0.33472   0.14713
 Alpha virt. eigenvalues --    0.36152   0.50020   0.60159   0.84579   0.85613
 Alpha virt. eigenvalues --    0.90494   0.92466   0.95485   1.00125   1.22606
 Alpha virt. eigenvalues --    1.28068   1.28844   1.41784   1.44092   1.58055

 Mulliken charges and spin densities:
               1          2
     1  H   -0.334960   0.252349
     2  H   -0.306490   0.391800
     3  H   -0.085218   0.240743
     4  H   -0.273333   0.115108
 Sum of Mulliken charges =  -1.00000   1.00000

 Dipole moment (field-independent basis, Debye):
    X=             -0.1241    Y=              1.6905    Z=             -0.0000  Tot=              1.6951
 Quadrupole moment (field-independent basis, Debye-Ang):
   XX=             -8.7927   YY=            -22.1358   ZZ=             -7.5648
   XY=             -1.1770   XZ=             -0.0000   YZ=              0.0000

 PMP2-0=-2.1861022\MP4SDQ=-2.2016623\CCSD=-2.202431\CCSD(T)=-2.203304\R
 Normal termination of Gaussian 16 at Tue Feb 13 12:20:52 2024.
