 Gaussian 16, Revision A.03,
 Gaussian 16:  ES64L-G16RevA.03 25-Dec-2016

 --------------------
 #p ROCCSD(T)/cc-pVTZ
 --------------------

 --------
 H2_H2_92
 --------
 Symbolic Z-matrix:
 Charge = -1 Multiplicity = 2

                         Standard orientation:
 ---------------------------------------------------------------------
 Center     Atomic      Atomic             Coordinates (Angstroms)
 Number     Number       Type             X           Y           Z
 ---------------------------------------------------------------------
      1          1           0       -0.289337   -1.369501    0.000000
      2          1           0        0.435987   -1.222851    0.000000
      3          1           0        0.000000    0.933515    0.000000
      4          1           0       -0.146650    1.658838    0.000000
 ---------------------------------------------------------------------

 SCF Done:  E(ROHF) =  -2.10810891798     A.U. after   14 cycles
 E2 =    -0.7262848581D-01 EUMP2 =    -0.21807374037940D+01
 CCSD(T)
 CCSD(T)= -0.21976254956D+01

 The electronic state is 2-A'.
 Alpha  occ. eigenvalues --   -0.41005  -0.32061   0.14939
 Alpha virt. eigenvalues --    0.35369   0.50050   0.55658   0.84409   0.85819
 Alpha virt. eigenvalues --    0.87390   0.91314   0.96872   1.00533   1.23593
 Alpha virt. eigenvalues --    1.31421   1.34927   1.38980   1.43715   1.48863

 Mulliken charges and spin densities:
               1          2
     1  H   -0.447115   0.453842
     2  H   -0.487850   0.487460
     3  H    0.116110   0.035072
     4  H   -0.181144   0.023626
 Sum of Mulliken charges =  -1.00000   1.00000

 Dipole moment (field-independent basis, Debye):
    X=             -0.2965    Y=              4.9681    Z=              0.0000  Tot=              4.9769
 Quadrupole moment (field-independent basis, Debye-Ang):
   XX=            -13.1823   YY=            -16.8771   ZZ=             -7.6506
   XY=             -0.8699   XZ=              0.0000   YZ=              0.0000

 SDQ=-2.1960191\CCSD=-2.1969948\CCSD(T)=-2.1976255\RMSD=7.233e-09\PG=CS
 Normal termination of Gaussian 16 at Tue Feb 13 12:21:17 2024.
