 Gaussian 16, Revision A.03,
 Gaussian 16:  ES64L-G16RevA.03 25-Dec-2016

 --------------------
 #p ROCCSD(T)/cc-pVTZ
 --------------------

 ---------
 H2_H2_229
 ---------
 Symbolic Z-matrix:
 Charge = -1 Multiplicity = 2

                         Standard orientation:
 ---------------------------------------------------------------------
 Center     Atomic      Atomic             Coordinates (Angstroms)
 Number     Number       Type             X           Y           Z
 ---------------------------------------------------------------------
      1          1           0       -0.219113   -2.617769   -0.000000
      2          1           0        0.268248   -2.060922    0.000000
      3          1           0        0.000000    1.970162    0.000000
      4          1           0       -0.049134    2.708529   -0.000000
 ---------------------------------------------------------------------

 SCF Done:  E(ROHF) =  -2.12432863227     A.U. after   13 cycles
 E2 =    -0.7107954842D-01 EUMP2 =    -0.21954081806839D+01
 CCSD(T)
 CCSD(T)= -0.22120140421D+01

 The electronic state is 2-A'.
 Alpha  occ. eigenvalues --   -0.39498  -0.39164   0.13843
 Alpha virt. eigenvalues --    0.31195   0.45839   0.50948   0.81915   0.86762
 Alpha virt. eigenvalues --    0.89586   0.89593   0.89625   0.90357   1.29173
 Alpha virt. eigenvalues --    1.29902   1.31751   1.31863   1.31915   1.32209

 Mulliken charges and spin densities:
               1          2
     1  H   -0.197074   0.108006
     2  H   -0.298238   0.387283
     3  H   -0.280531   0.373247
     4  H   -0.224158   0.131463
 Sum of Mulliken charges =  -1.00000   1.00000

 Dipole moment (field-independent basis, Debye):
    X=             -0.3705    Y=             -0.1145    Z=             -0.0000  Tot=              0.3877
 Quadrupole moment (field-independent basis, Debye-Ang):
   XX=             -8.8054   YY=            -33.2865   ZZ=             -7.7370
   XY=             -0.3111   XZ=             -0.0000   YZ=             -0.0000

 P2-0=-2.1954082\MP4SDQ=-2.2105396\CCSD=-2.2114505\CCSD(T)=-2.212014\RM
 Normal termination of Gaussian 16 at Tue Feb 13 12:30:09 2024.
