 Gaussian 16, Revision A.03,
 Gaussian 16:  ES64L-G16RevA.03 25-Dec-2016

 --------------------
 #p ROCCSD(T)/cc-pVTZ
 --------------------

 --------
 H2_H2_11
 --------
 Symbolic Z-matrix:
 Charge = -1 Multiplicity = 2

                         Standard orientation:
 ---------------------------------------------------------------------
 Center     Atomic      Atomic             Coordinates (Angstroms)
 Number     Number       Type             X           Y           Z
 ---------------------------------------------------------------------
      1          1           0       -0.168121   -0.913666    0.000000
      2          1           0        0.495515   -0.586272    0.000000
      3          1           0       -0.000000    0.418151    0.000000
      4          1           0       -0.327394    1.081787    0.000000
 ---------------------------------------------------------------------

 SCF Done:  E(ROHF) =  -2.06934027676     A.U. after   13 cycles
 E2 =    -0.8140700282D-01 EUMP2 =    -0.21507472795766D+01
 CCSD(T)
 CCSD(T)= -0.21675096925D+01

 The electronic state is 2-A'.
 Alpha  occ. eigenvalues --   -0.47783  -0.21997   0.12884
 Alpha virt. eigenvalues --    0.39985   0.51734   0.59767   0.80626   0.84207
 Alpha virt. eigenvalues --    0.92276   0.97073   1.06385   1.27763   1.33838
 Alpha virt. eigenvalues --    1.34677   1.41093   1.55698   1.76429   1.78074

 Mulliken charges and spin densities:
               1          2
     1  H   -0.581724   0.677466
     2  H   -0.235159   0.217155
     3  H    0.147284   0.018442
     4  H   -0.330401   0.086937
 Sum of Mulliken charges =  -1.00000   1.00000

 Dipole moment (field-independent basis, Debye):
    X=              0.6530    Y=              1.9490    Z=              0.0000  Tot=              2.0555
 Quadrupole moment (field-independent basis, Debye-Ang):
   XX=            -11.9827   YY=            -13.6588   ZZ=             -7.3583
   XY=             -1.0152   XZ=              0.0000   YZ=              0.0000

 4SDQ=-2.1656535\CCSD=-2.1661458\CCSD(T)=-2.1675097\RMSD=6.734e-09\PG=C
 Normal termination of Gaussian 16 at Tue Feb 13 12:16:20 2024.
