 Gaussian 16, Revision A.03,
 Gaussian 16:  ES64L-G16RevA.03 25-Dec-2016

 --------------------
 #p ROCCSD(T)/cc-pVTZ
 --------------------

 ---------
 H2_H2_243
 ---------
 Symbolic Z-matrix:
 Charge = -1 Multiplicity = 2

                         Standard orientation:
 ---------------------------------------------------------------------
 Center     Atomic      Atomic             Coordinates (Angstroms)
 Number     Number       Type             X           Y           Z
 ---------------------------------------------------------------------
      1          1           0        0.000000    0.000000    2.860000
      2          1           0        0.000000    0.000000    2.120000
      3          1           0        0.000000    0.000000   -2.120000
      4          1           0        0.000000    0.000000   -2.860000
 ---------------------------------------------------------------------

 SCF Done:  E(ROHF) =  -2.12718134672     A.U. after   10 cycles
 E2 =    -0.7091091352D-01 EUMP2 =    -0.21980922602403D+01
 CCSD(T)
 CCSD(T)= -0.22146395025D+01

 The electronic state is 2-SGG.
 Alpha  occ. eigenvalues --   -0.39876  -0.39576   0.13567
 Alpha virt. eigenvalues --    0.31115   0.45785   0.50067   0.80961   0.87916
 Alpha virt. eigenvalues --    0.89199   0.89199   0.89216   0.89216   1.28914
 Alpha virt. eigenvalues --    1.29552   1.31435   1.31435   1.31557   1.31557

 Mulliken charges and spin densities:
               1          2
     1  H   -0.217423   0.128749
     2  H   -0.282577   0.371251
     3  H   -0.282577   0.371251
     4  H   -0.217423   0.128749
 Sum of Mulliken charges =  -1.00000   1.00000

 Dipole moment (field-independent basis, Debye):
    X=             -0.0000    Y=             -0.0000    Z=              0.0000  Tot=              0.0000
 Quadrupole moment (field-independent basis, Debye-Ang):
   XX=             -7.7568   YY=             -7.7568   ZZ=            -37.3641
   XY=              0.0000   XZ=              0.0000   YZ=             -0.0000

 MP4SDQ=-2.2131774\CCSD=-2.2140875\CCSD(T)=-2.2146395\RMSD=3.256e-09\PG
 Normal termination of Gaussian 16 at Tue Feb 13 12:31:03 2024.
