 Gaussian 16, Revision A.03,
 Gaussian 16:  ES64L-G16RevA.03 25-Dec-2016

 --------------------
 #p ROCCSD(T)/cc-pVTZ
 --------------------

 --------
 H2_H2_50
 --------
 Symbolic Z-matrix:
 Charge = -1 Multiplicity = 2

                         Standard orientation:
 ---------------------------------------------------------------------
 Center     Atomic      Atomic             Coordinates (Angstroms)
 Number     Number       Type             X           Y           Z
 ---------------------------------------------------------------------
      1          1           0       -0.251739   -1.120124    0.000000
      2          1           0        0.458724   -0.913139    0.000000
      3          1           0        0.000000    0.661400    0.000000
      4          1           0       -0.206985    1.371863    0.000000
 ---------------------------------------------------------------------

 SCF Done:  E(ROHF) =  -2.10322223938     A.U. after   14 cycles
 E2 =    -0.7549436452D-01 EUMP2 =    -0.21787166038949D+01
 CCSD(T)
 CCSD(T)= -0.21956289011D+01

 The electronic state is 2-A'.
 Alpha  occ. eigenvalues --   -0.41221  -0.29520   0.14281
 Alpha virt. eigenvalues --    0.37723   0.52429   0.56306   0.81722   0.86438
 Alpha virt. eigenvalues --    0.88702   0.91822   0.99326   1.12349   1.26010
 Alpha virt. eigenvalues --    1.34434   1.38217   1.43587   1.59540   1.63907

 Mulliken charges and spin densities:
               1          2
     1  H   -0.505834   0.538168
     2  H   -0.411596   0.398963
     3  H    0.159305   0.023673
     4  H   -0.241875   0.039196
 Sum of Mulliken charges =  -1.00000   1.00000

 Dipole moment (field-independent basis, Debye):
    X=              0.0062    Y=              3.5533    Z=              0.0000  Tot=              3.5533
 Quadrupole moment (field-independent basis, Debye-Ang):
   XX=            -12.8660   YY=            -14.4269   ZZ=             -7.5655
   XY=             -1.1049   XZ=              0.0000   YZ=              0.0000

 4SDQ=-2.1939684\CCSD=-2.194751\CCSD(T)=-2.1956289\RMSD=2.965e-09\PG=CS
 Normal termination of Gaussian 16 at Tue Feb 13 12:18:43 2024.
