 Gaussian 16, Revision A.03,
 Gaussian 16:  ES64L-G16RevA.03 25-Dec-2016

 --------------------
 #p ROCCSD(T)/cc-pVTZ
 --------------------

 ---------
 H2_H2_242
 ---------
 Symbolic Z-matrix:
 Charge = -1 Multiplicity = 2

                         Standard orientation:
 ---------------------------------------------------------------------
 Center     Atomic      Atomic             Coordinates (Angstroms)
 Number     Number       Type             X           Y           Z
 ---------------------------------------------------------------------
      1          1           0       -0.332707   -2.327779    0.000000
      2          1           0        0.403864   -2.256622    0.000000
      3          1           0        0.000000    1.923915    0.000000
      4          1           0       -0.071157    2.660486    0.000000
 ---------------------------------------------------------------------

 SCF Done:  E(ROHF) =  -2.10645685164     A.U. after   18 cycles
 E2 =    -0.7117768879D-01 EUMP2 =    -0.21776345404286D+01
 CCSD(T)
 CCSD(T)= -0.21947032262D+01

 The electronic state is 2-A'.
 Alpha  occ. eigenvalues --   -0.44992  -0.33447   0.15582
 Alpha virt. eigenvalues --    0.28898   0.43771   0.52913   0.78246   0.83375
 Alpha virt. eigenvalues --    0.83729   0.89669   0.95855   0.95859   1.24212
 Alpha virt. eigenvalues --    1.26176   1.26572   1.34836   1.37370   1.37380

 Mulliken charges and spin densities:
               1          2
     1  H   -0.010291  -0.015151
     2  H   -0.122598   0.147759
     3  H   -0.445656   0.480645
     4  H   -0.421456   0.386748
 Sum of Mulliken charges =  -1.00000   1.00000

 Dipole moment (field-independent basis, Debye):
    X=             -0.2877    Y=             -7.9062    Z=              0.0000  Tot=              7.9114
 Quadrupole moment (field-independent basis, Debye-Ang):
   XX=             -7.8588   YY=            -37.2012   ZZ=             -7.7077
   XY=              1.4621   XZ=              0.0000   YZ=              0.0000

 4SDQ=-2.1928318\CCSD=-2.1941232\CCSD(T)=-2.1947032\RMSD=5.648e-10\PG=C
 Normal termination of Gaussian 16 at Tue Feb 13 12:30:57 2024.
