 Gaussian 16, Revision A.03,
 Gaussian 16:  ES64L-G16RevA.03 25-Dec-2016

 --------------------
 #p ROCCSD(T)/cc-pVTZ
 --------------------

 ---------
 H2_H2_107
 ---------
 Symbolic Z-matrix:
 Charge = -1 Multiplicity = 2

                         Standard orientation:
 ---------------------------------------------------------------------
 Center     Atomic      Atomic             Coordinates (Angstroms)
 Number     Number       Type             X           Y           Z
 ---------------------------------------------------------------------
      1          1           0       -0.297658   -1.462070    0.000000
      2          1           0        0.430349   -1.329380    0.000000
      3          1           0        0.000000    1.031722    0.000000
      4          1           0       -0.132691    1.759728    0.000000
 ---------------------------------------------------------------------

 SCF Done:  E(ROHF) =  -2.10802488855     A.U. after   17 cycles
 E2 =    -0.7213613720D-01 EUMP2 =    -0.21801610257528D+01
 CCSD(T)
 CCSD(T)= -0.21970614014D+01

 The electronic state is 2-A'.
 Alpha  occ. eigenvalues --   -0.41589  -0.32260   0.15083
 Alpha virt. eigenvalues --    0.34595   0.48755   0.56002   0.84325   0.85265
 Alpha virt. eigenvalues --    0.86956   0.90964   0.96869   1.00531   1.24839
 Alpha virt. eigenvalues --    1.30382   1.32152   1.38601   1.40866   1.44910

 Mulliken charges and spin densities:
               1          2
     1  H   -0.426877   0.427245
     2  H   -0.504449   0.508507
     3  H    0.095745   0.041296
     4  H   -0.164419   0.022952
 Sum of Mulliken charges =  -1.00000   1.00000

 Dipole moment (field-independent basis, Debye):
    X=             -0.3775    Y=              5.3690    Z=              0.0000  Tot=              5.3823
 Quadrupole moment (field-independent basis, Debye-Ang):
   XX=            -13.1930   YY=            -18.0295   ZZ=             -7.6581
   XY=             -0.7511   XZ=              0.0000   YZ=              0.0000

 DQ=-2.1954356\CCSD=-2.1964688\CCSD(T)=-2.1970614\RMSD=1.847e-09\PG=CS
 Normal termination of Gaussian 16 at Tue Feb 13 12:22:15 2024.
