 Gaussian 16, Revision A.03,
 Gaussian 16:  ES64L-G16RevA.03 25-Dec-2016

 --------------------
 #p ROCCSD(T)/cc-pVTZ
 --------------------

 --------
 H2_H2_73
 --------
 Symbolic Z-matrix:
 Charge = -1 Multiplicity = 2

                         Standard orientation:
 ---------------------------------------------------------------------
 Center     Atomic      Atomic             Coordinates (Angstroms)
 Number     Number       Type             X           Y           Z
 ---------------------------------------------------------------------
      1          1           0       -0.170687   -1.597032    0.000000
      2          1           0        0.274218   -1.005711    0.000000
      3          1           0        0.000000    0.935011   -0.000000
      4          1           0       -0.103531    1.667733   -0.000000
 ---------------------------------------------------------------------

 SCF Done:  E(ROHF) =  -2.10769341964     A.U. after   15 cycles
 E2 =    -0.7620013925D-01 EUMP2 =    -0.21838935588932D+01
 CCSD(T)
 CCSD(T)= -0.22011915979D+01

 The electronic state is 2-A'.
 Alpha  occ. eigenvalues --   -0.38771  -0.32786   0.14889
 Alpha virt. eigenvalues --    0.36427   0.50756   0.60217   0.82413   0.86607
 Alpha virt. eigenvalues --    0.89660   0.92565   0.96229   1.01432   1.23707
 Alpha virt. eigenvalues --    1.27051   1.30043   1.44166   1.46977   1.63088

 Mulliken charges and spin densities:
               1          2
     1  H   -0.378658   0.319615
     2  H   -0.298959   0.363221
     3  H   -0.045532   0.198023
     4  H   -0.276851   0.119141
 Sum of Mulliken charges =  -1.00000   1.00000

 Dipole moment (field-independent basis, Debye):
    X=             -0.0073    Y=              2.0520    Z=             -0.0000  Tot=              2.0521
 Quadrupole moment (field-independent basis, Debye-Ang):
   XX=             -8.8983   YY=            -21.9833   ZZ=             -7.5470
   XY=             -1.3252   XZ=             -0.0000   YZ=              0.0000

 PMP2-0=-2.1838936\MP4SDQ=-2.199472\CCSD=-2.2002541\CCSD(T)=-2.2011916\
 Normal termination of Gaussian 16 at Tue Feb 13 12:20:05 2024.
