 Gaussian 16, Revision A.03,
 Gaussian 16:  ES64L-G16RevA.03 25-Dec-2016

 --------------------
 #p ROCCSD(T)/cc-pVTZ
 --------------------

 ---------
 H2_H2_283
 ---------
 Symbolic Z-matrix:
 Charge = -1 Multiplicity = 2

                         Standard orientation:
 ---------------------------------------------------------------------
 Center     Atomic      Atomic             Coordinates (Angstroms)
 Number     Number       Type             X           Y           Z
 ---------------------------------------------------------------------
      1          1           0       -0.225747   -2.974815   -0.000000
      2          1           0        0.267302   -2.422998   -0.000000
      3          1           0        0.000000    2.329490    0.000000
      4          1           0       -0.041555    3.068323    0.000000
 ---------------------------------------------------------------------

 SCF Done:  E(ROHF) =  -2.11480335013     A.U. after   13 cycles
 E2 =    -0.7162712688D-01 EUMP2 =    -0.21864304770117D+01
 CCSD(T)
 CCSD(T)= -0.22030087763D+01

 The electronic state is 2-A'.
 Alpha  occ. eigenvalues --   -0.40426  -0.40192   0.14880
 Alpha virt. eigenvalues --    0.28273   0.45825   0.48322   0.80772   0.84741
 Alpha virt. eigenvalues --    0.88574   0.88575   0.88733   0.88833   1.28335
 Alpha virt. eigenvalues --    1.28524   1.30726   1.30738   1.30850   1.30940

 Mulliken charges and spin densities:
               1          2
     1  H   -0.227394   0.172099
     2  H   -0.273336   0.328634
     3  H   -0.258338   0.317321
     4  H   -0.240931   0.181946
 Sum of Mulliken charges =  -1.00000   1.00000

 Dipole moment (field-independent basis, Debye):
    X=             -0.2156    Y=              0.0123    Z=              0.0000  Tot=              0.2159
 Quadrupole moment (field-independent basis, Debye-Ang):
   XX=             -8.9597   YY=            -44.0247   ZZ=             -7.7309
   XY=             -0.5441   XZ=             -0.0000   YZ=             -0.0000

 \PMP2-0=-2.1864305\MP4SDQ=-2.2015553\CCSD=-2.202406\CCSD(T)=-2.2030088
 Normal termination of Gaussian 16 at Tue Feb 13 12:33:31 2024.
