 Gaussian 16, Revision A.03,
 Gaussian 16:  ES64L-G16RevA.03 25-Dec-2016

 --------------------
 #p ROCCSD(T)/cc-pVTZ
 --------------------

 ---------
 H2_H2_149
 ---------
 Symbolic Z-matrix:
 Charge = -1 Multiplicity = 2

                         Standard orientation:
 ---------------------------------------------------------------------
 Center     Atomic      Atomic             Coordinates (Angstroms)
 Number     Number       Type             X           Y           Z
 ---------------------------------------------------------------------
      1          1           0       -0.313955   -1.726755    0.000000
      2          1           0        0.418607   -1.622103    0.000000
      3          1           0        0.000000    1.308148    0.000000
      4          1           0       -0.104652    2.040710    0.000000
 ---------------------------------------------------------------------

 SCF Done:  E(ROHF) =  -2.10731003262     A.U. after   22 cycles
 E2 =    -0.7167894263D-01 EUMP2 =    -0.21789889752568D+01
 CCSD(T)
 CCSD(T)= -0.21960989980D+01

 The electronic state is 2-A'.
 Alpha  occ. eigenvalues --   -0.42752  -0.32923   0.15358
 Alpha virt. eigenvalues --    0.32505   0.45964   0.56152   0.80818   0.85065
 Alpha virt. eigenvalues --    0.85911   0.89466   0.96396   1.02922   1.26155
 Alpha virt. eigenvalues --    1.28662   1.28798   1.37232   1.37834   1.38868

 Mulliken charges and spin densities:
               1          2
     1  H   -0.341056   0.318838
     2  H   -0.531072   0.554599
     3  H    0.022094   0.086869
     4  H   -0.149965   0.039694
 Sum of Mulliken charges =  -1.00000   1.00000

 Dipole moment (field-independent basis, Debye):
    X=             -0.6683    Y=              5.6809    Z=              0.0000  Tot=              5.7201
 Quadrupole moment (field-independent basis, Debye-Ang):
   XX=            -12.8410   YY=            -21.9231   ZZ=             -7.6615
   XY=             -0.1632   XZ=              0.0000   YZ=              0.0000

 2.1942778\CCSD=-2.1954999\CCSD(T)=-2.196099\RMSD=8.052e-10\PG=CS [SG(H
 Normal termination of Gaussian 16 at Tue Feb 13 12:25:00 2024.
