 Gaussian 16, Revision A.03,
 Gaussian 16:  ES64L-G16RevA.03 25-Dec-2016

 --------------------
 #p ROCCSD(T)/cc-pVTZ
 --------------------

 --------
 H2_H2_48
 --------
 Symbolic Z-matrix:
 Charge = -1 Multiplicity = 2

                         Standard orientation:
 ---------------------------------------------------------------------
 Center     Atomic      Atomic             Coordinates (Angstroms)
 Number     Number       Type             X           Y           Z
 ---------------------------------------------------------------------
      1          1           0        0.000000    0.000000    1.560000
      2          1           0        0.000000    0.000000    0.820000
      3          1           0        0.000000    0.000000   -0.820000
      4          1           0        0.000000    0.000000   -1.560000
 ---------------------------------------------------------------------

 SCF Done:  E(ROHF) =  -2.10048217913     A.U. after   12 cycles
 E2 =    -0.7959452548D-01 EUMP2 =    -0.21800767046134D+01
 CCSD(T)
 CCSD(T)= -0.21973937635D+01

 The electronic state is 2-SGG.
 Alpha  occ. eigenvalues --   -0.39784  -0.31393   0.15186
 Alpha virt. eigenvalues --    0.37379   0.52123   0.71342   0.78023   0.88282
 Alpha virt. eigenvalues --    0.88282   0.92315   0.97722   0.97722   1.24983
 Alpha virt. eigenvalues --    1.24983   1.31939   1.57434   1.57434   1.68916

 Mulliken charges and spin densities:
               1          2
     1  H   -0.372451   0.284282
     2  H   -0.127549   0.215718
     3  H   -0.127549   0.215718
     4  H   -0.372451   0.284282
 Sum of Mulliken charges =  -1.00000   1.00000

 Dipole moment (field-independent basis, Debye):
    X=             -0.0000    Y=              0.0000    Z=              0.0000  Tot=              0.0000
 Quadrupole moment (field-independent basis, Debye-Ang):
   XX=             -7.4290   YY=             -7.4290   ZZ=            -24.2794
   XY=              0.0000   XZ=              0.0000   YZ=             -0.0000

 P4SDQ=-2.1957311\CCSD=-2.1962037\CCSD(T)=-2.1973938\RMSD=1.339e-09\PG=
 Normal termination of Gaussian 16 at Tue Feb 13 12:18:37 2024.
