 Gaussian 16, Revision A.03,
 Gaussian 16:  ES64L-G16RevA.03 25-Dec-2016

 --------------------
 #p ROCCSD(T)/cc-pVTZ
 --------------------

 ---------
 H2_H2_279
 ---------
 Symbolic Z-matrix:
 Charge = -1 Multiplicity = 2

                         Standard orientation:
 ---------------------------------------------------------------------
 Center     Atomic      Atomic             Coordinates (Angstroms)
 Number     Number       Type             X           Y           Z
 ---------------------------------------------------------------------
      1          1           0        0.000000    0.000000    3.100000
      2          1           0        0.000000    0.000000    2.360000
      3          1           0        0.000000    0.000000   -2.360000
      4          1           0        0.000000    0.000000   -3.100000
 ---------------------------------------------------------------------

 SCF Done:  E(ROHF) =  -2.11880258514     A.U. after   10 cycles
 E2 =    -0.7140065466D-01 EUMP2 =    -0.21902032398023D+01
 CCSD(T)
 CCSD(T)= -0.22067536214D+01

 The electronic state is 2-SGG.
 Alpha  occ. eigenvalues --   -0.40433  -0.40227   0.14467
 Alpha virt. eigenvalues --    0.28923   0.45781   0.48395   0.80429   0.85615
 Alpha virt. eigenvalues --    0.88620   0.88620   0.88629   0.88629   1.28479
 Alpha virt. eigenvalues --    1.28508   1.30781   1.30781   1.30861   1.30861

 Mulliken charges and spin densities:
               1          2
     1  H   -0.233870   0.169011
     2  H   -0.266130   0.330989
     3  H   -0.266130   0.330989
     4  H   -0.233870   0.169011
 Sum of Mulliken charges =  -1.00000   1.00000

 Dipole moment (field-independent basis, Debye):
    X=             -0.0000    Y=             -0.0000    Z=             -0.0000  Tot=              0.0000
 Quadrupole moment (field-independent basis, Debye-Ang):
   XX=             -7.7463   YY=             -7.7463   ZZ=            -45.2076
   XY=              0.0000   XZ=              0.0000   YZ=             -0.0000

 MP4SDQ=-2.2053023\CCSD=-2.206167\CCSD(T)=-2.2067536\RMSD=1.403e-09\PG=
 Normal termination of Gaussian 16 at Tue Feb 13 12:33:17 2024.
