 Gaussian 16, Revision A.03,
 Gaussian 16:  ES64L-G16RevA.03 25-Dec-2016

 --------------------
 #p ROCCSD(T)/cc-pVTZ
 --------------------

 ---------
 H2_H2_159
 ---------
 Symbolic Z-matrix:
 Charge = -1 Multiplicity = 2

                         Standard orientation:
 ---------------------------------------------------------------------
 Center     Atomic      Atomic             Coordinates (Angstroms)
 Number     Number       Type             X           Y           Z
 ---------------------------------------------------------------------
      1          1           0        0.000000    0.000000    2.300000
      2          1           0        0.000000    0.000000    1.560000
      3          1           0        0.000000    0.000000   -1.560000
      4          1           0        0.000000    0.000000   -2.300000
 ---------------------------------------------------------------------

 SCF Done:  E(ROHF) =  -2.13216018143     A.U. after   10 cycles
 E2 =    -0.7139427308D-01 EUMP2 =    -0.22035544545106D+01
 CCSD(T)
 CCSD(T)= -0.22202564268D+01

 The electronic state is 2-SGG.
 Alpha  occ. eigenvalues --   -0.37934  -0.36959   0.12756
 Alpha virt. eigenvalues --    0.35479   0.46993   0.57172   0.87868   0.88983
 Alpha virt. eigenvalues --    0.91401   0.91401   0.91650   0.91650   1.31308
 Alpha virt. eigenvalues --    1.33059   1.33059   1.33351   1.34650   1.34650

 Mulliken charges and spin densities:
               1          2
     1  H   -0.228122   0.075989
     2  H   -0.271878   0.424011
     3  H   -0.271878   0.424011
     4  H   -0.228122   0.075989
 Sum of Mulliken charges =  -1.00000   1.00000

 Dipole moment (field-independent basis, Debye):
    X=             -0.0000    Y=             -0.0000    Z=             -0.0000  Tot=              0.0000
 Quadrupole moment (field-independent basis, Debye-Ang):
   XX=             -7.6474   YY=             -7.6474   ZZ=            -25.3910
   XY=              0.0000   XZ=              0.0000   YZ=             -0.0000

 MP4SDQ=-2.2187387\CCSD=-2.2196749\CCSD(T)=-2.2202564\RMSD=5.399e-09\PG
 Normal termination of Gaussian 16 at Tue Feb 13 12:25:39 2024.
