 Gaussian 16, Revision A.03,
 Gaussian 16:  ES64L-G16RevA.03 25-Dec-2016

 --------------------
 #p ROCCSD(T)/cc-pVTZ
 --------------------

 --------
 H2_H2_77
 --------
 Symbolic Z-matrix:
 Charge = -1 Multiplicity = 2

                         Standard orientation:
 ---------------------------------------------------------------------
 Center     Atomic      Atomic             Coordinates (Angstroms)
 Number     Number       Type             X           Y           Z
 ---------------------------------------------------------------------
      1          1           0       -0.278917   -1.278458    0.000000
      2          1           0        0.442725   -1.114650    0.000000
      3          1           0       -0.000000    0.835733    0.000000
      4          1           0       -0.163808    1.557375    0.000000
 ---------------------------------------------------------------------

 SCF Done:  E(ROHF) =  -2.10766282074     A.U. after   15 cycles
 E2 =    -0.7335826741D-01 EUMP2 =    -0.21810210881501D+01
 CCSD(T)
 CCSD(T)= -0.21979165773D+01

 The electronic state is 2-A'.
 Alpha  occ. eigenvalues --   -0.40611  -0.31628   0.14756
 Alpha virt. eigenvalues --    0.36166   0.51321   0.55400   0.83193   0.86840
 Alpha virt. eigenvalues --    0.87472   0.91424   0.97160   1.03261   1.23273
 Alpha virt. eigenvalues --    1.32615   1.36711   1.39790   1.48349   1.53680

 Mulliken charges and spin densities:
               1          2
     1  H   -0.466835   0.480654
     2  H   -0.466735   0.462181
     3  H    0.135308   0.030486
     4  H   -0.201738   0.026679
 Sum of Mulliken charges =  -1.00000   1.00000

 Dipole moment (field-independent basis, Debye):
    X=             -0.2078    Y=              4.5042    Z=              0.0000  Tot=              4.5090
 Quadrupole moment (field-independent basis, Debye-Ang):
   XX=            -13.1215   YY=            -15.8593   ZZ=             -7.6339
   XY=             -0.9698   XZ=              0.0000   YZ=              0.0000

 DQ=-2.1963077\CCSD=-2.1972237\CCSD(T)=-2.1979166\RMSD=4.324e-09\PG=CS
 Normal termination of Gaussian 16 at Tue Feb 13 12:20:19 2024.
