 Gaussian 16, Revision A.03,
 Gaussian 16:  ES64L-G16RevA.03 25-Dec-2016

 --------------------
 #p ROCCSD(T)/cc-pVTZ
 --------------------

 ---------
 H2_H2_184
 ---------
 Symbolic Z-matrix:
 Charge = -1 Multiplicity = 2

                         Standard orientation:
 ---------------------------------------------------------------------
 Center     Atomic      Atomic             Coordinates (Angstroms)
 Number     Number       Type             X           Y           Z
 ---------------------------------------------------------------------
      1          1           0       -0.211378   -2.321116   -0.000000
      2          1           0        0.269311   -1.758498   -0.000000
      3          1           0        0.000000    1.670943    0.000000
      4          1           0       -0.057933    2.408672    0.000000
 ---------------------------------------------------------------------

 SCF Done:  E(ROHF) =  -2.12704922924     A.U. after   13 cycles
 E2 =    -0.7122631471D-01 EUMP2 =    -0.21982755439507D+01
 CCSD(T)
 CCSD(T)= -0.22149657479D+01

 The electronic state is 2-A'.
 Alpha  occ. eigenvalues --   -0.38475  -0.37789   0.13432
 Alpha virt. eigenvalues --    0.33433   0.46381   0.54205   0.84688   0.86151
 Alpha virt. eigenvalues --    0.90697   0.90734   0.90934   0.93452   1.30066
 Alpha virt. eigenvalues --    1.31796   1.32772   1.33071   1.33357   1.34280

 Mulliken charges and spin densities:
               1          2
     1  H   -0.193187   0.075429
     2  H   -0.306548   0.424115
     3  H   -0.275079   0.400870
     4  H   -0.225186   0.099586
 Sum of Mulliken charges =  -1.00000   1.00000

 Dipole moment (field-independent basis, Debye):
    X=             -0.4222    Y=             -0.0352    Z=              0.0000  Tot=              0.4237
 Quadrupole moment (field-independent basis, Debye-Ang):
   XX=             -8.6059   YY=            -26.8777   ZZ=             -7.6828
   XY=             -0.3420   XZ=              0.0000   YZ=             -0.0000

 \PMP2-0=-2.1982755\MP4SDQ=-2.2134621\CCSD=-2.2143942\CCSD(T)=-2.214965
 Normal termination of Gaussian 16 at Tue Feb 13 12:27:15 2024.
