 Gaussian 16, Revision A.03,
 Gaussian 16:  ES64L-G16RevA.03 25-Dec-2016

 --------------------
 #p ROCCSD(T)/cc-pVTZ
 --------------------

 ---------
 H2_H2_214
 ---------
 Symbolic Z-matrix:
 Charge = -1 Multiplicity = 2

                         Standard orientation:
 ---------------------------------------------------------------------
 Center     Atomic      Atomic             Coordinates (Angstroms)
 Number     Number       Type             X           Y           Z
 ---------------------------------------------------------------------
      1          1           0       -0.216813   -2.518776    0.000000
      2          1           0        0.268568   -1.960202    0.000000
      3          1           0       -0.000000    1.870395   -0.000000
      4          1           0       -0.051755    2.608583   -0.000000
 ---------------------------------------------------------------------

 SCF Done:  E(ROHF) =  -2.12604777615     A.U. after   13 cycles
 E2 =    -0.7103268547D-01 EUMP2 =    -0.21970804616198D+01
 CCSD(T)
 CCSD(T)= -0.22137049017D+01

 The electronic state is 2-A'.
 Alpha  occ. eigenvalues --   -0.39173  -0.38758   0.13631
 Alpha virt. eigenvalues --    0.32000   0.45948   0.51942   0.82674   0.86829
 Alpha virt. eigenvalues --    0.89936   0.89947   0.90003   0.91221   1.29353
 Alpha virt. eigenvalues --    1.30548   1.32103   1.32244   1.32325   1.32783

 Mulliken charges and spin densities:
               1          2
     1  H   -0.192629   0.093344
     2  H   -0.302826   0.402059
     3  H   -0.282478   0.386197
     4  H   -0.222067   0.118400
 Sum of Mulliken charges =  -1.00000   1.00000

 Dipole moment (field-independent basis, Debye):
    X=             -0.3988    Y=             -0.1107    Z=             -0.0000  Tot=              0.4139
 Quadrupole moment (field-independent basis, Debye-Ang):
   XX=             -8.7406   YY=            -30.8267   ZZ=             -7.7249
   XY=             -0.2958   XZ=             -0.0000   YZ=              0.0000

 MP2-0=-2.1970805\MP4SDQ=-2.2122219\CCSD=-2.2131452\CCSD(T)=-2.2137049\
 Normal termination of Gaussian 16 at Tue Feb 13 12:29:11 2024.
