 Gaussian 16, Revision A.03,
 Gaussian 16:  ES64L-G16RevA.03 25-Dec-2016

 --------------------
 #p ROCCSD(T)/cc-pVTZ
 --------------------

 --------
 H2_H2_41
 --------
 Symbolic Z-matrix:
 Charge = -1 Multiplicity = 2

                         Standard orientation:
 ---------------------------------------------------------------------
 Center     Atomic      Atomic             Coordinates (Angstroms)
 Number     Number       Type             X           Y           Z
 ---------------------------------------------------------------------
      1          1           0       -0.238896   -1.069569    0.000000
      2          1           0        0.465541   -0.842924    0.000000
      3          1           0        0.000000    0.604028    0.000000
      4          1           0       -0.226645    1.308466    0.000000
 ---------------------------------------------------------------------

 SCF Done:  E(ROHF) =  -2.09961528867     A.U. after   14 cycles
 E2 =    -0.7651868457D-01 EUMP2 =    -0.21761339732431D+01
 CCSD(T)
 CCSD(T)= -0.21930386120D+01

 The electronic state is 2-A'.
 Alpha  occ. eigenvalues --   -0.42012  -0.28287   0.14059
 Alpha virt. eigenvalues --    0.38280   0.52321   0.57109   0.81581   0.85922
 Alpha virt. eigenvalues --    0.89223   0.92504   1.00580   1.15947   1.27672
 Alpha virt. eigenvalues --    1.34755   1.38590   1.45764   1.63595   1.67557

 Mulliken charges and spin densities:
               1          2
     1  H   -0.520984   0.562239
     2  H   -0.385266   0.370079
     3  H    0.162037   0.021560
     4  H   -0.255787   0.046122
 Sum of Mulliken charges =  -1.00000   1.00000

 Dipole moment (field-independent basis, Debye):
    X=              0.1042    Y=              3.2049    Z=              0.0000  Tot=              3.2066
 Quadrupole moment (field-independent basis, Debye-Ang):
   XX=            -12.7266   YY=            -14.0889   ZZ=             -7.5282
   XY=             -1.1302   XZ=              0.0000   YZ=              0.0000

 DQ=-2.1913472\CCSD=-2.1920735\CCSD(T)=-2.1930386\RMSD=1.558e-09\PG=CS
 Normal termination of Gaussian 16 at Tue Feb 13 12:18:09 2024.
