 Gaussian 16, Revision A.03,
 Gaussian 16:  ES64L-G16RevA.03 25-Dec-2016

 --------------------
 #p ROCCSD(T)/cc-pVTZ
 --------------------

 ---------
 H2_H2_179
 ---------
 Symbolic Z-matrix:
 Charge = -1 Multiplicity = 2

                         Standard orientation:
 ---------------------------------------------------------------------
 Center     Atomic      Atomic             Coordinates (Angstroms)
 Number     Number       Type             X           Y           Z
 ---------------------------------------------------------------------
      1          1           0       -0.321760   -1.919042    0.000000
      2          1           0        0.412639   -1.828163    0.000000
      3          1           0       -0.000000    1.506403    0.000000
      4          1           0       -0.090879    2.240801    0.000000
 ---------------------------------------------------------------------

 SCF Done:  E(ROHF) =  -2.10722930034     A.U. after   23 cycles
 E2 =    -0.7209091504D-01 EUMP2 =    -0.21793202153757D+01
 CCSD(T)
 CCSD(T)= -0.21963483594D+01

 The electronic state is 2-A'.
 Alpha  occ. eigenvalues --   -0.40818  -0.35576   0.15517
 Alpha virt. eigenvalues --    0.31222   0.45752   0.54409   0.81491   0.85719
 Alpha virt. eigenvalues --    0.88020   0.88621   0.93536   0.98422   1.27836
 Alpha virt. eigenvalues --    1.30488   1.30564   1.34173   1.35233   1.35686

 Mulliken charges and spin densities:
               1          2
     1  H   -0.188189   0.141775
     2  H   -0.475431   0.521587
     3  H   -0.125673   0.220611
     4  H   -0.210707   0.116027
 Sum of Mulliken charges =  -1.00000   1.00000

 Dipole moment (field-independent basis, Debye):
    X=             -0.9234    Y=              2.8134    Z=              0.0000  Tot=              2.9611
 Quadrupole moment (field-independent basis, Debye-Ang):
   XX=            -11.4212   YY=            -25.7404   ZZ=             -7.6742
   XY=              0.7788   XZ=              0.0000   YZ=              0.0000

 4SDQ=-2.1946722\CCSD=-2.1957008\CCSD(T)=-2.1963484\RMSD=5.503e-09\PG=C
 Normal termination of Gaussian 16 at Tue Feb 13 12:26:54 2024.
