 Gaussian 16, Revision A.03,
 Gaussian 16:  ES64L-G16RevA.03 25-Dec-2016

 --------------------
 #p ROCCSD(T)/cc-pVTZ
 --------------------

 ---------
 H2_H2_108
 ---------
 Symbolic Z-matrix:
 Charge = -1 Multiplicity = 2

                         Standard orientation:
 ---------------------------------------------------------------------
 Center     Atomic      Atomic             Coordinates (Angstroms)
 Number     Number       Type             X           Y           Z
 ---------------------------------------------------------------------
      1          1           0        0.000000    0.000000    1.960000
      2          1           0        0.000000    0.000000    1.220000
      3          1           0        0.000000    0.000000   -1.220000
      4          1           0        0.000000    0.000000   -1.960000
 ---------------------------------------------------------------------

 SCF Done:  E(ROHF) =  -2.12129684292     A.U. after   10 cycles
 E2 =    -0.7403396692D-01 EUMP2 =    -0.21953308098437D+01
 CCSD(T)
 CCSD(T)= -0.22123350766D+01

 The electronic state is 2-SGG.
 Alpha  occ. eigenvalues --   -0.37290  -0.34839   0.13656
 Alpha virt. eigenvalues --    0.36702   0.48692   0.63495   0.86969   0.90770
 Alpha virt. eigenvalues --    0.92068   0.92068   0.93892   0.93892   1.20028
 Alpha virt. eigenvalues --    1.30391   1.30391   1.40162   1.40162   1.45625

 Mulliken charges and spin densities:
               1          2
     1  H   -0.280000   0.113749
     2  H   -0.220000   0.386251
     3  H   -0.220000   0.386251
     4  H   -0.280000   0.113749
 Sum of Mulliken charges =  -1.00000   1.00000

 Dipole moment (field-independent basis, Debye):
    X=             -0.0000    Y=             -0.0000    Z=             -0.0000  Tot=              0.0000
 Quadrupole moment (field-independent basis, Debye-Ang):
   XX=             -7.5687   YY=             -7.5687   ZZ=            -23.2508
   XY=             -0.0000   XZ=              0.0000   YZ=              0.0000

 MP4SDQ=-2.2107775\CCSD=-2.2115804\CCSD(T)=-2.2123351\RMSD=8.935e-09\PG
 Normal termination of Gaussian 16 at Tue Feb 13 12:22:20 2024.
