 Gaussian 16, Revision A.03,
 Gaussian 16:  ES64L-G16RevA.03 25-Dec-2016

 --------------------
 #p ROCCSD(T)/cc-pVTZ
 --------------------

 ---------
 H2_H2_147
 ---------
 Symbolic Z-matrix:
 Charge = -1 Multiplicity = 2

                         Standard orientation:
 ---------------------------------------------------------------------
 Center     Atomic      Atomic             Coordinates (Angstroms)
 Number     Number       Type             X           Y           Z
 ---------------------------------------------------------------------
      1          1           0        0.000000    0.000000    2.220000
      2          1           0        0.000000    0.000000    1.480000
      3          1           0        0.000000    0.000000   -1.480000
      4          1           0        0.000000    0.000000   -2.220000
 ---------------------------------------------------------------------

 SCF Done:  E(ROHF) =  -2.13037483922     A.U. after   10 cycles
 E2 =    -0.7181680558D-01 EUMP2 =    -0.22021916447962D+01
 CCSD(T)
 CCSD(T)= -0.22189510639D+01

 The electronic state is 2-SGG.
 Alpha  occ. eigenvalues --   -0.37679  -0.36482   0.12884
 Alpha virt. eigenvalues --    0.35865   0.47334   0.58548   0.88339   0.89349
 Alpha virt. eigenvalues --    0.91709   0.91709   0.92118   0.92118   1.29622
 Alpha virt. eigenvalues --    1.32926   1.32926   1.35481   1.35481   1.35508

 Mulliken charges and spin densities:
               1          2
     1  H   -0.238069   0.078997
     2  H   -0.261931   0.421003
     3  H   -0.261931   0.421003
     4  H   -0.238069   0.078997
 Sum of Mulliken charges =  -1.00000   1.00000

 Dipole moment (field-independent basis, Debye):
    X=             -0.0000    Y=             -0.0000    Z=              0.0000  Tot=              0.0000
 Quadrupole moment (field-independent basis, Debye-Ang):
   XX=             -7.6262   YY=             -7.6262   ZZ=            -24.5691
   XY=              0.0000   XZ=              0.0000   YZ=             -0.0000

 P4SDQ=-2.2174229\CCSD=-2.2183424\CCSD(T)=-2.2189511\RMSD=5.118e-09\PG=
 Normal termination of Gaussian 16 at Tue Feb 13 12:24:54 2024.
