 Gaussian 16, Revision A.03,
 Gaussian 16:  ES64L-G16RevA.03 25-Dec-2016

 --------------------
 #p ROCCSD(T)/cc-pVTZ
 --------------------

 ---------
 H2_H2_166
 ---------
 Symbolic Z-matrix:
 Charge = -1 Multiplicity = 2

                         Standard orientation:
 ---------------------------------------------------------------------
 Center     Atomic      Atomic             Coordinates (Angstroms)
 Number     Number       Type             X           Y           Z
 ---------------------------------------------------------------------
      1          1           0       -0.207436   -2.202782   -0.000000
      2          1           0        0.269836   -1.637263   -0.000000
      3          1           0       -0.000000    1.551340    0.000000
      4          1           0       -0.062400    2.288705    0.000000
 ---------------------------------------------------------------------

 SCF Done:  E(ROHF) =  -2.12594354371     A.U. after   13 cycles
 E2 =    -0.7157976373D-01 EUMP2 =    -0.21975233074410D+01
 CCSD(T)
 CCSD(T)= -0.22142746933D+01

 The electronic state is 2-A'.
 Alpha  occ. eigenvalues --   -0.38081  -0.37115   0.13477
 Alpha virt. eigenvalues --    0.34142   0.46791   0.55648   0.84830   0.86682
 Alpha virt. eigenvalues --    0.91139   0.91230   0.91596   0.95006   1.30722
 Alpha virt. eigenvalues --    1.31637   1.32993   1.33627   1.34194   1.35938

 Mulliken charges and spin densities:
               1          2
     1  H   -0.200489   0.074656
     2  H   -0.306205   0.431699
     3  H   -0.261228   0.399155
     4  H   -0.232078   0.094490
 Sum of Mulliken charges =  -1.00000   1.00000

 Dipole moment (field-independent basis, Debye):
    X=             -0.4144    Y=              0.0734    Z=              0.0000  Tot=              0.4209
 Quadrupole moment (field-independent basis, Debye-Ang):
   XX=             -8.5416   YY=            -25.1600   ZZ=             -7.6515
   XY=             -0.4158   XZ=              0.0000   YZ=             -0.0000

 \PMP2-0=-2.1975233\MP4SDQ=-2.2127579\CCSD=-2.2136803\CCSD(T)=-2.214274
 Normal termination of Gaussian 16 at Tue Feb 13 12:26:05 2024.
