 Gaussian 16, Revision A.03,
 Gaussian 16:  ES64L-G16RevA.03 25-Dec-2016

 --------------------
 #p ROCCSD(T)/cc-pVTZ
 --------------------

 ---------
 H2_H2_228
 ---------
 Symbolic Z-matrix:
 Charge = -1 Multiplicity = 2

                         Standard orientation:
 ---------------------------------------------------------------------
 Center     Atomic      Atomic             Coordinates (Angstroms)
 Number     Number       Type             X           Y           Z
 ---------------------------------------------------------------------
      1          1           0        0.000000    0.000000    2.760000
      2          1           0        0.000000    0.000000    2.020000
      3          1           0        0.000000    0.000000   -2.020000
      4          1           0        0.000000    0.000000   -2.760000
 ---------------------------------------------------------------------

 SCF Done:  E(ROHF) =  -2.13012888358     A.U. after   10 cycles
 E2 =    -0.7076767032D-01 EUMP2 =    -0.22008965539071D+01
 CCSD(T)
 CCSD(T)= -0.22174476829D+01

 The electronic state is 2-SGG.
 Alpha  occ. eigenvalues --   -0.39581  -0.39223   0.13233
 Alpha virt. eigenvalues --    0.32048   0.45851   0.50992   0.81553   0.88814
 Alpha virt. eigenvalues --    0.89514   0.89514   0.89537   0.89537   1.29071
 Alpha virt. eigenvalues --    1.30177   1.31771   1.31771   1.31929   1.31929

 Mulliken charges and spin densities:
               1          2
     1  H   -0.212550   0.112550
     2  H   -0.287450   0.387450
     3  H   -0.287450   0.387450
     4  H   -0.212550   0.112550
 Sum of Mulliken charges =  -1.00000   1.00000

 Dipole moment (field-independent basis, Debye):
    X=             -0.0000    Y=             -0.0000    Z=             -0.0000  Tot=              0.0000
 Quadrupole moment (field-independent basis, Debye-Ang):
   XX=             -7.7505   YY=             -7.7505   ZZ=            -34.4566
   XY=              0.0000   XZ=              0.0000   YZ=             -0.0000

 MP4SDQ=-2.2159791\CCSD=-2.2169058\CCSD(T)=-2.2174477\RMSD=4.169e-09\PG
 Normal termination of Gaussian 16 at Tue Feb 13 12:30:06 2024.
