 Gaussian 16, Revision A.03,
 Gaussian 16:  ES64L-G16RevA.03 25-Dec-2016

 --------------------
 #p ROCCSD(T)/cc-pVTZ
 --------------------

 --------
 H2_H2_10
 --------
 Symbolic Z-matrix:
 Charge = -1 Multiplicity = 2

                         Standard orientation:
 ---------------------------------------------------------------------
 Center     Atomic      Atomic             Coordinates (Angstroms)
 Number     Number       Type             X           Y           Z
 ---------------------------------------------------------------------
      1          1           0       -0.095146   -1.199475    0.000000
      2          1           0        0.280430   -0.561868    0.000000
      3          1           0        0.000000    0.522457   -0.000000
      4          1           0       -0.185284    1.238886   -0.000000
 ---------------------------------------------------------------------

 SCF Done:  E(ROHF) =  -2.07666585491     A.U. after   15 cycles
 E2 =    -0.8202468238D-01 EUMP2 =    -0.21586905372982D+01
 CCSD(T)
 CCSD(T)= -0.21760714225D+01

 The electronic state is 2-A'.
 Alpha  occ. eigenvalues --   -0.46219  -0.25701   0.14433
 Alpha virt. eigenvalues --    0.39327   0.53403   0.59438   0.75568   0.84800
 Alpha virt. eigenvalues --    0.92481   1.00290   1.02413   1.12704   1.30321
 Alpha virt. eigenvalues --    1.32387   1.53341   1.63944   1.67454   1.79403

 Mulliken charges and spin densities:
               1          2
     1  H   -0.677588   0.752881
     2  H   -0.022103  -0.027527
     3  H    0.082615   0.058608
     4  H   -0.382924   0.216038
 Sum of Mulliken charges =  -1.00000   1.00000

 Dipole moment (field-independent basis, Debye):
    X=              1.0519    Y=              2.1845    Z=             -0.0000  Tot=              2.4246
 Quadrupole moment (field-independent basis, Debye-Ang):
   XX=             -9.1029   YY=            -20.4207   ZZ=             -7.3839
   XY=             -0.9542   XZ=             -0.0000   YZ=              0.0000

 P2-0=-2.1586905\MP4SDQ=-2.1739323\CCSD=-2.1746029\CCSD(T)=-2.1760714\R
 Normal termination of Gaussian 16 at Tue Feb 13 12:16:17 2024.
