 Gaussian 16, Revision A.03,
 Gaussian 16:  ES64L-G16RevA.03 25-Dec-2016

 --------------------
 #p ROCCSD(T)/cc-pVTZ
 --------------------

 ---------
 H2_H2_297
 ---------
 Symbolic Z-matrix:
 Charge = -1 Multiplicity = 2

                         Standard orientation:
 ---------------------------------------------------------------------
 Center     Atomic      Atomic             Coordinates (Angstroms)
 Number     Number       Type             X           Y           Z
 ---------------------------------------------------------------------
      1          1           0        0.000000    0.000000    3.220000
      2          1           0        0.000000    0.000000    2.480000
      3          1           0        0.000000    0.000000   -2.480000
      4          1           0        0.000000    0.000000   -3.220000
 ---------------------------------------------------------------------

 SCF Done:  E(ROHF) =  -2.11477979762     A.U. after   10 cycles
 E2 =    -0.7165178394D-01 EUMP2 =    -0.21864315815570D+01
 CCSD(T)
 CCSD(T)= -0.22029839399D+01

 The electronic state is 2-SGG.
 Alpha  occ. eigenvalues --   -0.40646  -0.40472   0.14885
 Alpha virt. eigenvalues --    0.27945   0.45809   0.47798   0.80459   0.84595
 Alpha virt. eigenvalues --    0.88404   0.88404   0.88411   0.88411   1.28132
 Alpha virt. eigenvalues --    1.28279   1.30528   1.30528   1.30597   1.30597

 Mulliken charges and spin densities:
               1          2
     1  H   -0.242061   0.186756
     2  H   -0.257939   0.313244
     3  H   -0.257939   0.313244
     4  H   -0.242061   0.186756
 Sum of Mulliken charges =  -1.00000   1.00000

 Dipole moment (field-independent basis, Debye):
    X=             -0.0000    Y=              0.0000    Z=             -0.0000  Tot=              0.0000
 Quadrupole moment (field-independent basis, Debye-Ang):
   XX=             -7.7332   YY=             -7.7332   ZZ=            -49.3698
   XY=              0.0000   XZ=              0.0000   YZ=             -0.0000

 P4SDQ=-2.2015361\CCSD=-2.2023797\CCSD(T)=-2.2029839\RMSD=1.063e-09\PG=
 Normal termination of Gaussian 16 at Tue Feb 13 12:34:24 2024.
