 Gaussian 16, Revision A.03,
 Gaussian 16:  ES64L-G16RevA.03 25-Dec-2016

 --------------------
 #p ROCCSD(T)/cc-pVTZ
 --------------------

 ---------
 H2_H2_193
 ---------
 Symbolic Z-matrix:
 Charge = -1 Multiplicity = 2

                         Standard orientation:
 ---------------------------------------------------------------------
 Center     Atomic      Atomic             Coordinates (Angstroms)
 Number     Number       Type             X           Y           Z
 ---------------------------------------------------------------------
      1          1           0       -0.213141   -2.380363   -0.000000
      2          1           0        0.269072   -1.819051   -0.000000
      3          1           0       -0.000000    1.730765    0.000000
      4          1           0       -0.055931    2.468649    0.000000
 ---------------------------------------------------------------------

 SCF Done:  E(ROHF) =  -2.12712158183     A.U. after   13 cycles
 E2 =    -0.7112093499D-01 EUMP2 =    -0.21982425168229D+01
 CCSD(T)
 CCSD(T)= -0.22149083973D+01

 The electronic state is 2-A'.
 Alpha  occ. eigenvalues --   -0.38685  -0.38101   0.13456
 Alpha virt. eigenvalues --    0.33033   0.46219   0.53497   0.84059   0.86422
 Alpha virt. eigenvalues --    0.90465   0.90490   0.90631   0.92726   1.29779
 Alpha virt. eigenvalues --    1.31498   1.32592   1.32816   1.33010   1.33752

 Mulliken charges and spin densities:
               1          2
     1  H   -0.191565   0.078873
     2  H   -0.306140   0.418697
     3  H   -0.279162   0.398456
     4  H   -0.223133   0.103975
 Sum of Mulliken charges =  -1.00000   1.00000

 Dipole moment (field-independent basis, Debye):
    X=             -0.4200    Y=             -0.0694    Z=             -0.0000  Tot=              0.4257
 Quadrupole moment (field-independent basis, Debye-Ang):
   XX=             -8.6448   YY=            -27.9199   ZZ=             -7.6974
   XY=             -0.3177   XZ=             -0.0000   YZ=             -0.0000

 2-0=-2.1982425\MP4SDQ=-2.2134113\CCSD=-2.2143435\CCSD(T)=-2.2149084\RM
 Normal termination of Gaussian 16 at Tue Feb 13 12:27:49 2024.
