 Gaussian 16, Revision A.03,
 Gaussian 16:  ES64L-G16RevA.03 25-Dec-2016

 --------------------
 #p ROCCSD(T)/cc-pVTZ
 --------------------

 --------
 H2_H2_38
 --------
 Symbolic Z-matrix:
 Charge = -1 Multiplicity = 2

                         Standard orientation:
 ---------------------------------------------------------------------
 Center     Atomic      Atomic             Coordinates (Angstroms)
 Number     Number       Type             X           Y           Z
 ---------------------------------------------------------------------
      1          1           0       -0.234009   -1.053038    0.000000
      2          1           0        0.468017   -0.819030    0.000000
      3          1           0       -0.000000    0.585021    0.000000
      4          1           0       -0.234009    1.287047    0.000000
 ---------------------------------------------------------------------

 SCF Done:  E(ROHF) =  -2.09803097207     A.U. after   14 cycles
 E2 =    -0.7690235588D-01 EUMP2 =    -0.21749333279485D+01
 CCSD(T)
 CCSD(T)= -0.21918325862D+01

 The electronic state is 2-A'.
 Alpha  occ. eigenvalues --   -0.42357  -0.27810   0.13975
 Alpha virt. eigenvalues --    0.38467   0.52259   0.57400   0.81546   0.85749
 Alpha virt. eigenvalues --    0.89402   0.92812   1.01053   1.17176   1.28270
 Alpha virt. eigenvalues --    1.34826   1.38729   1.46589   1.64958   1.68780

 Mulliken charges and spin densities:
               1          2
     1  H   -0.526317   0.571081
     2  H   -0.375188   0.359196
     3  H    0.162266   0.020879
     4  H   -0.260761   0.048844
 Sum of Mulliken charges =  -1.00000   1.00000

 Dipole moment (field-independent basis, Debye):
    X=              0.1415    Y=              3.0853    Z=              0.0000  Tot=              3.0885
 Quadrupole moment (field-independent basis, Debye-Ang):
   XX=            -12.6726   YY=            -13.9949   ZZ=             -7.5141
   XY=             -1.1352   XZ=              0.0000   YZ=              0.0000

 DQ=-2.1901292\CCSD=-2.1908352\CCSD(T)=-2.1918326\RMSD=1.362e-09\PG=CS
 Normal termination of Gaussian 16 at Tue Feb 13 12:17:58 2024.
