 Gaussian 16, Revision A.03,
 Gaussian 16:  ES64L-G16RevA.03 25-Dec-2016

 --------------------
 #p ROCCSD(T)/cc-pVTZ
 --------------------

 --------
 H2_H2_45
 --------
 Symbolic Z-matrix:
 Charge = -1 Multiplicity = 2

                         Standard orientation:
 ---------------------------------------------------------------------
 Center     Atomic      Atomic             Coordinates (Angstroms)
 Number     Number       Type             X           Y           Z
 ---------------------------------------------------------------------
      1          1           0        0.000000    0.000000    1.540000
      2          1           0        0.000000    0.000000    0.800000
      3          1           0        0.000000    0.000000   -0.800000
      4          1           0        0.000000    0.000000   -1.540000
 ---------------------------------------------------------------------

 SCF Done:  E(ROHF) =  -2.09917361612     A.U. after   12 cycles
 E2 =    -0.7991673631D-01 EUMP2 =    -0.21790903524336D+01
 CCSD(T)
 CCSD(T)= -0.21964115643D+01

 The electronic state is 2-SGG.
 Alpha  occ. eigenvalues --   -0.40084  -0.31137   0.15235
 Alpha virt. eigenvalues --    0.37434   0.52355   0.71683   0.77488   0.87993
 Alpha virt. eigenvalues --    0.87993   0.92939   0.97962   0.97962   1.25068
 Alpha virt. eigenvalues --    1.25068   1.33036   1.58690   1.58690   1.70385

 Mulliken charges and spin densities:
               1          2
     1  H   -0.380038   0.298217
     2  H   -0.119962   0.201783
     3  H   -0.119962   0.201783
     4  H   -0.380038   0.298217
 Sum of Mulliken charges =  -1.00000   1.00000

 Dipole moment (field-independent basis, Debye):
    X=             -0.0000    Y=              0.0000    Z=              0.0000  Tot=              0.0000
 Quadrupole moment (field-independent basis, Debye-Ang):
   XX=             -7.4212   YY=             -7.4212   ZZ=            -24.3510
   XY=              0.0000   XZ=              0.0000   YZ=             -0.0000

 4SDQ=-2.1947367\CCSD=-2.195193\CCSD(T)=-2.1964116\RMSD=1.375e-09\PG=D*
 Normal termination of Gaussian 16 at Tue Feb 13 12:18:26 2024.
