 Gaussian 16, Revision A.03,
 Gaussian 16:  ES64L-G16RevA.03 25-Dec-2016

 --------------------
 #p ROCCSD(T)/cc-pVTZ
 --------------------

 --------
 H2_H2_64
 --------
 Symbolic Z-matrix:
 Charge = -1 Multiplicity = 2

                         Standard orientation:
 ---------------------------------------------------------------------
 Center     Atomic      Atomic             Coordinates (Angstroms)
 Number     Number       Type             X           Y           Z
 ---------------------------------------------------------------------
      1          1           0       -0.164332   -1.539268   -0.000000
      2          1           0        0.274883   -0.943710   -0.000000
      3          1           0       -0.000000    0.875641    0.000000
      4          1           0       -0.110551    1.607337    0.000000
 ---------------------------------------------------------------------

 SCF Done:  E(ROHF) =  -2.10537851529     A.U. after   15 cycles
 E2 =    -0.7673988162D-01 EUMP2 =    -0.21821183969065D+01
 CCSD(T)
 CCSD(T)= -0.21994908318D+01

 The electronic state is 2-A'.
 Alpha  occ. eigenvalues --   -0.39245  -0.32204   0.14985
 Alpha virt. eigenvalues --    0.36671   0.51365   0.60136   0.80882   0.87651
 Alpha virt. eigenvalues --    0.88929   0.92763   0.96838   1.02515   1.24097
 Alpha virt. eigenvalues --    1.26620   1.32294   1.46202   1.49409   1.67015

 Mulliken charges and spin densities:
               1          2
     1  H   -0.416275   0.377279
     2  H   -0.287695   0.334323
     3  H   -0.015737   0.165597
     4  H   -0.280293   0.122802
 Sum of Mulliken charges =  -1.00000   1.00000

 Dipole moment (field-independent basis, Debye):
    X=              0.1002    Y=              2.2937    Z=              0.0000  Tot=              2.2959
 Quadrupole moment (field-independent basis, Debye-Ang):
   XX=             -8.9760   YY=            -21.8445   ZZ=             -7.5295
   XY=             -1.4193   XZ=             -0.0000   YZ=             -0.0000

 PMP2-0=-2.1821184\MP4SDQ=-2.1976976\CCSD=-2.1985005\CCSD(T)=-2.1994908
 Normal termination of Gaussian 16 at Tue Feb 13 12:19:33 2024.
