 Gaussian 16, Revision A.03,
 Gaussian 16:  ES64L-G16RevA.03 25-Dec-2016

 --------------------
 #p ROCCSD(T)/cc-pVTZ
 --------------------

 ---------
 H2_H2_127
 ---------
 Symbolic Z-matrix:
 Charge = -1 Multiplicity = 2

                         Standard orientation:
 ---------------------------------------------------------------------
 Center     Atomic      Atomic             Coordinates (Angstroms)
 Number     Number       Type             X           Y           Z
 ---------------------------------------------------------------------
      1          1           0       -0.196356   -1.947318   -0.000000
      2          1           0        0.271255   -1.373785   -0.000000
      3          1           0       -0.000000    1.292452    0.000000
      4          1           0       -0.074899    2.028652    0.000000
 ---------------------------------------------------------------------

 SCF Done:  E(ROHF) =  -2.11993172079     A.U. after   13 cycles
 E2 =    -0.7307727419D-01 EUMP2 =    -0.21930089949779D+01
 CCSD(T)
 CCSD(T)= -0.22099430570D+01

 The electronic state is 2-A'.
 Alpha  occ. eigenvalues --   -0.37607  -0.35481   0.13950
 Alpha virt. eigenvalues --    0.35287   0.48051   0.58514   0.83528   0.89517
 Alpha virt. eigenvalues --    0.91685   0.92274   0.93272   0.97961   1.24556
 Alpha virt. eigenvalues --    1.31298   1.32042   1.35997   1.37212   1.43813

 Mulliken charges and spin densities:
               1          2
     1  H   -0.238521   0.111566
     2  H   -0.306174   0.432618
     3  H   -0.200263   0.356352
     4  H   -0.255042   0.099464
 Sum of Mulliken charges =  -1.00000   1.00000

 Dipole moment (field-independent basis, Debye):
    X=             -0.3430    Y=              0.5863    Z=              0.0000  Tot=              0.6793
 Quadrupole moment (field-independent basis, Debye-Ang):
   XX=             -8.5301   YY=            -22.9566   ZZ=             -7.5967
   XY=             -0.6915   XZ=              0.0000   YZ=             -0.0000

 PMP2-0=-2.193009\MP4SDQ=-2.2084013\CCSD=-2.209251\CCSD(T)=-2.2099431\R
 Normal termination of Gaussian 16 at Tue Feb 13 12:23:36 2024.
