 Gaussian 16, Revision A.03,
 Gaussian 16:  ES64L-G16RevA.03 25-Dec-2016

 --------------------
 #p ROCCSD(T)/cc-pVTZ
 --------------------

 --------
 H2_H2_16
 --------
 Symbolic Z-matrix:
 Charge = -1 Multiplicity = 2

                         Standard orientation:
 ---------------------------------------------------------------------
 Center     Atomic      Atomic             Coordinates (Angstroms)
 Number     Number       Type             X           Y           Z
 ---------------------------------------------------------------------
      1          1           0       -0.107211   -1.236484   -0.000000
      2          1           0        0.279682   -0.605680   -0.000000
      3          1           0       -0.000000    0.561272    0.000000
      4          1           0       -0.172471    1.280893    0.000000
 ---------------------------------------------------------------------

 SCF Done:  E(ROHF) =  -2.08291901892     A.U. after   15 cycles
 E2 =    -0.8111456606D-01 EUMP2 =    -0.21640335849801D+01
 CCSD(T)
 CCSD(T)= -0.21814756835D+01

 The electronic state is 2-A'.
 Alpha  occ. eigenvalues --   -0.44840  -0.26800   0.14627
 Alpha virt. eigenvalues --    0.38922   0.53636   0.59334   0.75891   0.85178
 Alpha virt. eigenvalues --    0.92133   0.98857   1.01592   1.10986   1.29209
 Alpha virt. eigenvalues --    1.31094   1.51031   1.61467   1.65377   1.80268

 Mulliken charges and spin densities:
               1          2
     1  H   -0.647692   0.713485
     2  H   -0.077888   0.035065
     3  H    0.081676   0.056571
     4  H   -0.356096   0.194880
 Sum of Mulliken charges =  -1.00000   1.00000

 Dipole moment (field-independent basis, Debye):
    X=              0.9198    Y=              2.3466    Z=              0.0000  Tot=              2.5205
 Quadrupole moment (field-independent basis, Debye-Ang):
   XX=             -9.1295   YY=            -20.6009   ZZ=             -7.3992
   XY=             -1.1368   XZ=              0.0000   YZ=             -0.0000

 P2-0=-2.1640336\MP4SDQ=-2.1793522\CCSD=-2.1800779\CCSD(T)=-2.1814757\R
 Normal termination of Gaussian 16 at Tue Feb 13 12:16:38 2024.
