 Gaussian 16, Revision A.03,
 Gaussian 16:  ES64L-G16RevA.03 25-Dec-2016

 --------------------
 #p ROCCSD(T)/cc-pVTZ
 --------------------

 -------
 H2_H2_6
 -------
 Symbolic Z-matrix:
 Charge = -1 Multiplicity = 2

                         Standard orientation:
 ---------------------------------------------------------------------
 Center     Atomic      Atomic             Coordinates (Angstroms)
 Number     Number       Type             X           Y           Z
 ---------------------------------------------------------------------
      1          1           0        0.000000    0.000000    1.280000
      2          1           0        0.000000    0.000000    0.540000
      3          1           0        0.000000    0.000000   -0.540000
      4          1           0        0.000000    0.000000   -1.280000
 ---------------------------------------------------------------------

 SCF Done:  E(ROHF) =  -2.07127309866     A.U. after   12 cycles
 E2 =    -0.8486796793D-01 EUMP2 =    -0.21561410665972D+01
 CCSD(T)
 CCSD(T)= -0.21732713428D+01

 The electronic state is 2-SGG.
 Alpha  occ. eigenvalues --   -0.46939  -0.26158   0.15070
 Alpha virt. eigenvalues --    0.39039   0.55432   0.73156   0.73188   0.84754
 Alpha virt. eigenvalues --    0.84754   1.01658   1.01658   1.05179   1.31322
 Alpha virt. eigenvalues --    1.31322   1.48956   1.78075   1.78075   1.89061

 Mulliken charges and spin densities:
               1          2
     1  H   -0.561381   0.524620
     2  H    0.061381  -0.024620
     3  H    0.061381  -0.024620
     4  H   -0.561381   0.524620
 Sum of Mulliken charges =  -1.00000   1.00000

 Dipole moment (field-independent basis, Debye):
    X=             -0.0000    Y=              0.0000    Z=             -0.0000  Tot=              0.0000
 Quadrupole moment (field-independent basis, Debye-Ang):
   XX=             -7.3654   YY=             -7.3654   ZZ=            -24.3803
   XY=              0.0000   XZ=              0.0000   YZ=             -0.0000

 4SDQ=-2.1713956\CCSD=-2.1716387\CCSD(T)=-2.1732713\RMSD=2.875e-09\PG=D
 Normal termination of Gaussian 16 at Tue Feb 13 12:16:04 2024.
