 Gaussian 16, Revision A.03,
 Gaussian 16:  ES64L-G16RevA.03 25-Dec-2016

 --------------------
 #p ROCCSD(T)/cc-pVTZ
 --------------------

 --------
 H2_H2_33
 --------
 Symbolic Z-matrix:
 Charge = -1 Multiplicity = 2

                         Standard orientation:
 ---------------------------------------------------------------------
 Center     Atomic      Atomic             Coordinates (Angstroms)
 Number     Number       Type             X           Y           Z
 ---------------------------------------------------------------------
      1          1           0        0.000000    0.000000    1.460000
      2          1           0        0.000000    0.000000    0.720000
      3          1           0        0.000000    0.000000   -0.720000
      4          1           0        0.000000    0.000000   -1.460000
 ---------------------------------------------------------------------

 SCF Done:  E(ROHF) =  -2.09327828031     A.U. after   12 cycles
 E2 =    -0.8126333197D-01 EUMP2 =    -0.21745416122841D+01
 CCSD(T)
 CCSD(T)= -0.21918570883D+01

 The electronic state is 2-SGG.
 Alpha  occ. eigenvalues --   -0.41542  -0.29959   0.15360
 Alpha virt. eigenvalues --    0.37726   0.53322   0.72930   0.75628   0.86877
 Alpha virt. eigenvalues --    0.86877   0.95843   0.98985   0.98985   1.25959
 Alpha virt. eigenvalues --    1.25959   1.37609   1.64096   1.64096   1.76617

 Mulliken charges and spin densities:
               1          2
     1  H   -0.416613   0.359262
     2  H   -0.083387   0.140738
     3  H   -0.083387   0.140738
     4  H   -0.416613   0.359262
 Sum of Mulliken charges =  -1.00000   1.00000

 Dipole moment (field-independent basis, Debye):
    X=             -0.0000    Y=              0.0000    Z=             -0.0000  Tot=              0.0000
 Quadrupole moment (field-independent basis, Debye-Ang):
   XX=             -7.3930   YY=             -7.3930   ZZ=            -24.5589
   XY=              0.0000   XZ=              0.0000   YZ=             -0.0000

 P4SDQ=-2.1901265\CCSD=-2.1905185\CCSD(T)=-2.1918571\RMSD=4.975e-10\PG=
 Normal termination of Gaussian 16 at Tue Feb 13 12:17:40 2024.
