 Gaussian 16, Revision A.03,
 Gaussian 16:  ES64L-G16RevA.03 25-Dec-2016

 --------------------
 #p ROCCSD(T)/cc-pVTZ
 --------------------

 ---------
 H2_H2_119
 ---------
 Symbolic Z-matrix:
 Charge = -1 Multiplicity = 2

                         Standard orientation:
 ---------------------------------------------------------------------
 Center     Atomic      Atomic             Coordinates (Angstroms)
 Number     Number       Type             X           Y           Z
 ---------------------------------------------------------------------
      1          1           0       -0.303192   -1.536986    0.000000
      2          1           0        0.426468   -1.413710    0.000000
      3          1           0        0.000000    1.110518    0.000000
      4          1           0       -0.123276    1.840177    0.000000
 ---------------------------------------------------------------------

 SCF Done:  E(ROHF) =  -2.10781221285     A.U. after   18 cycles
 E2 =    -0.7188071449D-01 EUMP2 =    -0.21796929273320D+01
 CCSD(T)
 CCSD(T)= -0.21966252784D+01

 The electronic state is 2-A'.
 Alpha  occ. eigenvalues --   -0.42062  -0.32370   0.15177
 Alpha virt. eigenvalues --    0.33983   0.47793   0.56220   0.83193   0.85170
 Alpha virt. eigenvalues --    0.86533   0.90604   0.96875   1.01835   1.25953
 Alpha virt. eigenvalues --    1.29711   1.29908   1.38424   1.39477   1.42468

 Mulliken charges and spin densities:
               1          2
     1  H   -0.408587   0.403570
     2  H   -0.515227   0.523555
     3  H    0.078700   0.048573
     4  H   -0.154887   0.024302
 Sum of Mulliken charges =  -1.00000   1.00000

 Dipole moment (field-independent basis, Debye):
    X=             -0.4460    Y=              5.6203    Z=              0.0000  Tot=              5.6380
 Quadrupole moment (field-independent basis, Debye-Ang):
   XX=            -13.1620   YY=            -19.0410   ZZ=             -7.6601
   XY=             -0.6331   XZ=              0.0000   YZ=              0.0000

 4SDQ=-2.1949646\CCSD=-2.196047\CCSD(T)=-2.1966253\RMSD=1.611e-09\PG=CS
 Normal termination of Gaussian 16 at Tue Feb 13 12:23:04 2024.
