 Gaussian 16, Revision A.03,
 Gaussian 16:  ES64L-G16RevA.03 25-Dec-2016

 --------------------
 #p ROCCSD(T)/cc-pVTZ
 --------------------

 ---------
 H2_H2_139
 ---------
 Symbolic Z-matrix:
 Charge = -1 Multiplicity = 2

                         Standard orientation:
 ---------------------------------------------------------------------
 Center     Atomic      Atomic             Coordinates (Angstroms)
 Number     Number       Type             X           Y           Z
 ---------------------------------------------------------------------
      1          1           0       -0.200217   -2.025761    0.000000
      2          1           0        0.270770   -1.454998    0.000000
      3          1           0       -0.000000    1.372065   -0.000000
      4          1           0       -0.070553    2.108694   -0.000000
 ---------------------------------------------------------------------

 SCF Done:  E(ROHF) =  -2.12219434136     A.U. after   12 cycles
 E2 =    -0.7250901212D-01 EUMP2 =    -0.21947033534838D+01
 CCSD(T)
 CCSD(T)= -0.22115750475D+01

 The electronic state is 2-A'.
 Alpha  occ. eigenvalues --   -0.37669  -0.36004   0.13759
 Alpha virt. eigenvalues --    0.34987   0.47611   0.57715   0.83733   0.88889
 Alpha virt. eigenvalues --    0.91620   0.91966   0.92721   0.97272   1.27430
 Alpha virt. eigenvalues --    1.31588   1.32630   1.34986   1.36034   1.40762

 Mulliken charges and spin densities:
               1          2
     1  H   -0.222982   0.093154
     2  H   -0.305552   0.434828
     3  H   -0.223917   0.376063
     4  H   -0.247549   0.095954
 Sum of Mulliken charges =  -1.00000   1.00000

 Dipole moment (field-independent basis, Debye):
    X=             -0.3735    Y=              0.3780    Z=             -0.0000  Tot=              0.5314
 Quadrupole moment (field-independent basis, Debye-Ang):
   XX=             -8.5085   YY=            -23.4376   ZZ=             -7.6096
   XY=             -0.5886   XZ=             -0.0000   YZ=              0.0000

 \PMP2-0=-2.1947034\MP4SDQ=-2.2100407\CCSD=-2.2109205\CCSD(T)=-2.211575
 Normal termination of Gaussian 16 at Tue Feb 13 12:24:22 2024.
