 Gaussian 16, Revision A.03,
 Gaussian 16:  ES64L-G16RevA.03 25-Dec-2016

 --------------------
 #p ROCCSD(T)/cc-pVTZ
 --------------------

 ---------
 H2_H2_275
 ---------
 Symbolic Z-matrix:
 Charge = -1 Multiplicity = 2

                         Standard orientation:
 ---------------------------------------------------------------------
 Center     Atomic      Atomic             Coordinates (Angstroms)
 Number     Number       Type             X           Y           Z
 ---------------------------------------------------------------------
      1          1           0       -0.336678   -2.543560    0.000000
      2          1           0        0.400560   -2.479678    0.000000
      3          1           0       -0.000000    2.143000    0.000000
      4          1           0       -0.063882    2.880238    0.000000
 ---------------------------------------------------------------------

 SCF Done:  E(ROHF) =  -2.10469487663     A.U. after   24 cycles
 E2 =    -0.7093812922D-01 EUMP2 =    -0.21756330058516D+01
 CCSD(T)
 CCSD(T)= -0.21928200629D+01

 The electronic state is 2-A'.
 Alpha  occ. eigenvalues --   -0.47144  -0.32482   0.15728
 Alpha virt. eigenvalues --    0.27652   0.42266   0.53033   0.76316   0.81552
 Alpha virt. eigenvalues --    0.81761   0.89256   0.96892   0.96892   1.21949
 Alpha virt. eigenvalues --    1.24109   1.24410   1.35685   1.38274   1.38274

 Mulliken charges and spin densities:
               1          2
     1  H   -0.009238  -0.005863
     2  H   -0.061882   0.076891
     3  H   -0.471343   0.487940
     4  H   -0.457537   0.441032
 Sum of Mulliken charges =  -1.00000   1.00000

 Dipole moment (field-independent basis, Debye):
    X=             -0.0835    Y=            -10.2142    Z=              0.0000  Tot=             10.2146
 Quadrupole moment (field-independent basis, Debye-Ang):
   XX=             -7.5095   YY=            -43.2813   ZZ=             -7.6910
   XY=              1.2688   XZ=              0.0000   YZ=              0.0000

 SDQ=-2.1908034\CCSD=-2.1922339\CCSD(T)=-2.1928201\RMSD=1.742e-09\PG=CS
 Normal termination of Gaussian 16 at Tue Feb 13 12:33:00 2024.
