 Gaussian 16, Revision A.03,
 Gaussian 16:  ES64L-G16RevA.03 25-Dec-2016

 --------------------
 #p ROCCSD(T)/cc-pVTZ
 --------------------

 --------
 H2_H2_56
 --------
 Symbolic Z-matrix:
 Charge = -1 Multiplicity = 2

                         Standard orientation:
 ---------------------------------------------------------------------
 Center     Atomic      Atomic             Coordinates (Angstroms)
 Number     Number       Type             X           Y           Z
 ---------------------------------------------------------------------
      1          1           0       -0.259040   -1.154534    0.000000
      2          1           0        0.454641   -0.958933    0.000000
      3          1           0       -0.000000    0.699893    0.000000
      4          1           0       -0.195601    1.413574    0.000000
 ---------------------------------------------------------------------

 SCF Done:  E(ROHF) =  -2.10486947783     A.U. after   14 cycles
 E2 =    -0.7490825078D-01 EUMP2 =    -0.21797777286146D+01
 CCSD(T)
 CCSD(T)= -0.21966897200D+01

 The electronic state is 2-A'.
 Alpha  occ. eigenvalues --   -0.40879  -0.30184   0.14408
 Alpha virt. eigenvalues --    0.37361   0.52394   0.55878   0.81890   0.86761
 Alpha virt. eigenvalues --    0.88325   0.91571   0.98633   1.10060   1.25065
 Alpha virt. eigenvalues --    1.34128   1.37967   1.42400   1.56887   1.61514

 Mulliken charges and spin densities:
               1          2
     1  H   -0.496439   0.523800
     2  H   -0.426461   0.415617
     3  H    0.155818   0.025117
     4  H   -0.232918   0.035466
 Sum of Mulliken charges =  -1.00000   1.00000

 Dipole moment (field-independent basis, Debye):
    X=             -0.0500    Y=              3.7768    Z=              0.0000  Tot=              3.7771
 Quadrupole moment (field-independent basis, Debye-Ang):
   XX=            -12.9420   YY=            -14.6947   ZZ=             -7.5860
   XY=             -1.0813   XZ=              0.0000   YZ=              0.0000

 4SDQ=-2.1950458\CCSD=-2.1958623\CCSD(T)=-2.1966897\RMSD=5.530e-09\PG=C
 Normal termination of Gaussian 16 at Tue Feb 13 12:19:04 2024.
