 Gaussian 16, Revision A.03,
 Gaussian 16:  ES64L-G16RevA.03 25-Dec-2016

 --------------------
 #p ROCCSD(T)/cc-pVTZ
 --------------------

 -------
 H2_H2_8
 -------
 Symbolic Z-matrix:
 Charge = -1 Multiplicity = 2

                         Standard orientation:
 ---------------------------------------------------------------------
 Center     Atomic      Atomic             Coordinates (Angstroms)
 Number     Number       Type             X           Y           Z
 ---------------------------------------------------------------------
      1          1           0       -0.157127   -0.899423    0.000000
      2          1           0        0.499110   -0.557440    0.000000
      3          1           0       -0.000000    0.400312    0.000000
      4          1           0       -0.341983    1.056550    0.000000
 ---------------------------------------------------------------------

 SCF Done:  E(ROHF) =  -2.06374447184     A.U. after   13 cycles
 E2 =    -0.8202076753D-01 EUMP2 =    -0.21457652393685D+01
 CCSD(T)
 CCSD(T)= -0.21625014999D+01

 The electronic state is 2-A'.
 Alpha  occ. eigenvalues --   -0.48709  -0.21184   0.12710
 Alpha virt. eigenvalues --    0.40108   0.51725   0.59929   0.80382   0.84033
 Alpha virt. eigenvalues --    0.92787   0.97721   1.07081   1.28623   1.34564
 Alpha virt. eigenvalues --    1.34581   1.41526   1.56821   1.76484   1.78792

 Mulliken charges and spin densities:
               1          2
     1  H   -0.589045   0.692996
     2  H   -0.211268   0.194443
     3  H    0.142604   0.019371
     4  H   -0.342291   0.093190
 Sum of Mulliken charges =  -1.00000   1.00000

 Dipole moment (field-independent basis, Debye):
    X=              0.7379    Y=              1.8214    Z=              0.0000  Tot=              1.9652
 Quadrupole moment (field-independent basis, Debye-Ang):
   XX=            -11.8834   YY=            -13.6844   ZZ=             -7.3408
   XY=             -0.9668   XZ=              0.0000   YZ=              0.0000

 DQ=-2.1606227\CCSD=-2.1610898\CCSD(T)=-2.1625015\RMSD=4.465e-09\PG=CS
 Normal termination of Gaussian 16 at Tue Feb 13 12:16:09 2024.
