 Gaussian 16, Revision A.03,
 Gaussian 16:  ES64L-G16RevA.03 25-Dec-2016

 --------------------
 #p ROCCSD(T)/cc-pVTZ
 --------------------

 ---------
 H2_H2_165
 ---------
 Symbolic Z-matrix:
 Charge = -1 Multiplicity = 2

                         Standard orientation:
 ---------------------------------------------------------------------
 Center     Atomic      Atomic             Coordinates (Angstroms)
 Number     Number       Type             X           Y           Z
 ---------------------------------------------------------------------
      1          1           0        0.000000    0.000000    2.340000
      2          1           0        0.000000    0.000000    1.600000
      3          1           0        0.000000    0.000000   -1.600000
      4          1           0        0.000000    0.000000   -2.340000
 ---------------------------------------------------------------------

 SCF Done:  E(ROHF) =  -2.13283554910     A.U. after   10 cycles
 E2 =    -0.7122464585D-01 EUMP2 =    -0.22040601949477D+01
 CCSD(T)
 CCSD(T)= -0.22207371806D+01

 The electronic state is 2-SGG.
 Alpha  occ. eigenvalues --   -0.38073  -0.37190   0.12714
 Alpha virt. eigenvalues --    0.35262   0.46837   0.56515   0.87126   0.89276
 Alpha virt. eigenvalues --    0.91232   0.91232   0.91427   0.91427   1.31758
 Alpha virt. eigenvalues --    1.32468   1.33050   1.33050   1.34299   1.34299

 Mulliken charges and spin densities:
               1          2
     1  H   -0.223896   0.075684
     2  H   -0.276104   0.424316
     3  H   -0.276104   0.424316
     4  H   -0.223896   0.075684
 Sum of Mulliken charges =  -1.00000   1.00000

 Dipole moment (field-independent basis, Debye):
    X=             -0.0000    Y=             -0.0000    Z=              0.0000  Tot=              0.0000
 Quadrupole moment (field-independent basis, Debye-Ang):
   XX=             -7.6585   YY=             -7.6585   ZZ=            -25.8816
   XY=              0.0000   XZ=              0.0000   YZ=             -0.0000

 P4SDQ=-2.2192247\CCSD=-2.2201665\CCSD(T)=-2.2207372\RMSD=5.419e-09\PG=
 Normal termination of Gaussian 16 at Tue Feb 13 12:26:02 2024.
