 Gaussian 16, Revision A.03,
 Gaussian 16:  ES64L-G16RevA.03 25-Dec-2016

 --------------------
 #p ROCCSD(T)/cc-pVTZ
 --------------------

 ---------
 H2_H2_202
 ---------
 Symbolic Z-matrix:
 Charge = -1 Multiplicity = 2

                         Standard orientation:
 ---------------------------------------------------------------------
 Center     Atomic      Atomic             Coordinates (Angstroms)
 Number     Number       Type             X           Y           Z
 ---------------------------------------------------------------------
      1          1           0       -0.214786   -2.439655   -0.000000
      2          1           0        0.268848   -1.879567   -0.000000
      3          1           0        0.000000    1.790600    0.000000
      4          1           0       -0.054062    2.528622    0.000000
 ---------------------------------------------------------------------

 SCF Done:  E(ROHF) =  -2.12686912075     A.U. after   13 cycles
 E2 =    -0.7105800264D-01 EUMP2 =    -0.21979271233941D+01
 CCSD(T)
 CCSD(T)= -0.22145727499D+01

 The electronic state is 2-A'.
 Alpha  occ. eigenvalues --   -0.38897  -0.38395   0.13512
 Alpha virt. eigenvalues --    0.32607   0.46084   0.52810   0.83428   0.86660
 Alpha virt. eigenvalues --    0.90235   0.90251   0.90348   0.92045   1.29559
 Alpha virt. eigenvalues --    1.31103   1.32390   1.32567   1.32697   1.33309

 Mulliken charges and spin densities:
               1          2
     1  H   -0.191221   0.084064
     2  H   -0.305158   0.412223
     3  H   -0.281570   0.394219
     4  H   -0.222051   0.109494
 Sum of Mulliken charges =  -1.00000   1.00000

 Dipole moment (field-independent basis, Debye):
    X=             -0.4137    Y=             -0.0930    Z=              0.0000  Tot=              0.4240
 Quadrupole moment (field-independent basis, Debye-Ang):
   XX=             -8.6857   YY=            -29.0853   ZZ=             -7.7105
   XY=             -0.3022   XZ=              0.0000   YZ=             -0.0000

 \PMP2-0=-2.1979271\MP4SDQ=-2.213082\CCSD=-2.2140118\CCSD(T)=-2.2145727
 Normal termination of Gaussian 16 at Tue Feb 13 12:28:24 2024.
