 Gaussian 16, Revision A.03,
 Gaussian 16:  ES64L-G16RevA.03 25-Dec-2016

 --------------------
 #p ROCCSD(T)/cc-pVTZ
 --------------------

 ---------
 H2_H2_247
 ---------
 Symbolic Z-matrix:
 Charge = -1 Multiplicity = 2

                         Standard orientation:
 ---------------------------------------------------------------------
 Center     Atomic      Atomic             Coordinates (Angstroms)
 Number     Number       Type             X           Y           Z
 ---------------------------------------------------------------------
      1          1           0       -0.221581   -2.736680    0.000000
      2          1           0        0.267900   -2.181695    0.000000
      3          1           0        0.000000    2.089913   -0.000000
      4          1           0       -0.046319    2.828462   -0.000000
 ---------------------------------------------------------------------

 SCF Done:  E(ROHF) =  -2.12149416171     A.U. after   13 cycles
 E2 =    -0.7122016562D-01 EUMP2 =    -0.21927143273276D+01
 CCSD(T)
 CCSD(T)= -0.22093063955D+01

 The electronic state is 2-A'.
 Alpha  occ. eigenvalues --   -0.39847  -0.39582   0.14165
 Alpha virt. eigenvalues --    0.30196   0.45787   0.49908   0.81283   0.86301
 Alpha virt. eigenvalues --    0.89209   0.89212   0.89249   0.89605   1.28979
 Alpha virt. eigenvalues --    1.29249   1.31367   1.31445   1.31487   1.31656

 Mulliken charges and spin densities:
               1          2
     1  H   -0.205520   0.128618
     2  H   -0.290695   0.367593
     3  H   -0.274866   0.355054
     4  H   -0.228919   0.148736
 Sum of Mulliken charges =  -1.00000   1.00000

 Dipole moment (field-independent basis, Debye):
    X=             -0.3247    Y=             -0.0963    Z=              0.0000  Tot=              0.3387
 Quadrupole moment (field-independent basis, Debye-Ang):
   XX=             -8.8719   YY=            -36.5982   ZZ=             -7.7425
   XY=             -0.3623   XZ=              0.0000   YZ=              0.0000

 \PMP2-0=-2.1927143\MP4SDQ=-2.2078406\CCSD=-2.2087326\CCSD(T)=-2.209306
 Normal termination of Gaussian 16 at Tue Feb 13 12:31:18 2024.
