 Gaussian 16, Revision A.03,
 Gaussian 16:  ES64L-G16RevA.03 25-Dec-2016

 --------------------
 #p ROCCSD(T)/cc-pVTZ
 --------------------

 ---------
 H2_H2_157
 ---------
 Symbolic Z-matrix:
 Charge = -1 Multiplicity = 2

                         Standard orientation:
 ---------------------------------------------------------------------
 Center     Atomic      Atomic             Coordinates (Angstroms)
 Number     Number       Type             X           Y           Z
 ---------------------------------------------------------------------
      1          1           0       -0.205225   -2.143704   -0.000000
      2          1           0        0.270126   -1.576570   -0.000000
      3          1           0       -0.000000    1.491562    0.000000
      4          1           0       -0.064900    2.228711    0.000000
 ---------------------------------------------------------------------

 SCF Done:  E(ROHF) =  -2.12494313994     A.U. after   13 cycles
 E2 =    -0.7183438543D-01 EUMP2 =    -0.21967775253633D+01
 CCSD(T)
 CCSD(T)= -0.22135655339D+01

 The electronic state is 2-A'.
 Alpha  occ. eigenvalues --   -0.37912  -0.36757   0.13545
 Alpha virt. eigenvalues --    0.34452   0.47038   0.56363   0.84428   0.87435
 Alpha virt. eigenvalues --    0.91335   0.91477   0.91954   0.95804   1.30498
 Alpha virt. eigenvalues --    1.31419   1.32991   1.33969   1.34710   1.37213

 Mulliken charges and spin densities:
               1          2
     1  H   -0.206318   0.077846
     2  H   -0.305816   0.433864
     3  H   -0.251139   0.394471
     4  H   -0.236727   0.093819
 Sum of Mulliken charges =  -1.00000   1.00000

 Dipole moment (field-independent basis, Debye):
    X=             -0.4047    Y=              0.1530    Z=              0.0000  Tot=              0.4327
 Quadrupole moment (field-independent basis, Debye-Ang):
   XX=             -8.5200   YY=            -24.4779   ZZ=             -7.6361
   XY=             -0.4649   XZ=              0.0000   YZ=             -0.0000

 \PMP2-0=-2.1967775\MP4SDQ=-2.2120425\CCSD=-2.2129547\CCSD(T)=-2.213565
 Normal termination of Gaussian 16 at Tue Feb 13 12:25:31 2024.
