 Gaussian 16, Revision A.03,
 Gaussian 16:  ES64L-G16RevA.03 25-Dec-2016

 --------------------
 #p ROCCSD(T)/cc-pVTZ
 --------------------

 --------
 H2_H2_58
 --------
 Symbolic Z-matrix:
 Charge = -1 Multiplicity = 2

                         Standard orientation:
 ---------------------------------------------------------------------
 Center     Atomic      Atomic             Coordinates (Angstroms)
 Number     Number       Type             X           Y           Z
 ---------------------------------------------------------------------
      1          1           0       -0.159585   -1.500896    0.000000
      2          1           0        0.275363   -0.902214    0.000000
      3          1           0        0.000000    0.836112    0.000000
      4          1           0       -0.115778    1.566998    0.000000
 ---------------------------------------------------------------------

 SCF Done:  E(ROHF) =  -2.10372812318     A.U. after   15 cycles
 E2 =    -0.7711435204D-01 EUMP2 =    -0.21808424752177D+01
 CCSD(T)
 CCSD(T)= -0.21982617916D+01

 The electronic state is 2-A'.
 Alpha  occ. eigenvalues --   -0.39621  -0.31769   0.15028
 Alpha virt. eigenvalues --    0.36860   0.51791   0.60029   0.79984   0.88388
 Alpha virt. eigenvalues --    0.88416   0.92991   0.97278   1.03278   1.24335
 Alpha virt. eigenvalues --    1.26540   1.34221   1.47686   1.51153   1.69619

 Mulliken charges and spin densities:
               1          2
     1  H   -0.443214   0.418269
     2  H   -0.276692   0.311066
     3  H    0.003213   0.144672
     4  H   -0.283307   0.125994
 Sum of Mulliken charges =  -1.00000   1.00000

 Dipole moment (field-independent basis, Debye):
    X=              0.1809    Y=              2.4276    Z=              0.0000  Tot=              2.4343
 Quadrupole moment (field-independent basis, Debye-Ang):
   XX=             -9.0241   YY=            -21.7335   ZZ=             -7.5162
   XY=             -1.4671   XZ=              0.0000   YZ=              0.0000

 PMP2-0=-2.1808425\MP4SDQ=-2.1964154\CCSD=-2.1972335\CCSD(T)=-2.1982618
 Normal termination of Gaussian 16 at Tue Feb 13 12:19:12 2024.
