 Gaussian 16, Revision A.03,
 Gaussian 16:  ES64L-G16RevA.03 25-Dec-2016

 --------------------
 #p ROCCSD(T)/cc-pVTZ
 --------------------

 ---------
 H2_H2_218
 ---------
 Symbolic Z-matrix:
 Charge = -1 Multiplicity = 2

                         Standard orientation:
 ---------------------------------------------------------------------
 Center     Atomic      Atomic             Coordinates (Angstroms)
 Number     Number       Type             X           Y           Z
 ---------------------------------------------------------------------
      1          1           0       -0.329173   -2.171473    0.000000
      2          1           0        0.406749   -2.093897    0.000000
      3          1           0       -0.000000    1.764724    0.000000
      4          1           0       -0.077576    2.500646    0.000000
 ---------------------------------------------------------------------

 SCF Done:  E(ROHF) =  -2.10740759313     A.U. after   16 cycles
 E2 =    -0.7143984741D-01 EUMP2 =    -0.21788474405338D+01
 CCSD(T)
 CCSD(T)= -0.21958729165D+01

 The electronic state is 2-A'.
 Alpha  occ. eigenvalues --   -0.43134  -0.34274   0.15500
 Alpha virt. eigenvalues --    0.29878   0.44864   0.53130   0.79881   0.83777
 Alpha virt. eigenvalues --    0.85622   0.91302   0.94962   0.94982   1.26150
 Alpha virt. eigenvalues --    1.27961   1.28435   1.34156   1.36600   1.36638

 Mulliken charges and spin densities:
               1          2
     1  H   -0.012713  -0.022363
     2  H   -0.181428   0.215916
     3  H   -0.415024   0.467372
     4  H   -0.390835   0.339075
 Sum of Mulliken charges =  -1.00000   1.00000

 Dipole moment (field-independent basis, Debye):
    X=             -0.4684    Y=             -6.0884    Z=              0.0000  Tot=              6.1064
 Quadrupole moment (field-independent basis, Debye-Ang):
   XX=             -8.2172   YY=            -33.0762   ZZ=             -7.7076
   XY=              1.5103   XZ=              0.0000   YZ=              0.0000

 P4SDQ=-2.194087\CCSD=-2.1952783\CCSD(T)=-2.1958729\RMSD=8.397e-09\PG=C
 Normal termination of Gaussian 16 at Tue Feb 13 12:29:26 2024.
