 Gaussian 16, Revision A.03,
 Gaussian 16:  ES64L-G16RevA.03 25-Dec-2016

 --------------------
 #p ROCCSD(T)/cc-pVTZ
 --------------------

 ---------
 H2_H2_212
 ---------
 Symbolic Z-matrix:
 Charge = -1 Multiplicity = 2

                         Standard orientation:
 ---------------------------------------------------------------------
 Center     Atomic      Atomic             Coordinates (Angstroms)
 Number     Number       Type             X           Y           Z
 ---------------------------------------------------------------------
      1          1           0       -0.328184   -2.132497    0.000000
      2          1           0        0.407548   -2.053133    0.000000
      3          1           0       -0.000000    1.724949    0.000000
      4          1           0       -0.079365    2.460681    0.000000
 ---------------------------------------------------------------------

 SCF Done:  E(ROHF) =  -2.10751749300     A.U. after   16 cycles
 E2 =    -0.7153813410D-01 EUMP2 =    -0.21790556271073D+01
 CCSD(T)
 CCSD(T)= -0.21960749548D+01

 The electronic state is 2-A'.
 Alpha  occ. eigenvalues --   -0.42581  -0.34556   0.15492
 Alpha virt. eigenvalues --    0.30120   0.45144   0.53207   0.80358   0.83756
 Alpha virt. eigenvalues --    0.86189   0.91929   0.94657   0.94686   1.26698
 Alpha virt. eigenvalues --    1.28492   1.28981   1.33940   1.36335   1.36389

 Mulliken charges and spin densities:
               1          2
     1  H   -0.014984  -0.022883
     2  H   -0.200861   0.238032
     3  H   -0.402700   0.460028
     4  H   -0.381455   0.324823
 Sum of Mulliken charges =  -1.00000   1.00000

 Dipole moment (field-independent basis, Debye):
    X=             -0.5219    Y=             -5.5449    Z=              0.0000  Tot=              5.5694
 Quadrupole moment (field-independent basis, Debye-Ang):
   XX=             -8.3532   YY=            -32.0867   ZZ=             -7.7050
   XY=              1.5029   XZ=              0.0000   YZ=              0.0000

 4SDQ=-2.1943112\CCSD=-2.1954729\CCSD(T)=-2.196075\RMSD=9.567e-09\PG=CS
 Normal termination of Gaussian 16 at Tue Feb 13 12:29:02 2024.
