 Gaussian 16, Revision A.03,
 Gaussian 16:  ES64L-G16RevA.03 25-Dec-2016

 --------------------
 #p ROCCSD(T)/cc-pVTZ
 --------------------

 ---------
 H2_H2_217
 ---------
 Symbolic Z-matrix:
 Charge = -1 Multiplicity = 2

                         Standard orientation:
 ---------------------------------------------------------------------
 Center     Atomic      Atomic             Coordinates (Angstroms)
 Number     Number       Type             X           Y           Z
 ---------------------------------------------------------------------
      1          1           0       -0.217293   -2.538567    0.000000
      2          1           0        0.268502   -1.980352    0.000000
      3          1           0       -0.000000    1.890346   -0.000000
      4          1           0       -0.051209    2.628572   -0.000000
 ---------------------------------------------------------------------

 SCF Done:  E(ROHF) =  -2.12576142214     A.U. after   13 cycles
 E2 =    -0.7103568296D-01 EUMP2 =    -0.21967971051003D+01
 CCSD(T)
 CCSD(T)= -0.22134171868D+01

 The electronic state is 2-A'.
 Alpha  occ. eigenvalues --   -0.39240  -0.38844   0.13668
 Alpha virt. eigenvalues --    0.31843   0.45921   0.51734   0.82505   0.86841
 Alpha virt. eigenvalues --    0.89864   0.89873   0.89923   0.91032   1.29312
 Alpha virt. eigenvalues --    1.30413   1.32031   1.32166   1.32238   1.32661

 Mulliken charges and spin densities:
               1          2
     1  H   -0.193293   0.096032
     2  H   -0.302054   0.399270
     3  H   -0.282339   0.383834
     4  H   -0.222314   0.120864
 Sum of Mulliken charges =  -1.00000   1.00000

 Dipole moment (field-independent basis, Debye):
    X=             -0.3940    Y=             -0.1130    Z=             -0.0000  Tot=              0.4098
 Quadrupole moment (field-independent basis, Debye-Ang):
   XX=             -8.7541   YY=            -31.2944   ZZ=             -7.7278
   XY=             -0.2967   XZ=             -0.0000   YZ=              0.0000

 \PMP2-0=-2.1967971\MP4SDQ=-2.211936\CCSD=-2.2128571\CCSD(T)=-2.2134172
 Normal termination of Gaussian 16 at Tue Feb 13 12:29:22 2024.
