 Gaussian 16, Revision A.03,
 Gaussian 16:  ES64L-G16RevA.03 25-Dec-2016

 --------------------
 #p ROCCSD(T)/cc-pVTZ
 --------------------

 --------
 H2_H2_17
 --------
 Symbolic Z-matrix:
 Charge = -1 Multiplicity = 2

                         Standard orientation:
 ---------------------------------------------------------------------
 Center     Atomic      Atomic             Coordinates (Angstroms)
 Number     Number       Type             X           Y           Z
 ---------------------------------------------------------------------
      1          1           0       -0.187293   -0.942959    0.000000
      2          1           0        0.488591   -0.641661    0.000000
      3          1           0        0.000000    0.454368    0.000000
      4          1           0       -0.301298    1.130252    0.000000
 ---------------------------------------------------------------------

 SCF Done:  E(ROHF) =  -2.07870617247     A.U. after   13 cycles
 E2 =    -0.8024202229D-01 EUMP2 =    -0.21589481947598D+01
 CCSD(T)
 CCSD(T)= -0.21757565131D+01

 The electronic state is 2-A'.
 Alpha  occ. eigenvalues --   -0.46154  -0.23525   0.13193
 Alpha virt. eigenvalues --    0.39701   0.51798   0.59352   0.81006   0.84551
 Alpha virt. eigenvalues --    0.91370   0.95897   1.05047   1.25700   1.32551
 Alpha virt. eigenvalues --    1.34824   1.40332   1.53486   1.74323   1.76776

 Mulliken charges and spin densities:
               1          2
     1  H   -0.567960   0.648862
     2  H   -0.276669   0.257554
     3  H    0.154031   0.017737
     4  H   -0.309403   0.075847
 Sum of Mulliken charges =  -1.00000   1.00000

 Dipole moment (field-independent basis, Debye):
    X=              0.5034    Y=              2.2067    Z=              0.0000  Tot=              2.2634
 Quadrupole moment (field-independent basis, Debye-Ang):
   XX=            -12.1692   YY=            -13.6461   ZZ=             -7.3949
   XY=             -1.0819   XZ=              0.0000   YZ=              0.0000

 SDQ=-2.173942\CCSD=-2.1744849\CCSD(T)=-2.1757565\RMSD=4.282e-09\PG=CS
 Normal termination of Gaussian 16 at Tue Feb 13 12:16:41 2024.
