 Gaussian 16, Revision A.03,
 Gaussian 16:  ES64L-G16RevA.03 25-Dec-2016

 --------------------
 #p ROCCSD(T)/cc-pVTZ
 --------------------

 ---------
 H2_H2_103
 ---------
 Symbolic Z-matrix:
 Charge = -1 Multiplicity = 2

                         Standard orientation:
 ---------------------------------------------------------------------
 Center     Atomic      Atomic             Coordinates (Angstroms)
 Number     Number       Type             X           Y           Z
 ---------------------------------------------------------------------
      1          1           0       -0.186979   -1.790995    0.000000
      2          1           0        0.272389   -1.210839    0.000000
      3          1           0       -0.000000    1.133389   -0.000000
      4          1           0       -0.085410    1.868444   -0.000000
 ---------------------------------------------------------------------

 SCF Done:  E(ROHF) =  -2.11478605730     A.U. after   13 cycles
 E2 =    -0.7441871257D-01 EUMP2 =    -0.21892047698664D+01
 CCSD(T)
 CCSD(T)= -0.22062800137D+01

 The electronic state is 2-A'.
 Alpha  occ. eigenvalues --   -0.37805  -0.34381   0.14390
 Alpha virt. eigenvalues --    0.35792   0.49079   0.59712   0.84016   0.88366
 Alpha virt. eigenvalues --    0.91328   0.92491   0.94475   0.98742   1.21227
 Alpha virt. eigenvalues --    1.29718   1.29979   1.38854   1.40551   1.51289

 Mulliken charges and spin densities:
               1          2
     1  H   -0.283972   0.175023
     2  H   -0.308494   0.417899
     3  H   -0.140085   0.298388
     4  H   -0.267449   0.108690
 Sum of Mulliken charges =  -1.00000   1.00000

 Dipole moment (field-independent basis, Debye):
    X=             -0.2469    Y=              1.1569    Z=             -0.0000  Tot=              1.1829
 Quadrupole moment (field-independent basis, Debye-Ang):
   XX=             -8.6502   YY=            -22.3787   ZZ=             -7.5806
   XY=             -0.9495   XZ=              0.0000   YZ=              0.0000

 \PMP2-0=-2.1892048\MP4SDQ=-2.2047064\CCSD=-2.2054934\CCSD(T)=-2.20628\
 Normal termination of Gaussian 16 at Tue Feb 13 12:22:01 2024.
