 Gaussian 16, Revision A.03,
 Gaussian 16:  ES64L-G16RevA.03 25-Dec-2016

 --------------------
 #p ROCCSD(T)/cc-pVTZ
 --------------------

 ---------
 H2_H2_301
 ---------
 Symbolic Z-matrix:
 Charge = -1 Multiplicity = 2

                         Standard orientation:
 ---------------------------------------------------------------------
 Center     Atomic      Atomic             Coordinates (Angstroms)
 Number     Number       Type             X           Y           Z
 ---------------------------------------------------------------------
      1          1           0       -0.227522   -3.094012   -0.000000
      2          1           0        0.267044   -2.543553   -0.000000
      3          1           0        0.000000    2.449311    0.000000
      4          1           0       -0.039523    3.188254    0.000000
 ---------------------------------------------------------------------

 SCF Done:  E(ROHF) =  -2.11164382439     A.U. after   13 cycles
 E2 =    -0.7183088579D-01 EUMP2 =    -0.21834747101832D+01
 CCSD(T)
 CCSD(T)= -0.22000480610D+01

 The electronic state is 2-A'.
 Alpha  occ. eigenvalues --   -0.40701  -0.40376   0.15207
 Alpha virt. eigenvalues --    0.27423   0.45857   0.47747   0.80753   0.83954
 Alpha virt. eigenvalues --    0.88286   0.88287   0.88582   0.88650   1.28003
 Alpha virt. eigenvalues --    1.28308   1.30419   1.30423   1.30662   1.30732

 Mulliken charges and spin densities:
               1          2
     1  H   -0.238515   0.191961
     2  H   -0.266220   0.312777
     3  H   -0.249533   0.300282
     4  H   -0.245731   0.194980
 Sum of Mulliken charges =  -1.00000   1.00000

 Dipole moment (field-independent basis, Debye):
    X=             -0.1637    Y=              0.1207    Z=              0.0000  Tot=              0.2034
 Quadrupole moment (field-independent basis, Debye-Ang):
   XX=             -8.9870   YY=            -47.9461   ZZ=             -7.7193
   XY=             -0.6553   XZ=             -0.0000   YZ=             -0.0000

 \PMP2-0=-2.1834747\MP4SDQ=-2.1985985\CCSD=-2.1994309\CCSD(T)=-2.200048
 Normal termination of Gaussian 16 at Tue Feb 13 12:34:38 2024.
