 Gaussian 16, Revision A.03,
 Gaussian 16:  ES64L-G16RevA.03 25-Dec-2016

 --------------------
 #p ROCCSD(T)/cc-pVTZ
 --------------------

 ---------
 H2_H2_207
 ---------
 Symbolic Z-matrix:
 Charge = -1 Multiplicity = 2

                         Standard orientation:
 ---------------------------------------------------------------------
 Center     Atomic      Atomic             Coordinates (Angstroms)
 Number     Number       Type             X           Y           Z
 ---------------------------------------------------------------------
      1          1           0        0.000000    0.000000    2.620000
      2          1           0        0.000000    0.000000    1.880000
      3          1           0        0.000000    0.000000   -1.880000
      4          1           0        0.000000    0.000000   -2.620000
 ---------------------------------------------------------------------

 SCF Done:  E(ROHF) =  -2.13299215274     A.U. after   10 cycles
 E2 =    -0.7069430120D-01 EUMP2 =    -0.22036864539397D+01
 CCSD(T)
 CCSD(T)= -0.22202555496D+01

 The electronic state is 2-SGG.
 Alpha  occ. eigenvalues --   -0.39110  -0.38640   0.12875
 Alpha virt. eigenvalues --    0.33284   0.46044   0.52541   0.82854   0.89722
 Alpha virt. eigenvalues --    0.90031   0.90031   0.90071   0.90071   1.29430
 Alpha virt. eigenvalues --    1.31163   1.32279   1.32279   1.32546   1.32546

 Mulliken charges and spin densities:
               1          2
     1  H   -0.209861   0.093349
     2  H   -0.290139   0.406651
     3  H   -0.290139   0.406651
     4  H   -0.209861   0.093349
 Sum of Mulliken charges =  -1.00000   1.00000

 Dipole moment (field-independent basis, Debye):
    X=             -0.0000    Y=              0.0000    Z=              0.0000  Tot=              0.0000
 Quadrupole moment (field-independent basis, Debye-Ang):
   XX=             -7.7296   YY=             -7.7296   ZZ=            -30.9040
   XY=              0.0000   XZ=              0.0000   YZ=             -0.0000

 P4SDQ=-2.2187754\CCSD=-2.2197191\CCSD(T)=-2.2202555\RMSD=5.055e-09\PG=
 Normal termination of Gaussian 16 at Tue Feb 13 12:28:44 2024.
