 Gaussian 16, Revision A.03,
 Gaussian 16:  ES64L-G16RevA.03 25-Dec-2016

 --------------------
 #p ROCCSD(T)/cc-pVTZ
 --------------------

 ---------
 H2_H2_190
 ---------
 Symbolic Z-matrix:
 Charge = -1 Multiplicity = 2

                         Standard orientation:
 ---------------------------------------------------------------------
 Center     Atomic      Atomic             Coordinates (Angstroms)
 Number     Number       Type             X           Y           Z
 ---------------------------------------------------------------------
      1          1           0       -0.212567   -2.360609    0.000000
      2          1           0        0.269150   -1.798872    0.000000
      3          1           0        0.000000    1.710823   -0.000000
      4          1           0       -0.056583    2.448657   -0.000000
 ---------------------------------------------------------------------

 SCF Done:  E(ROHF) =  -2.12713375751     A.U. after   13 cycles
 E2 =    -0.7115114335D-01 EUMP2 =    -0.21982849008558D+01
 CCSD(T)
 CCSD(T)= -0.22149584271D+01

 The electronic state is 2-A'.
 Alpha  occ. eigenvalues --   -0.38615  -0.37999   0.13445
 Alpha virt. eigenvalues --    0.33170   0.46270   0.53731   0.84274   0.86329
 Alpha virt. eigenvalues --    0.90542   0.90570   0.90730   0.92963   1.29867
 Alpha virt. eigenvalues --    1.31614   1.32656   1.32900   1.33121   1.33915

 Mulliken charges and spin densities:
               1          2
     1  H   -0.191961   0.077520
     2  H   -0.306334   0.420623
     3  H   -0.277995   0.399476
     4  H   -0.223709   0.102381
 Sum of Mulliken charges =  -1.00000   1.00000

 Dipole moment (field-independent basis, Debye):
    X=             -0.4212    Y=             -0.0593    Z=              0.0000  Tot=              0.4254
 Quadrupole moment (field-independent basis, Debye-Ang):
   XX=             -8.6315   YY=            -27.5588   ZZ=             -7.6926
   XY=             -0.3249   XZ=              0.0000   YZ=              0.0000

 \PMP2-0=-2.1982849\MP4SDQ=-2.2134592\CCSD=-2.2143917\CCSD(T)=-2.214958
 Normal termination of Gaussian 16 at Tue Feb 13 12:27:38 2024.
