 Gaussian 16, Revision A.03,
 Gaussian 16:  ES64L-G16RevA.03 25-Dec-2016

 --------------------
 #p ROCCSD(T)/cc-pVTZ
 --------------------

 ---------
 H2_H2_221
 ---------
 Symbolic Z-matrix:
 Charge = -1 Multiplicity = 2

                         Standard orientation:
 ---------------------------------------------------------------------
 Center     Atomic      Atomic             Coordinates (Angstroms)
 Number     Number       Type             X           Y           Z
 ---------------------------------------------------------------------
      1          1           0       -0.329651   -2.190977    0.000000
      2          1           0        0.406362   -2.114266    0.000000
      3          1           0       -0.000000    1.784615    0.000000
      4          1           0       -0.076711    2.520628    0.000000
 ---------------------------------------------------------------------

 SCF Done:  E(ROHF) =  -2.10732964770     A.U. after   17 cycles
 E2 =    -0.7139729816D-01 EUMP2 =    -0.21787269458539D+01
 CCSD(T)
 CCSD(T)= -0.21957554309D+01

 The electronic state is 2-A'.
 Alpha  occ. eigenvalues --   -0.43391  -0.34151   0.15506
 Alpha virt. eigenvalues --    0.29756   0.44726   0.53093   0.79657   0.83771
 Alpha virt. eigenvalues --    0.85359   0.91021   0.95094   0.95111   1.25888
 Alpha virt. eigenvalues --    1.27714   1.28179   1.34252   1.36714   1.36747

 Mulliken charges and spin densities:
               1          2
     1  H   -0.011998  -0.021753
     2  H   -0.172751   0.205963
     3  H   -0.420155   0.470137
     4  H   -0.395095   0.345653
 Sum of Mulliken charges =  -1.00000   1.00000

 Dipole moment (field-independent basis, Debye):
    X=             -0.4435    Y=             -6.3381    Z=              0.0000  Tot=              6.3536
 Quadrupole moment (field-independent basis, Debye-Ang):
   XX=             -8.1599   YY=            -33.5757   ZZ=             -7.7085
   XY=              1.5105   XZ=              0.0000   YZ=              0.0000

 P4SDQ=-2.1939596\CCSD=-2.1951639\CCSD(T)=-2.1957554\RMSD=1.319e-09\PG=
 Normal termination of Gaussian 16 at Tue Feb 13 12:29:38 2024.
