 Gaussian 16, Revision A.03,
 Gaussian 16:  ES64L-G16RevA.03 25-Dec-2016

 --------------------
 #p ROCCSD(T)/cc-pVTZ
 --------------------

 ---------
 H2_H2_128
 ---------
 Symbolic Z-matrix:
 Charge = -1 Multiplicity = 2

                         Standard orientation:
 ---------------------------------------------------------------------
 Center     Atomic      Atomic             Coordinates (Angstroms)
 Number     Number       Type             X           Y           Z
 ---------------------------------------------------------------------
      1          1           0       -0.306825   -1.593584    0.000000
      2          1           0        0.423861   -1.476547    0.000000
      3          1           0        0.000000    1.169722    0.000000
      4          1           0       -0.117036    1.900409    0.000000
 ---------------------------------------------------------------------

 SCF Done:  E(ROHF) =  -2.10763631084     A.U. after   18 cycles
 E2 =    -0.7175828773D-01 EUMP2 =    -0.21793945985693D+01
 CCSD(T)
 CCSD(T)= -0.21963669916D+01

 The electronic state is 2-A'.
 Alpha  occ. eigenvalues --   -0.42372  -0.32469   0.15238
 Alpha virt. eigenvalues --    0.33530   0.47143   0.56312   0.82297   0.85074
 Alpha virt. eigenvalues --    0.86245   0.90297   0.96829   1.02774   1.26470
 Alpha virt. eigenvalues --    1.28777   1.29310   1.38302   1.38684   1.41067

 Mulliken charges and spin densities:
               1          2
     1  H   -0.392455   0.382938
     2  H   -0.521996   0.534133
     3  H    0.064741   0.056223
     4  H   -0.150289   0.026706
 Sum of Mulliken charges =  -1.00000   1.00000

 Dipole moment (field-independent basis, Debye):
    X=             -0.5039    Y=              5.7472    Z=              0.0000  Tot=              5.7692
 Quadrupole moment (field-independent basis, Debye-Ang):
   XX=            -13.1100   YY=            -19.8506   ZZ=             -7.6606
   XY=             -0.5236   XZ=              0.0000   YZ=              0.0000

 P4SDQ=-2.1946672\CCSD=-2.1957905\CCSD(T)=-2.196367\RMSD=7.108e-09\PG=C
 Normal termination of Gaussian 16 at Tue Feb 13 12:23:38 2024.
