 Gaussian 16, Revision A.03,
 Gaussian 16:  ES64L-G16RevA.03 25-Dec-2016

 --------------------
 #p ROCCSD(T)/cc-pVTZ
 --------------------

 --------
 H2_H2_31
 --------
 Symbolic Z-matrix:
 Charge = -1 Multiplicity = 2

                         Standard orientation:
 ---------------------------------------------------------------------
 Center     Atomic      Atomic             Coordinates (Angstroms)
 Number     Number       Type             X           Y           Z
 ---------------------------------------------------------------------
      1          1           0       -0.131027   -1.329928   -0.000000
      2          1           0        0.277936   -0.713203   -0.000000
      3          1           0       -0.000000    0.658930    0.000000
      4          1           0       -0.146910    1.384202    0.000000
 ---------------------------------------------------------------------

 SCF Done:  E(ROHF) =  -2.09348635185     A.U. after   15 cycles
 E2 =    -0.7927379594D-01 EUMP2 =    -0.21727601477931D+01
 CCSD(T)
 CCSD(T)= -0.21902788231D+01

 The electronic state is 2-A'.
 Alpha  occ. eigenvalues --   -0.42258  -0.29071   0.14938
 Alpha virt. eigenvalues --    0.38026   0.53499   0.59347   0.76974   0.86214
 Alpha virt. eigenvalues --    0.91164   0.95840   0.99762   1.07511   1.26803
 Alpha virt. eigenvalues --    1.28497   1.44808   1.55797   1.60053   1.79201

 Mulliken charges and spin densities:
               1          2
     1  H   -0.573311   0.610706
     2  H   -0.179949   0.160639
     3  H    0.065939   0.071636
     4  H   -0.312680   0.157018
 Sum of Mulliken charges =  -1.00000   1.00000

 Dipole moment (field-independent basis, Debye):
    X=              0.6213    Y=              2.5988    Z=              0.0000  Tot=              2.6720
 Quadrupole moment (field-independent basis, Debye-Ang):
   XX=             -9.1517   YY=            -21.0488   ZZ=             -7.4432
   XY=             -1.4235   XZ=              0.0000   YZ=             -0.0000

 PMP2-0=-2.1727601\MP4SDQ=-2.188221\CCSD=-2.1890385\CCSD(T)=-2.1902788\
 Normal termination of Gaussian 16 at Tue Feb 13 12:17:32 2024.
