 Gaussian 16, Revision A.03,
 Gaussian 16:  ES64L-G16RevA.03 25-Dec-2016

 --------------------
 #p ROCCSD(T)/cc-pVTZ
 --------------------

 ---------
 H2_H2_162
 ---------
 Symbolic Z-matrix:
 Charge = -1 Multiplicity = 2

                         Standard orientation:
 ---------------------------------------------------------------------
 Center     Atomic      Atomic             Coordinates (Angstroms)
 Number     Number       Type             X           Y           Z
 ---------------------------------------------------------------------
      1          1           0        0.000000    0.000000    2.320000
      2          1           0        0.000000    0.000000    1.580000
      3          1           0        0.000000    0.000000   -1.580000
      4          1           0        0.000000    0.000000   -2.320000
 ---------------------------------------------------------------------

 SCF Done:  E(ROHF) =  -2.13251679333     A.U. after   10 cycles
 E2 =    -0.7130612305D-01 EUMP2 =    -0.22038229163778D+01
 CCSD(T)
 CCSD(T)= -0.22205120822D+01

 The electronic state is 2-SGG.
 Alpha  occ. eigenvalues --   -0.38003  -0.37075   0.12733
 Alpha virt. eigenvalues --    0.35373   0.46914   0.56841   0.87496   0.89133
 Alpha virt. eigenvalues --    0.91317   0.91317   0.91537   0.91537   1.31561
 Alpha virt. eigenvalues --    1.32893   1.33060   1.33060   1.34470   1.34470

 Mulliken charges and spin densities:
               1          2
     1  H   -0.225943   0.075739
     2  H   -0.274057   0.424261
     3  H   -0.274057   0.424261
     4  H   -0.225943   0.075739
 Sum of Mulliken charges =  -1.00000   1.00000

 Dipole moment (field-independent basis, Debye):
    X=             -0.0000    Y=             -0.0000    Z=              0.0000  Tot=              0.0000
 Quadrupole moment (field-independent basis, Debye-Ang):
   XX=             -7.6530   YY=             -7.6530   ZZ=            -25.6295
   XY=              0.0000   XZ=              0.0000   YZ=             -0.0000

 P4SDQ=-2.218997\CCSD=-2.2199362\CCSD(T)=-2.2205121\RMSD=5.416e-09\PG=D
 Normal termination of Gaussian 16 at Tue Feb 13 12:25:51 2024.
