 Gaussian 16, Revision A.03,
 Gaussian 16:  ES64L-G16RevA.03 25-Dec-2016

 --------------------
 #p ROCCSD(T)/cc-pVTZ
 --------------------

 ---------
 H2_H2_180
 ---------
 Symbolic Z-matrix:
 Charge = -1 Multiplicity = 2

                         Standard orientation:
 ---------------------------------------------------------------------
 Center     Atomic      Atomic             Coordinates (Angstroms)
 Number     Number       Type             X           Y           Z
 ---------------------------------------------------------------------
      1          1           0        0.000000    0.000000    2.440000
      2          1           0        0.000000    0.000000    1.700000
      3          1           0        0.000000    0.000000   -1.700000
      4          1           0        0.000000    0.000000   -2.440000
 ---------------------------------------------------------------------

 SCF Done:  E(ROHF) =  -2.13383289090     A.U. after   10 cycles
 E2 =    -0.7091166031D-01 EUMP2 =    -0.22047445512016D+01
 CCSD(T)
 CCSD(T)= -0.22213699622D+01

 The electronic state is 2-SGG.
 Alpha  occ. eigenvalues --   -0.38441  -0.37746   0.12680
 Alpha virt. eigenvalues --    0.34645   0.46491   0.54967   0.85375   0.89808
 Alpha virt. eigenvalues --    0.90795   0.90795   0.90901   0.90901   1.30817
 Alpha virt. eigenvalues --    1.32067   1.32873   1.32873   1.33560   1.33560

 Mulliken charges and spin densities:
               1          2
     1  H   -0.215713   0.078210
     2  H   -0.284287   0.421790
     3  H   -0.284287   0.421790
     4  H   -0.215713   0.078210
 Sum of Mulliken charges =  -1.00000   1.00000

 Dipole moment (field-independent basis, Debye):
    X=             -0.0000    Y=              0.0000    Z=              0.0000  Tot=              0.0000
 Quadrupole moment (field-independent basis, Debye-Ang):
   XX=             -7.6863   YY=             -7.6863   ZZ=            -27.3512
   XY=              0.0000   XZ=              0.0000   YZ=             -0.0000

 P4SDQ=-2.2198702\CCSD=-2.2208196\CCSD(T)=-2.22137\RMSD=5.352e-09\PG=D*
 Normal termination of Gaussian 16 at Tue Feb 13 12:27:00 2024.
