 Gaussian 16, Revision A.03,
 Gaussian 16:  ES64L-G16RevA.03 25-Dec-2016

 --------------------
 #p ROCCSD(T)/cc-pVTZ
 --------------------

 --------
 H2_H2_81
 --------
 Symbolic Z-matrix:
 Charge = -1 Multiplicity = 2

                         Standard orientation:
 ---------------------------------------------------------------------
 Center     Atomic      Atomic             Coordinates (Angstroms)
 Number     Number       Type             X           Y           Z
 ---------------------------------------------------------------------
      1          1           0        0.000000    0.000000    1.780000
      2          1           0        0.000000    0.000000    1.040000
      3          1           0        0.000000    0.000000   -1.040000
      4          1           0        0.000000    0.000000   -1.780000
 ---------------------------------------------------------------------

 SCF Done:  E(ROHF) =  -2.11282757022     A.U. after   11 cycles
 E2 =    -0.7629468345D-01 EUMP2 =    -0.21891222536695D+01
 CCSD(T)
 CCSD(T)= -0.22063039510D+01

 The electronic state is 2-SGG.
 Alpha  occ. eigenvalues --   -0.37745  -0.33547   0.14394
 Alpha virt. eigenvalues --    0.37005   0.49957   0.67152   0.85260   0.87853
 Alpha virt. eigenvalues --    0.91095   0.91095   0.95422   0.95422   1.21816
 Alpha virt. eigenvalues --    1.27039   1.27039   1.46160   1.46160   1.54864

 Mulliken charges and spin densities:
               1          2
     1  H   -0.313317   0.167255
     2  H   -0.186683   0.332745
     3  H   -0.186683   0.332745
     4  H   -0.313317   0.167255
 Sum of Mulliken charges =  -1.00000   1.00000

 Dipole moment (field-independent basis, Debye):
    X=             -0.0000    Y=             -0.0000    Z=             -0.0000  Tot=              0.0000
 Quadrupole moment (field-independent basis, Debye-Ang):
   XX=             -7.5166   YY=             -7.5166   ZZ=            -23.4151
   XY=              0.0000   XZ=              0.0000   YZ=             -0.0000

 P4SDQ=-2.2047227\CCSD=-2.2053862\CCSD(T)=-2.206304\RMSD=1.742e-09\PG=D
 Normal termination of Gaussian 16 at Tue Feb 13 12:20:37 2024.
