 Gaussian 16, Revision A.03,
 Gaussian 16:  ES64L-G16RevA.03 25-Dec-2016

 --------------------
 #p ROCCSD(T)/cc-pVTZ
 --------------------

 --------
 H2_H2_84
 --------
 Symbolic Z-matrix:
 Charge = -1 Multiplicity = 2

                         Standard orientation:
 ---------------------------------------------------------------------
 Center     Atomic      Atomic             Coordinates (Angstroms)
 Number     Number       Type             X           Y           Z
 ---------------------------------------------------------------------
      1          1           0        0.000000    0.000000    1.800000
      2          1           0        0.000000    0.000000    1.060000
      3          1           0        0.000000    0.000000   -1.060000
      4          1           0        0.000000    0.000000   -1.800000
 ---------------------------------------------------------------------

 SCF Done:  E(ROHF) =  -2.11383697866     A.U. after   11 cycles
 E2 =    -0.7601918663D-01 EUMP2 =    -0.21898561652897D+01
 CCSD(T)
 CCSD(T)= -0.22070200108D+01

 The electronic state is 2-SGG.
 Alpha  occ. eigenvalues --   -0.37652  -0.33704   0.14310
 Alpha virt. eigenvalues --    0.36977   0.49796   0.66747   0.85988   0.87646
 Alpha virt. eigenvalues --    0.91272   0.91272   0.95237   0.95237   1.21191
 Alpha virt. eigenvalues --    1.27408   1.27408   1.45357   1.45357   1.53751

 Mulliken charges and spin densities:
               1          2
     1  H   -0.309338   0.159707
     2  H   -0.190662   0.340293
     3  H   -0.190662   0.340293
     4  H   -0.309338   0.159707
 Sum of Mulliken charges =  -1.00000   1.00000

 Dipole moment (field-independent basis, Debye):
    X=             -0.0000    Y=              0.0000    Z=              0.0000  Tot=              0.0000
 Quadrupole moment (field-independent basis, Debye-Ang):
   XX=             -7.5237   YY=             -7.5237   ZZ=            -23.3605
   XY=              0.0000   XZ=              0.0000   YZ=             -0.0000

 SDQ=-2.2054423\CCSD=-2.2061231\CCSD(T)=-2.20702\RMSD=2.018e-09\PG=D*H
 Normal termination of Gaussian 16 at Tue Feb 13 12:20:49 2024.
