 Gaussian 16, Revision A.03,
 Gaussian 16:  ES64L-G16RevA.03 25-Dec-2016

 --------------------
 #p ROCCSD(T)/cc-pVTZ
 --------------------

 --------
 H2_H2_78
 --------
 Symbolic Z-matrix:
 Charge = -1 Multiplicity = 2

                         Standard orientation:
 ---------------------------------------------------------------------
 Center     Atomic      Atomic             Coordinates (Angstroms)
 Number     Number       Type             X           Y           Z
 ---------------------------------------------------------------------
      1          1           0        0.000000    0.000000    1.760000
      2          1           0        0.000000    0.000000    1.020000
      3          1           0        0.000000    0.000000   -1.020000
      4          1           0        0.000000    0.000000   -1.760000
 ---------------------------------------------------------------------

 SCF Done:  E(ROHF) =  -2.11180277674     A.U. after   11 cycles
 E2 =    -0.7657521775D-01 EUMP2 =    -0.21883779944894D+01
 CCSD(T)
 CCSD(T)= -0.22055768466D+01

 The electronic state is 2-SGG.
 Alpha  occ. eigenvalues --   -0.37851  -0.33387   0.14478
 Alpha virt. eigenvalues --    0.37033   0.50123   0.67555   0.84534   0.88089
 Alpha virt. eigenvalues --    0.90902   0.90902   0.95610   0.95610   1.22513
 Alpha virt. eigenvalues --    1.26686   1.26686   1.46998   1.46998   1.56002

 Mulliken charges and spin densities:
               1          2
     1  H   -0.317433   0.175270
     2  H   -0.182567   0.324730
     3  H   -0.182567   0.324730
     4  H   -0.317433   0.175270
 Sum of Mulliken charges =  -1.00000   1.00000

 Dipole moment (field-independent basis, Debye):
    X=             -0.0000    Y=             -0.0000    Z=              0.0000  Tot=              0.0000
 Quadrupole moment (field-independent basis, Debye-Ang):
   XX=             -7.5092   YY=             -7.5092   ZZ=            -23.4769
   XY=              0.0000   XZ=              0.0000   YZ=             -0.0000

 SDQ=-2.2039915\CCSD=-2.2046376\CCSD(T)=-2.2055768\RMSD=1.342e-09\PG=D*
 Normal termination of Gaussian 16 at Tue Feb 13 12:20:24 2024.
