 Gaussian 16, Revision A.03,
 Gaussian 16:  ES64L-G16RevA.03 25-Dec-2016

 --------------------
 #p ROCCSD(T)/cc-pVTZ
 --------------------

 --------
 H2_H2_43
 --------
 Symbolic Z-matrix:
 Charge = -1 Multiplicity = 2

                         Standard orientation:
 ---------------------------------------------------------------------
 Center     Atomic      Atomic             Coordinates (Angstroms)
 Number     Number       Type             X           Y           Z
 ---------------------------------------------------------------------
      1          1           0       -0.145447   -1.405530   -0.000000
      2          1           0        0.276703   -0.797755   -0.000000
      3          1           0       -0.000000    0.737509    0.000000
      4          1           0       -0.131257    1.465776    0.000000
 ---------------------------------------------------------------------

 SCF Done:  E(ROHF) =  -2.09886050144     A.U. after   15 cycles
 E2 =    -0.7817889290D-01 EUMP2 =    -0.21770393943440D+01
 CCSD(T)
 CCSD(T)= -0.21945448130D+01

 The electronic state is 2-A'.
 Alpha  occ. eigenvalues --   -0.40849  -0.30453   0.15041
 Alpha virt. eigenvalues --    0.37438   0.52846   0.59638   0.78128   0.87145
 Alpha virt. eigenvalues --    0.90121   0.94131   0.98539   1.05404   1.25378
 Alpha virt. eigenvalues --    1.27164   1.39856   1.51882   1.55914   1.75618

 Mulliken charges and spin densities:
               1          2
     1  H   -0.514528   0.525169
     2  H   -0.233905   0.237510
     3  H    0.043451   0.098490
     4  H   -0.295018   0.138831
 Sum of Mulliken charges =  -1.00000   1.00000

 Dipole moment (field-independent basis, Debye):
    X=              0.4109    Y=              2.6208    Z=              0.0000  Tot=              2.6528
 Quadrupole moment (field-independent basis, Debye-Ang):
   XX=             -9.1180   YY=            -21.3851   ZZ=             -7.4779
   XY=             -1.5057   XZ=              0.0000   YZ=             -0.0000

 PMP2-0=-2.1770394\MP4SDQ=-2.1925693\CCSD=-2.1934087\CCSD(T)=-2.1945448
 Normal termination of Gaussian 16 at Tue Feb 13 12:18:18 2024.
