 Gaussian 16, Revision A.03,
 Gaussian 16:  ES64L-G16RevA.03 25-Dec-2016

 --------------------
 #p ROCCSD(T)/cc-pVTZ
 --------------------

 ---------
 H2_H2_277
 ---------
 Symbolic Z-matrix:
 Charge = -1 Multiplicity = 2

                         Standard orientation:
 ---------------------------------------------------------------------
 Center     Atomic      Atomic             Coordinates (Angstroms)
 Number     Number       Type             X           Y           Z
 ---------------------------------------------------------------------
      1          1           0       -0.225114   -2.935101    0.000000
      2          1           0        0.267394   -2.382800    0.000000
      3          1           0       -0.000000    2.289555   -0.000000
      4          1           0       -0.042280    3.028346   -0.000000
 ---------------------------------------------------------------------

 SCF Done:  E(ROHF) =  -2.11591974326     A.U. after   13 cycles
 E2 =    -0.7155616728D-01 EUMP2 =    -0.21874759105407D+01
 CCSD(T)
 CCSD(T)= -0.22040559271D+01

 The electronic state is 2-A'.
 Alpha  occ. eigenvalues --   -0.40336  -0.40111   0.14763
 Alpha virt. eigenvalues --    0.28577   0.45813   0.48544   0.80804   0.85016
 Alpha virt. eigenvalues --    0.88672   0.88673   0.88799   0.88917   1.28457
 Alpha virt. eigenvalues --    1.28602   1.30828   1.30846   1.30932   1.31030

 Mulliken charges and spin densities:
               1          2
     1  H   -0.223612   0.165075
     2  H   -0.276107   0.334647
     3  H   -0.261270   0.323360
     4  H   -0.239011   0.176918
 Sum of Mulliken charges =  -1.00000   1.00000

 Dipole moment (field-independent basis, Debye):
    X=             -0.2339    Y=             -0.0136    Z=              0.0000  Tot=              0.2343
 Quadrupole moment (field-independent basis, Debye-Ang):
   XX=             -8.9489   YY=            -42.7377   ZZ=             -7.7343
   XY=             -0.5089   XZ=              0.0000   YZ=              0.0000

 MP2-0=-2.1874759\MP4SDQ=-2.2026008\CCSD=-2.2034581\CCSD(T)=-2.2040559\
 Normal termination of Gaussian 16 at Tue Feb 13 12:33:09 2024.
