 Gaussian 16, Revision A.03,
 Gaussian 16:  ES64L-G16RevA.03 25-Dec-2016

 --------------------
 #p ROCCSD(T)/cc-pVTZ
 --------------------

 ---------
 H2_H2_270
 ---------
 Symbolic Z-matrix:
 Charge = -1 Multiplicity = 2

                         Standard orientation:
 ---------------------------------------------------------------------
 Center     Atomic      Atomic             Coordinates (Angstroms)
 Number     Number       Type             X           Y           Z
 ---------------------------------------------------------------------
      1          1           0        0.000000    0.000000    3.040000
      2          1           0        0.000000    0.000000    2.300000
      3          1           0        0.000000    0.000000   -2.300000
      4          1           0        0.000000    0.000000   -3.040000
 ---------------------------------------------------------------------

 SCF Done:  E(ROHF) =  -2.12092926844     A.U. after   10 cycles
 E2 =    -0.7127070216D-01 EUMP2 =    -0.21921999706020D+01
 CCSD(T)
 CCSD(T)= -0.22087490135D+01

 The electronic state is 2-SGG.
 Alpha  occ. eigenvalues --   -0.40312  -0.40087   0.14243
 Alpha virt. eigenvalues --    0.29449   0.45770   0.48748   0.80471   0.86172
 Alpha virt. eigenvalues --    0.88744   0.88744   0.88755   0.88755   1.28619
 Alpha virt. eigenvalues --    1.28694   1.30924   1.30924   1.31012   1.31012

 Mulliken charges and spin densities:
               1          2
     1  H   -0.229547   0.159286
     2  H   -0.270453   0.340714
     3  H   -0.270453   0.340714
     4  H   -0.229547   0.159286
 Sum of Mulliken charges =  -1.00000   1.00000

 Dipole moment (field-independent basis, Debye):
    X=             -0.0000    Y=              0.0000    Z=              0.0000  Tot=              0.0000
 Quadrupole moment (field-independent basis, Debye-Ang):
   XX=             -7.7515   YY=             -7.7515   ZZ=            -43.1665
   XY=              0.0000   XZ=              0.0000   YZ=             -0.0000

 -2.2072955\CCSD=-2.2081716\CCSD(T)=-2.208749\RMSD=1.758e-09\PG=D*H [C*
 Normal termination of Gaussian 16 at Tue Feb 13 12:32:43 2024.
