 Gaussian 16, Revision A.03,
 Gaussian 16:  ES64L-G16RevA.03 25-Dec-2016

 --------------------
 #p ROCCSD(T)/cc-pVTZ
 --------------------

 --------
 H2_H2_29
 --------
 Symbolic Z-matrix:
 Charge = -1 Multiplicity = 2

                         Standard orientation:
 ---------------------------------------------------------------------
 Center     Atomic      Atomic             Coordinates (Angstroms)
 Number     Number       Type             X           Y           Z
 ---------------------------------------------------------------------
      1          1           0       -0.217054   -1.004558    0.000000
      2          1           0        0.476117   -0.745495    0.000000
      3          1           0       -0.000000    0.528441    0.000000
      4          1           0       -0.259064    1.221612    0.000000
 ---------------------------------------------------------------------

 SCF Done:  E(ROHF) =  -2.09178191294     A.U. after   13 cycles
 E2 =    -0.7819057668D-01 EUMP2 =    -0.21699724896229D+01
 CCSD(T)
 CCSD(T)= -0.21868452044D+01

 The electronic state is 2-A'.
 Alpha  occ. eigenvalues --   -0.43665  -0.26177   0.13687
 Alpha virt. eigenvalues --    0.39022   0.52045   0.58284   0.81417   0.85233
 Alpha virt. eigenvalues --    0.90050   0.93946   1.02623   1.20905   1.30113
 Alpha virt. eigenvalues --    1.34928   1.39244   1.49333   1.69045   1.72418

 Mulliken charges and spin densities:
               1          2
     1  H   -0.543159   0.600653
     2  H   -0.339936   0.321821
     3  H    0.160940   0.019009
     4  H   -0.277845   0.058518
 Sum of Mulliken charges =  -1.00000   1.00000

 Dipole moment (field-independent basis, Debye):
    X=              0.2717    Y=              2.7166    Z=              0.0000  Tot=              2.7302
 Quadrupole moment (field-independent basis, Debye-Ang):
   XX=            -12.4851   YY=            -13.7752   ZZ=             -7.4666
   XY=             -1.1357   XZ=              0.0000   YZ=              0.0000

 SDQ=-2.1851004\CCSD=-2.1857405\CCSD(T)=-2.1868452\RMSD=8.930e-09\PG=CS
 Normal termination of Gaussian 16 at Tue Feb 13 12:17:24 2024.
