 Gaussian 16, Revision A.03,
 Gaussian 16:  ES64L-G16RevA.03 25-Dec-2016

 --------------------
 #p ROCCSD(T)/cc-pVTZ
 --------------------

 ---------
 H2_H2_264
 ---------
 Symbolic Z-matrix:
 Charge = -1 Multiplicity = 2

                         Standard orientation:
 ---------------------------------------------------------------------
 Center     Atomic      Atomic             Coordinates (Angstroms)
 Number     Number       Type             X           Y           Z
 ---------------------------------------------------------------------
      1          1           0        0.000000    0.000000    3.000000
      2          1           0        0.000000    0.000000    2.260000
      3          1           0        0.000000    0.000000   -2.260000
      4          1           0        0.000000    0.000000   -3.000000
 ---------------------------------------------------------------------

 SCF Done:  E(ROHF) =  -2.12235961791     A.U. after   10 cycles
 E2 =    -0.7118486152D-01 EUMP2 =    -0.21935444794289D+01
 CCSD(T)
 CCSD(T)= -0.22100926706D+01

 The electronic state is 2-SGG.
 Alpha  occ. eigenvalues --   -0.40225  -0.39986   0.14091
 Alpha virt. eigenvalues --    0.29810   0.45765   0.49006   0.80527   0.86555
 Alpha virt. eigenvalues --    0.88834   0.88834   0.88846   0.88846   1.28690
 Alpha virt. eigenvalues --    1.28856   1.31027   1.31027   1.31120   1.31120

 Mulliken charges and spin densities:
               1          2
     1  H   -0.226671   0.152589
     2  H   -0.273329   0.347411
     3  H   -0.273329   0.347411
     4  H   -0.226671   0.152589
 Sum of Mulliken charges =  -1.00000   1.00000

 Dipole moment (field-independent basis, Debye):
    X=             -0.0000    Y=              0.0000    Z=             -0.0000  Tot=              0.0000
 Quadrupole moment (field-independent basis, Debye-Ang):
   XX=             -7.7542   YY=             -7.7542   ZZ=            -41.8291
   XY=              0.0000   XZ=              0.0000   YZ=             -0.0000

 MP4SDQ=-2.2086376\CCSD=-2.2095213\CCSD(T)=-2.2100927\RMSD=2.043e-09\PG
 Normal termination of Gaussian 16 at Tue Feb 13 12:32:22 2024.
