 Gaussian 16, Revision A.03,
 Gaussian 16:  ES64L-G16RevA.03 25-Dec-2016

 --------------------
 #p ROCCSD(T)/cc-pVTZ
 --------------------

 ---------
 H2_H2_122
 ---------
 Symbolic Z-matrix:
 Charge = -1 Multiplicity = 2

                         Standard orientation:
 ---------------------------------------------------------------------
 Center     Atomic      Atomic             Coordinates (Angstroms)
 Number     Number       Type             X           Y           Z
 ---------------------------------------------------------------------
      1          1           0       -0.304448   -1.555815    0.000000
      2          1           0        0.425572   -1.434691    0.000000
      3          1           0       -0.000000    1.130243    0.000000
      4          1           0       -0.121124    1.860263    0.000000
 ---------------------------------------------------------------------

 SCF Done:  E(ROHF) =  -2.10775324072     A.U. after   18 cycles
 E2 =    -0.7183367333D-01 EUMP2 =    -0.21795869140471D+01
 CCSD(T)
 CCSD(T)= -0.21965310164D+01

 The electronic state is 2-A'.
 Alpha  occ. eigenvalues --   -0.42172  -0.32400   0.15198
 Alpha virt. eigenvalues --    0.33832   0.47569   0.56259   0.82888   0.85136
 Alpha virt. eigenvalues --    0.86432   0.90505   0.96866   1.02182   1.26176
 Alpha virt. eigenvalues --    1.29454   1.29567   1.38385   1.39196   1.41962

 Mulliken charges and spin densities:
               1          2
     1  H   -0.403492   0.397027
     2  H   -0.517614   0.527147
     3  H    0.074206   0.050872
     4  H   -0.153100   0.024953
 Sum of Mulliken charges =  -1.00000   1.00000

 Dipole moment (field-independent basis, Debye):
    X=             -0.4646    Y=              5.6696    Z=              0.0000  Tot=              5.6886
 Quadrupole moment (field-independent basis, Debye-Ang):
   XX=            -13.1477   YY=            -19.3060   ZZ=             -7.6603
   XY=             -0.5989   XZ=              0.0000   YZ=              0.0000

 4SDQ=-2.1948585\CCSD=-2.1959542\CCSD(T)=-2.196531\RMSD=1.221e-09\PG=CS
 Normal termination of Gaussian 16 at Tue Feb 13 12:23:16 2024.
