 Gaussian 16, Revision A.03,
 Gaussian 16:  ES64L-G16RevA.03 25-Dec-2016

 --------------------
 #p ROCCSD(T)/cc-pVTZ
 --------------------

 ---------
 H2_H2_234
 ---------
 Symbolic Z-matrix:
 Charge = -1 Multiplicity = 2

                         Standard orientation:
 ---------------------------------------------------------------------
 Center     Atomic      Atomic             Coordinates (Angstroms)
 Number     Number       Type             X           Y           Z
 ---------------------------------------------------------------------
      1          1           0        0.000000    0.000000    2.800000
      2          1           0        0.000000    0.000000    2.060000
      3          1           0        0.000000    0.000000   -2.060000
      4          1           0        0.000000    0.000000   -2.800000
 ---------------------------------------------------------------------

 SCF Done:  E(ROHF) =  -2.12902245080     A.U. after   10 cycles
 E2 =    -0.7081769090D-01 EUMP2 =    -0.21998401416935D+01
 CCSD(T)
 CCSD(T)= -0.22163890420D+01

 The electronic state is 2-SGG.
 Alpha  occ. eigenvalues --   -0.39703  -0.39371   0.13360
 Alpha virt. eigenvalues --    0.31678   0.45818   0.50604   0.81285   0.88470
 Alpha virt. eigenvalues --    0.89383   0.89383   0.89402   0.89402   1.29006
 Alpha virt. eigenvalues --    1.29915   1.31633   1.31633   1.31773   1.31773

 Mulliken charges and spin densities:
               1          2
     1  H   -0.214258   0.118857
     2  H   -0.285742   0.381143
     3  H   -0.285742   0.381143
     4  H   -0.214258   0.118857
 Sum of Mulliken charges =  -1.00000   1.00000

 Dipole moment (field-independent basis, Debye):
    X=             -0.0000    Y=             -0.0000    Z=             -0.0000  Tot=              0.0000
 Quadrupole moment (field-independent basis, Debye-Ang):
   XX=             -7.7539   YY=             -7.7539   ZZ=            -35.5863
   XY=              0.0000   XZ=              0.0000   YZ=             -0.0000

 MP4SDQ=-2.2149232\CCSD=-2.2158436\CCSD(T)=-2.216389\RMSD=3.816e-09\PG=
 Normal termination of Gaussian 16 at Tue Feb 13 12:30:29 2024.
