 Gaussian 16, Revision A.03,
 Gaussian 16:  ES64L-G16RevA.03 25-Dec-2016

 --------------------
 #p ROCCSD(T)/cc-pVTZ
 --------------------

 ---------
 H2_H2_185
 ---------
 Symbolic Z-matrix:
 Charge = -1 Multiplicity = 2

                         Standard orientation:
 ---------------------------------------------------------------------
 Center     Atomic      Atomic             Coordinates (Angstroms)
 Number     Number       Type             X           Y           Z
 ---------------------------------------------------------------------
      1          1           0       -0.323069   -1.957722    0.000000
      2          1           0        0.411614   -1.869177    0.000000
      3          1           0       -0.000000    1.546108    0.000000
      4          1           0       -0.088545    2.280791    0.000000
 ---------------------------------------------------------------------

 SCF Done:  E(ROHF) =  -2.10729169385     A.U. after   23 cycles
 E2 =    -0.7220386689D-01 EUMP2 =    -0.21794955607380D+01
 CCSD(T)
 CCSD(T)= -0.21963928213D+01

 The electronic state is 2-A'.
 Alpha  occ. eigenvalues --   -0.38990  -0.37350   0.15542
 Alpha virt. eigenvalues --    0.31043   0.46117   0.53732   0.82408   0.84584
 Alpha virt. eigenvalues --    0.90000   0.90226   0.91597   0.96665   1.29150
 Alpha virt. eigenvalues --    1.31955   1.32215   1.32989   1.33484   1.34054

 Mulliken charges and spin densities:
               1          2
     1  H   -0.117683   0.066959
     2  H   -0.411315   0.461351
     3  H   -0.210570   0.300242
     4  H   -0.260433   0.171449
 Sum of Mulliken charges =  -1.00000   1.00000

 Dipole moment (field-independent basis, Debye):
    X=             -0.9077    Y=              0.4912    Z=              0.0000  Tot=              1.0321
 Quadrupole moment (field-independent basis, Debye-Ang):
   XX=            -10.4891   YY=            -26.9988   ZZ=             -7.6810
   XY=              1.0893   XZ=              0.0000   YZ=              0.0000

 P4SDQ=-2.1948577\CCSD=-2.195746\CCSD(T)=-2.1963928\RMSD=2.758e-09\PG=C
 Normal termination of Gaussian 16 at Tue Feb 13 12:27:18 2024.
