 Gaussian 16, Revision A.03,
 Gaussian 16:  ES64L-G16RevA.03 25-Dec-2016

 --------------------
 #p ROCCSD(T)/cc-pVTZ
 --------------------

 --------
 H2_H2_35
 --------
 Symbolic Z-matrix:
 Charge = -1 Multiplicity = 2

                         Standard orientation:
 ---------------------------------------------------------------------
 Center     Atomic      Atomic             Coordinates (Angstroms)
 Number     Number       Type             X           Y           Z
 ---------------------------------------------------------------------
      1          1           0       -0.228765   -1.036685    0.000000
      2          1           0        0.470602   -0.794848    0.000000
      3          1           0        0.000000    0.566083    0.000000
      4          1           0       -0.241837    1.265450    0.000000
 ---------------------------------------------------------------------

 SCF Done:  E(ROHF) =  -2.09621622539     A.U. after   14 cycles
 E2 =    -0.7730847722D-01 EUMP2 =    -0.21735247026090D+01
 CCSD(T)
 CCSD(T)= -0.21904169403D+01

 The electronic state is 2-A'.
 Alpha  occ. eigenvalues --   -0.42746  -0.27299   0.13886
 Alpha virt. eigenvalues --    0.38654   0.52190   0.57695   0.81511   0.85576
 Alpha virt. eigenvalues --    0.89596   0.93157   1.01551   1.18416   1.28880
 Alpha virt. eigenvalues --    1.34877   1.38881   1.47461   1.66322   1.70001

 Mulliken charges and spin densities:
               1          2
     1  H   -0.531788   0.580401
     2  H   -0.364338   0.347577
     3  H    0.162157   0.020219
     4  H   -0.266031   0.051804
 Sum of Mulliken charges =  -1.00000   1.00000

 Dipole moment (field-independent basis, Debye):
    X=              0.1816    Y=              2.9640    Z=              0.0000  Tot=              2.9696
 Quadrupole moment (field-independent basis, Debye-Ang):
   XX=            -12.6145   YY=            -13.9109   ZZ=             -7.4991
   XY=             -1.1380   XZ=              0.0000   YZ=              0.0000

 4SDQ=-2.1887007\CCSD=-2.1893855\CCSD(T)=-2.1904169\RMSD=1.640e-09\PG=C
 Normal termination of Gaussian 16 at Tue Feb 13 12:17:46 2024.
