 Gaussian 16, Revision A.03,
 Gaussian 16:  ES64L-G16RevA.03 25-Dec-2016

 --------------------
 #p ROCCSD(T)/cc-pVTZ
 --------------------

 ---------
 H2_H2_176
 ---------
 Symbolic Z-matrix:
 Charge = -1 Multiplicity = 2

                         Standard orientation:
 ---------------------------------------------------------------------
 Center     Atomic      Atomic             Coordinates (Angstroms)
 Number     Number       Type             X           Y           Z
 ---------------------------------------------------------------------
      1          1           0       -0.321078   -1.899726    0.000000
      2          1           0        0.413170   -1.807634    0.000000
      3          1           0        0.000000    1.486556    0.000000
      4          1           0       -0.092092    2.220804    0.000000
 ---------------------------------------------------------------------

 SCF Done:  E(ROHF) =  -2.10721300267     A.U. after   21 cycles
 E2 =    -0.7201813765D-01 EUMP2 =    -0.21792311403213D+01
 CCSD(T)
 CCSD(T)= -0.21963175650D+01

 The electronic state is 2-A'.
 Alpha  occ. eigenvalues --   -0.41365  -0.35009   0.15501
 Alpha virt. eigenvalues --    0.31331   0.45630   0.54713   0.81186   0.85857
 Alpha virt. eigenvalues --    0.87436   0.88376   0.94148   0.99123   1.27379
 Alpha virt. eigenvalues --    1.29982   1.30085   1.34706   1.35787   1.36230

 Mulliken charges and spin densities:
               1          2
     1  H   -0.213937   0.170209
     2  H   -0.492587   0.536234
     3  H   -0.097719   0.194285
     4  H   -0.195757   0.099272
 Sum of Mulliken charges =  -1.00000   1.00000

 Dipole moment (field-independent basis, Debye):
    X=             -0.9070    Y=              3.5155    Z=              0.0000  Tot=              3.6306
 Quadrupole moment (field-independent basis, Debye-Ang):
   XX=            -11.7170   YY=            -25.2446   ZZ=             -7.6716
   XY=              0.6458   XZ=              0.0000   YZ=              0.0000

 SDQ=-2.1945748\CCSD=-2.195672\CCSD(T)=-2.1963176\RMSD=7.238e-09\PG=CS
 Normal termination of Gaussian 16 at Tue Feb 13 12:26:42 2024.
