 Gaussian 16, Revision A.03,
 Gaussian 16:  ES64L-G16RevA.03 25-Dec-2016

 --------------------
 #p ROCCSD(T)/cc-pVTZ
 --------------------

 ---------
 H2_H2_269
 ---------
 Symbolic Z-matrix:
 Charge = -1 Multiplicity = 2

                         Standard orientation:
 ---------------------------------------------------------------------
 Center     Atomic      Atomic             Coordinates (Angstroms)
 Number     Number       Type             X           Y           Z
 ---------------------------------------------------------------------
      1          1           0       -0.336019   -2.504265    0.000000
      2          1           0        0.401112   -2.439172    0.000000
      3          1           0       -0.000000    2.103152    0.000000
      4          1           0       -0.065093    2.840284    0.000000
 ---------------------------------------------------------------------

 SCF Done:  E(ROHF) =  -2.10499931657     A.U. after   22 cycles
 E2 =    -0.7097860985D-01 EUMP2 =    -0.21759779264176D+01
 CCSD(T)
 CCSD(T)= -0.21931440119D+01

 The electronic state is 2-A'.
 Alpha  occ. eigenvalues --   -0.46781  -0.32649   0.15704
 Alpha virt. eigenvalues --    0.27863   0.42535   0.52981   0.76643   0.81918
 Alpha virt. eigenvalues --    0.82094   0.89237   0.96713   0.96713   1.22326
 Alpha virt. eigenvalues --    1.24458   1.24774   1.35536   1.38116   1.38117

 Mulliken charges and spin densities:
               1          2
     1  H   -0.009556  -0.007172
     2  H   -0.071572   0.088186
     3  H   -0.467324   0.486727
     4  H   -0.451549   0.432259
 Sum of Mulliken charges =  -1.00000   1.00000

 Dipole moment (field-independent basis, Debye):
    X=             -0.1163    Y=             -9.8033    Z=              0.0000  Tot=              9.8040
 Quadrupole moment (field-independent basis, Debye-Ang):
   XX=             -7.5671   YY=            -42.1544   ZZ=             -7.6946
   XY=              1.3099   XZ=              0.0000   YZ=              0.0000

 4SDQ=-2.1911516\CCSD=-2.1925605\CCSD(T)=-2.193144\RMSD=4.586e-10\PG=CS
 Normal termination of Gaussian 16 at Tue Feb 13 12:32:38 2024.
