 Gaussian 16, Revision A.03,
 Gaussian 16:  ES64L-G16RevA.03 25-Dec-2016

 --------------------
 #p ROCCSD(T)/cc-pVTZ
 --------------------

 ---------
 H2_H2_130
 ---------
 Symbolic Z-matrix:
 Charge = -1 Multiplicity = 2

                         Standard orientation:
 ---------------------------------------------------------------------
 Center     Atomic      Atomic             Coordinates (Angstroms)
 Number     Number       Type             X           Y           Z
 ---------------------------------------------------------------------
      1          1           0       -0.197366   -1.966913    0.000000
      2          1           0        0.271129   -1.394102    0.000000
      3          1           0       -0.000000    1.312351   -0.000000
      4          1           0       -0.073763    2.048665   -0.000000
 ---------------------------------------------------------------------

 SCF Done:  E(ROHF) =  -2.12052277605     A.U. after   13 cycles
 E2 =    -0.7292707205D-01 EUMP2 =    -0.21934498481023D+01
 CCSD(T)
 CCSD(T)= -0.22103678284D+01

 The electronic state is 2-A'.
 Alpha  occ. eigenvalues --   -0.37613  -0.35613   0.13899
 Alpha virt. eigenvalues --    0.35216   0.47937   0.58325   0.83554   0.89405
 Alpha virt. eigenvalues --    0.91681   0.92201   0.93131   0.97821   1.25278
 Alpha virt. eigenvalues --    1.31408   1.32218   1.35718   1.36891   1.43004

 Mulliken charges and spin densities:
               1          2
     1  H   -0.234255   0.106248
     2  H   -0.305952   0.433420
     3  H   -0.206594   0.361865
     4  H   -0.253200   0.098467
 Sum of Mulliken charges =  -1.00000   1.00000

 Dipole moment (field-independent basis, Debye):
    X=             -0.3514    Y=              0.5295    Z=             -0.0000  Tot=              0.6355
 Quadrupole moment (field-independent basis, Debye-Ang):
   XX=             -8.5222   YY=            -23.0626   ZZ=             -7.5995
   XY=             -0.6642   XZ=              0.0000   YZ=              0.0000

 MP2-0=-2.1934498\MP4SDQ=-2.2088281\CCSD=-2.2096857\CCSD(T)=-2.2103678\
 Normal termination of Gaussian 16 at Tue Feb 13 12:23:46 2024.
