 Gaussian 16, Revision A.03,
 Gaussian 16:  ES64L-G16RevA.03 25-Dec-2016

 --------------------
 #p ROCCSD(T)/cc-pVTZ
 --------------------

 ---------
 H2_H2_197
 ---------
 Symbolic Z-matrix:
 Charge = -1 Multiplicity = 2

                         Standard orientation:
 ---------------------------------------------------------------------
 Center     Atomic      Atomic             Coordinates (Angstroms)
 Number     Number       Type             X           Y           Z
 ---------------------------------------------------------------------
      1          1           0       -0.325488   -2.035266    0.000000
      2          1           0        0.409705   -1.951049    0.000000
      3          1           0       -0.000000    1.625561    0.000000
      4          1           0       -0.084217    2.360754    0.000000
 ---------------------------------------------------------------------

 SCF Done:  E(ROHF) =  -2.10750460153     A.U. after   16 cycles
 E2 =    -0.7189296991D-01 EUMP2 =    -0.21793975714415D+01
 CCSD(T)
 CCSD(T)= -0.21963688005D+01

 The electronic state is 2-A'.
 Alpha  occ. eigenvalues --   -0.40730  -0.35773   0.15508
 Alpha virt. eigenvalues --    0.30689   0.45877   0.53365   0.81915   0.83505
 Alpha virt. eigenvalues --    0.88111   0.93343   0.93413   0.93926   1.28363
 Alpha virt. eigenvalues --    1.30275   1.30742   1.33107   1.35186   1.35309

 Mulliken charges and spin densities:
               1          2
     1  H   -0.033492  -0.012447
     2  H   -0.273907   0.318890
     3  H   -0.347331   0.419697
     4  H   -0.345270   0.273860
 Sum of Mulliken charges =  -1.00000   1.00000

 Dipole moment (field-independent basis, Debye):
    X=             -0.6957    Y=             -3.5811    Z=              0.0000  Tot=              3.6480
 Quadrupole moment (field-independent basis, Debye-Ang):
   XX=             -8.9602   YY=            -29.5700   ZZ=             -7.6941
   XY=              1.4180   XZ=              0.0000   YZ=              0.0000

 SDQ=-2.1947089\CCSD=-2.1957418\CCSD(T)=-2.1963688\RMSD=1.180e-09\PG=CS
 Normal termination of Gaussian 16 at Tue Feb 13 12:28:04 2024.
