 Gaussian 16, Revision A.03,
 Gaussian 16:  ES64L-G16RevA.03 25-Dec-2016

 --------------------
 #p ROCCSD(T)/cc-pVTZ
 --------------------

 ---------
 H2_H2_225
 ---------
 Symbolic Z-matrix:
 Charge = -1 Multiplicity = 2

                         Standard orientation:
 ---------------------------------------------------------------------
 Center     Atomic      Atomic             Coordinates (Angstroms)
 Number     Number       Type             X           Y           Z
 ---------------------------------------------------------------------
      1          1           0        0.000000    0.000000    2.740000
      2          1           0        0.000000    0.000000    2.000000
      3          1           0        0.000000    0.000000   -2.000000
      4          1           0        0.000000    0.000000   -2.740000
 ---------------------------------------------------------------------

 SCF Done:  E(ROHF) =  -2.13063942767     A.U. after   10 cycles
 E2 =    -0.7074691170D-01 EUMP2 =    -0.22013863393681D+01
 CCSD(T)
 CCSD(T)= -0.22179389922D+01

 The electronic state is 2-SGG.
 Alpha  occ. eigenvalues --   -0.39518  -0.39146   0.13172
 Alpha virt. eigenvalues --    0.32231   0.45871   0.51195   0.81704   0.88975
 Alpha virt. eigenvalues --    0.89583   0.89583   0.89607   0.89607   1.29107
 Alpha virt. eigenvalues --    1.30313   1.31841   1.31841   1.32009   1.32009

 Mulliken charges and spin densities:
               1          2
     1  H   -0.211836   0.109509
     2  H   -0.288164   0.390491
     3  H   -0.288164   0.390491
     4  H   -0.211836   0.109509
 Sum of Mulliken charges =  -1.00000   1.00000

 Dipole moment (field-independent basis, Debye):
    X=             -0.0000    Y=             -0.0000    Z=             -0.0000  Tot=              0.0000
 Quadrupole moment (field-independent basis, Debye-Ang):
   XX=             -7.7484   YY=             -7.7484   ZZ=            -33.9099
   XY=              0.0000   XZ=              0.0000   YZ=             -0.0000

 4SDQ=-2.216469\CCSD=-2.2173986\CCSD(T)=-2.217939\RMSD=4.334e-09\PG=D*H
 Normal termination of Gaussian 16 at Tue Feb 13 12:29:54 2024.
