 Gaussian 16, Revision A.03,
 Gaussian 16:  ES64L-G16RevA.03 25-Dec-2016

 --------------------
 #p ROCCSD(T)/cc-pVTZ
 --------------------

 --------
 H2_H2_69
 --------
 Symbolic Z-matrix:
 Charge = -1 Multiplicity = 2

                         Standard orientation:
 ---------------------------------------------------------------------
 Center     Atomic      Atomic             Coordinates (Angstroms)
 Number     Number       Type             X           Y           Z
 ---------------------------------------------------------------------
      1          1           0        0.000000    0.000000    1.700000
      2          1           0        0.000000    0.000000    0.960000
      3          1           0        0.000000    0.000000   -0.960000
      4          1           0        0.000000    0.000000   -1.700000
 ---------------------------------------------------------------------

 SCF Done:  E(ROHF) =  -2.10863489294     A.U. after   11 cycles
 E2 =    -0.7744346506D-01 EUMP2 =    -0.21860783579973D+01
 CCSD(T)
 CCSD(T)= -0.22033239296D+01

 The electronic state is 2-SGG.
 Alpha  occ. eigenvalues --   -0.38253  -0.32873   0.14721
 Alpha virt. eigenvalues --    0.37117   0.50658   0.68746   0.82405   0.88992
 Alpha virt. eigenvalues --    0.90223   0.90223   0.96196   0.96196   1.24950
 Alpha virt. eigenvalues --    1.25769   1.25769   1.49731   1.49731   1.59567

 Mulliken charges and spin densities:
               1          2
     1  H   -0.330881   0.202296
     2  H   -0.169119   0.297704
     3  H   -0.169119   0.297704
     4  H   -0.330881   0.202296
 Sum of Mulliken charges =  -1.00000   1.00000

 Dipole moment (field-independent basis, Debye):
    X=             -0.0000    Y=             -0.0000    Z=              0.0000  Tot=              0.0000
 Quadrupole moment (field-independent basis, Debye-Ang):
   XX=             -7.4858   YY=             -7.4858   ZZ=            -23.6980
   XY=              0.0000   XZ=              0.0000   YZ=             -0.0000

 4SDQ=-2.2017233\CCSD=-2.2023162\CCSD(T)=-2.2033239\RMSD=1.679e-09\PG=D
 Normal termination of Gaussian 16 at Tue Feb 13 12:19:52 2024.
