 Gaussian 16, Revision A.03,
 Gaussian 16:  ES64L-G16RevA.03 25-Dec-2016

 --------------------
 #p ROCCSD(T)/cc-pVTZ
 --------------------

 ---------
 H2_H2_273
 ---------
 Symbolic Z-matrix:
 Charge = -1 Multiplicity = 2

                         Standard orientation:
 ---------------------------------------------------------------------
 Center     Atomic      Atomic             Coordinates (Angstroms)
 Number     Number       Type             X           Y           Z
 ---------------------------------------------------------------------
      1          1           0        0.000000    0.000000    3.060000
      2          1           0        0.000000    0.000000    2.320000
      3          1           0        0.000000    0.000000   -2.320000
      4          1           0        0.000000    0.000000   -3.060000
 ---------------------------------------------------------------------

 SCF Done:  E(ROHF) =  -2.12021598697     A.U. after   10 cycles
 E2 =    -0.7131401171D-01 EUMP2 =    -0.21915299986765D+01
 CCSD(T)
 CCSD(T)= -0.22080794910D+01

 The electronic state is 2-SGG.
 Alpha  occ. eigenvalues --   -0.40353  -0.40135   0.14318
 Alpha virt. eigenvalues --    0.29271   0.45773   0.48626   0.80452   0.85983
 Alpha virt. eigenvalues --    0.88702   0.88702   0.88712   0.88712   1.28583
 Alpha virt. eigenvalues --    1.28619   1.30875   1.30875   1.30960   1.30960

 Mulliken charges and spin densities:
               1          2
     1  H   -0.230993   0.162577
     2  H   -0.269007   0.337423
     3  H   -0.269007   0.337423
     4  H   -0.230993   0.162577
 Sum of Mulliken charges =  -1.00000   1.00000

 Dipole moment (field-independent basis, Debye):
    X=             -0.0000    Y=             -0.0000    Z=              0.0000  Tot=              0.0000
 Quadrupole moment (field-independent basis, Debye-Ang):
   XX=             -7.7499   YY=             -7.7499   ZZ=            -43.8427
   XY=              0.0000   XZ=              0.0000   YZ=             -0.0000

 =-2.2066268\CCSD=-2.207499\CCSD(T)=-2.2080795\RMSD=1.629e-09\PG=D*H [C
 Normal termination of Gaussian 16 at Tue Feb 13 12:32:54 2024.
