 Gaussian 16, Revision A.03,
 Gaussian 16:  ES64L-G16RevA.03 25-Dec-2016

 --------------------
 #p ROCCSD(T)/cc-pVTZ
 --------------------

 ---------
 H2_H2_286
 ---------
 Symbolic Z-matrix:
 Charge = -1 Multiplicity = 2

                         Standard orientation:
 ---------------------------------------------------------------------
 Center     Atomic      Atomic             Coordinates (Angstroms)
 Number     Number       Type             X           Y           Z
 ---------------------------------------------------------------------
      1          1           0       -0.226055   -2.994677   -0.000000
      2          1           0        0.267258   -2.443095   -0.000000
      3          1           0       -0.000000    2.349460    0.000000
      4          1           0       -0.041202    3.088312    0.000000
 ---------------------------------------------------------------------

 SCF Done:  E(ROHF) =  -2.11425438291     A.U. after   12 cycles
 E2 =    -0.7166225894D-01 EUMP2 =    -0.21859166418493D+01
 CCSD(T)
 CCSD(T)= -0.22024941039D+01

 The electronic state is 2-A'.
 Alpha  occ. eigenvalues --   -0.40471  -0.40228   0.14937
 Alpha virt. eigenvalues --    0.28125   0.45831   0.48217   0.80762   0.84605
 Alpha virt. eigenvalues --    0.88526   0.88527   0.88702   0.88796   1.28276
 Alpha virt. eigenvalues --    1.28485   1.30675   1.30685   1.30812   1.30899

 Mulliken charges and spin densities:
               1          2
     1  H   -0.229276   0.175541
     2  H   -0.272010   0.325747
     3  H   -0.256870   0.314367
     4  H   -0.241845   0.184345
 Sum of Mulliken charges =  -1.00000   1.00000

 Dipole moment (field-independent basis, Debye):
    X=             -0.2065    Y=              0.0268    Z=              0.0000  Tot=              0.2083
 Quadrupole moment (field-independent basis, Debye-Ang):
   XX=             -8.9647   YY=            -44.6728   ZZ=             -7.7291
   XY=             -0.5622   XZ=              0.0000   YZ=             -0.0000

 \PMP2-0=-2.1859166\MP4SDQ=-2.2010413\CCSD=-2.2018888\CCSD(T)=-2.202494
 Normal termination of Gaussian 16 at Tue Feb 13 12:33:42 2024.
