 Gaussian 16, Revision A.03,
 Gaussian 16:  ES64L-G16RevA.03 25-Dec-2016

 --------------------
 #p ROCCSD(T)/cc-pVTZ
 --------------------

 ---------
 H2_H2_253
 ---------
 Symbolic Z-matrix:
 Charge = -1 Multiplicity = 2

                         Standard orientation:
 ---------------------------------------------------------------------
 Center     Atomic      Atomic             Coordinates (Angstroms)
 Number     Number       Type             X           Y           Z
 ---------------------------------------------------------------------
      1          1           0       -0.222341   -2.776342    0.000000
      2          1           0        0.267792   -2.221933    0.000000
      3          1           0        0.000000    2.129836   -0.000000
      4          1           0       -0.045451    2.868439   -0.000000
 ---------------------------------------------------------------------

 SCF Done:  E(ROHF) =  -2.12042464557     A.U. after   13 cycles
 E2 =    -0.7128092581D-01 EUMP2 =    -0.21917055713749D+01
 CCSD(T)
 CCSD(T)= -0.22082944629D+01

 The electronic state is 2-A'.
 Alpha  occ. eigenvalues --   -0.39953  -0.39704   0.14282
 Alpha virt. eigenvalues --    0.29863   0.45783   0.49599   0.81135   0.86076
 Alpha virt. eigenvalues --    0.89093   0.89096   0.89142   0.89421   1.28909
 Alpha virt. eigenvalues --    1.29063   1.31251   1.31316   1.31359   1.31503

 Mulliken charges and spin densities:
               1          2
     1  H   -0.208877   0.135890
     2  H   -0.287849   0.360833
     3  H   -0.272423   0.348678
     4  H   -0.230851   0.154598
 Sum of Mulliken charges =  -1.00000   1.00000

 Dipole moment (field-independent basis, Debye):
    X=             -0.3074    Y=             -0.0852    Z=              0.0000  Tot=              0.3190
 Quadrupole moment (field-independent basis, Debye-Ang):
   XX=             -8.8907   YY=            -37.7744   ZZ=             -7.7424
   XY=             -0.3864   XZ=              0.0000   YZ=              0.0000

 \PMP2-0=-2.1917056\MP4SDQ=-2.2068312\CCSD=-2.2077163\CCSD(T)=-2.208294
 Normal termination of Gaussian 16 at Tue Feb 13 12:31:40 2024.
