 Gaussian 16, Revision A.03,
 Gaussian 16:  ES64L-G16RevA.03 25-Dec-2016

 --------------------
 #p ROCCSD(T)/cc-pVTZ
 --------------------

 --------
 H2_H2_80
 --------
 Symbolic Z-matrix:
 Charge = -1 Multiplicity = 2

                         Standard orientation:
 ---------------------------------------------------------------------
 Center     Atomic      Atomic             Coordinates (Angstroms)
 Number     Number       Type             X           Y           Z
 ---------------------------------------------------------------------
      1          1           0       -0.281205   -1.296524    0.000000
      2          1           0        0.441275   -1.136453    0.000000
      3          1           0       -0.000000    0.855249    0.000000
      4          1           0       -0.160070    1.577729    0.000000
 ---------------------------------------------------------------------

 SCF Done:  E(ROHF) =  -2.10781902206     A.U. after   14 cycles
 E2 =    -0.7319045807D-01 EUMP2 =    -0.21810094801277D+01
 CCSD(T)
 CCSD(T)= -0.21979025420D+01

 The electronic state is 2-A'.
 Alpha  occ. eigenvalues --   -0.40662  -0.31744   0.14797
 Alpha virt. eigenvalues --    0.36004   0.51080   0.55432   0.83452   0.86630
 Alpha virt. eigenvalues --    0.87495   0.91422   0.97062   1.02527   1.23235
 Alpha virt. eigenvalues --    1.32371   1.36437   1.39577   1.47292   1.52656

 Mulliken charges and spin densities:
               1          2
     1  H   -0.462852   0.475126
     2  H   -0.471380   0.467673
     3  H    0.131646   0.031327
     4  H   -0.197415   0.025874
 Sum of Mulliken charges =  -1.00000   1.00000

 Dipole moment (field-independent basis, Debye):
    X=             -0.2267    Y=              4.6011    Z=              0.0000  Tot=              4.6066
 Quadrupole moment (field-independent basis, Debye-Ang):
   XX=            -13.1378   YY=            -16.0514   ZZ=             -7.6382
   XY=             -0.9511   XZ=              0.0000   YZ=              0.0000

 Q=-2.1962957\CCSD=-2.1972242\CCSD(T)=-2.1979025\RMSD=8.877e-09\PG=CS [
 Normal termination of Gaussian 16 at Tue Feb 13 12:20:31 2024.
