 Gaussian 16, Revision A.03,
 Gaussian 16:  ES64L-G16RevA.03 25-Dec-2016

 --------------------
 #p ROCCSD(T)/cc-pVTZ
 --------------------

 ---------
 H2_H2_287
 ---------
 Symbolic Z-matrix:
 Charge = -1 Multiplicity = 2

                         Standard orientation:
 ---------------------------------------------------------------------
 Center     Atomic      Atomic             Coordinates (Angstroms)
 Number     Number       Type             X           Y           Z
 ---------------------------------------------------------------------
      1          1           0       -0.337920   -2.622224    0.000000
      2          1           0        0.399512   -2.560633    0.000000
      3          1           0        0.000000    2.222712    0.000000
      4          1           0       -0.061591    2.960145    0.000000
 ---------------------------------------------------------------------

 SCF Done:  E(ROHF) =  -2.10326740151     A.U. after   24 cycles
 E2 =    -0.7226755738D-01 EUMP2 =    -0.21755349588877D+01
 CCSD(T)
 CCSD(T)= -0.21922420575D+01

 The electronic state is 2-A'.
 Alpha  occ. eigenvalues --   -0.41135  -0.39151   0.16045
 Alpha virt. eigenvalues --    0.26950   0.45674   0.48715   0.81773   0.83167
 Alpha virt. eigenvalues --    0.87818   0.87823   0.89868   0.90069   1.27572
 Alpha virt. eigenvalues --    1.29394   1.29970   1.29983   1.31768   1.31901

 Mulliken charges and spin densities:
               1          2
     1  H   -0.212378   0.190364
     2  H   -0.333496   0.355517
     3  H   -0.205989   0.251986
     4  H   -0.248136   0.202133
 Sum of Mulliken charges =  -1.00000   1.00000

 Dipole moment (field-independent basis, Debye):
    X=             -0.4478    Y=              1.1237    Z=              0.0000  Tot=              1.2096
 Quadrupole moment (field-independent basis, Debye-Ang):
   XX=            -10.7930   YY=            -42.3119   ZZ=             -7.6838
   XY=              1.2242   XZ=              0.0000   YZ=              0.0000

 DQ=-2.1907374\CCSD=-2.1915886\CCSD(T)=-2.1922421\RMSD=1.911e-10\PG=CS
 Normal termination of Gaussian 16 at Tue Feb 13 12:33:45 2024.
