 Gaussian 16, Revision A.03,
 Gaussian 16:  ES64L-G16RevA.03 25-Dec-2016

 --------------------
 #p ROCCSD(T)/cc-pVTZ
 --------------------

 --------
 H2_H2_66
 --------
 Symbolic Z-matrix:
 Charge = -1 Multiplicity = 2

                         Standard orientation:
 ---------------------------------------------------------------------
 Center     Atomic      Atomic             Coordinates (Angstroms)
 Number     Number       Type             X           Y           Z
 ---------------------------------------------------------------------
      1          1           0        0.000000    0.000000    1.680000
      2          1           0        0.000000    0.000000    0.940000
      3          1           0        0.000000    0.000000   -0.940000
      4          1           0        0.000000    0.000000   -1.680000
 ---------------------------------------------------------------------

 SCF Done:  E(ROHF) =  -2.10754530330     A.U. after   11 cycles
 E2 =    -0.7774064931D-01 EUMP2 =    -0.21852859526099D+01
 CCSD(T)
 CCSD(T)= -0.22025453162D+01

 The electronic state is 2-SGG.
 Alpha  occ. eigenvalues --   -0.38418  -0.32688   0.14798
 Alpha virt. eigenvalues --    0.37146   0.50849   0.69135   0.81722   0.89360
 Alpha virt. eigenvalues --    0.89969   0.89969   0.96400   0.96400   1.25526
 Alpha virt. eigenvalues --    1.25526   1.25855   1.50716   1.50716   1.60810

 Mulliken charges and spin densities:
               1          2
     1  H   -0.335828   0.212349
     2  H   -0.164172   0.287651
     3  H   -0.164172   0.287651
     4  H   -0.335828   0.212349
 Sum of Mulliken charges =  -1.00000   1.00000

 Dipole moment (field-independent basis, Debye):
    X=             -0.0000    Y=              0.0000    Z=             -0.0000  Tot=              0.0000
 Quadrupole moment (field-independent basis, Debye-Ang):
   XX=             -7.4777   YY=             -7.4777   ZZ=            -23.7802
   XY=              0.0000   XZ=              0.0000   YZ=             -0.0000

 SDQ=-2.2009383\CCSD=-2.2015135\CCSD(T)=-2.2025453\RMSD=3.120e-09\PG=D*
 Normal termination of Gaussian 16 at Tue Feb 13 12:19:41 2024.
