 Gaussian 16, Revision A.03,
 Gaussian 16:  ES64L-G16RevA.03 25-Dec-2016

 --------------------
 #p ROCCSD(T)/cc-pVTZ
 --------------------

 --------
 H2_H2_95
 --------
 Symbolic Z-matrix:
 Charge = -1 Multiplicity = 2

                         Standard orientation:
 ---------------------------------------------------------------------
 Center     Atomic      Atomic             Coordinates (Angstroms)
 Number     Number       Type             X           Y           Z
 ---------------------------------------------------------------------
      1          1           0       -0.291147   -1.387906    0.000000
      2          1           0        0.434780   -1.244274    0.000000
      3          1           0        0.000000    0.953126    0.000000
      4          1           0       -0.143633    1.679053    0.000000
 ---------------------------------------------------------------------

 SCF Done:  E(ROHF) =  -2.10812047457     A.U. after   15 cycles
 E2 =    -0.7251278091D-01 EUMP2 =    -0.21806332554799D+01
 CCSD(T)
 CCSD(T)= -0.21975218260D+01

 The electronic state is 2-A'.
 Alpha  occ. eigenvalues --   -0.41113  -0.32113   0.14970
 Alpha virt. eigenvalues --    0.35213   0.49787   0.55727   0.84568   0.85629
 Alpha virt. eigenvalues --    0.87323   0.91259   0.96860   1.00311   1.23790
 Alpha virt. eigenvalues --    1.31197   1.34436   1.38880   1.43007   1.47998

 Mulliken charges and spin densities:
               1          2
     1  H   -0.443173   0.448614
     2  H   -0.491492   0.491943
     3  H    0.112092   0.036144
     4  H   -0.177426   0.023299
 Sum of Mulliken charges =  -1.00000   1.00000

 Dipole moment (field-independent basis, Debye):
    X=             -0.3128    Y=              5.0542    Z=              0.0000  Tot=              5.0638
 Quadrupole moment (field-independent basis, Debye-Ang):
   XX=            -13.1885   YY=            -17.0973   ZZ=             -7.6527
   XY=             -0.8480   XZ=              0.0000   YZ=              0.0000

 4SDQ=-2.1959135\CCSD=-2.1969006\CCSD(T)=-2.1975218\RMSD=5.790e-09\PG=C
 Normal termination of Gaussian 16 at Tue Feb 13 12:21:29 2024.
