 Gaussian 16, Revision A.03,
 Gaussian 16:  ES64L-G16RevA.03 25-Dec-2016

 --------------------
 #p ROCCSD(T)/cc-pVTZ
 --------------------

 --------
 H2_H2_51
 --------
 Symbolic Z-matrix:
 Charge = -1 Multiplicity = 2

                         Standard orientation:
 ---------------------------------------------------------------------
 Center     Atomic      Atomic             Coordinates (Angstroms)
 Number     Number       Type             X           Y           Z
 ---------------------------------------------------------------------
      1          1           0        0.000000    0.000000    1.580000
      2          1           0        0.000000    0.000000    0.840000
      3          1           0        0.000000    0.000000   -0.840000
      4          1           0        0.000000    0.000000   -1.580000
 ---------------------------------------------------------------------

 SCF Done:  E(ROHF) =  -2.10174307883     A.U. after   12 cycles
 E2 =    -0.7927669135D-01 EUMP2 =    -0.21810197701722D+01
 CCSD(T)
 CCSD(T)= -0.21983308392D+01

 The electronic state is 2-SGG.
 Alpha  occ. eigenvalues --   -0.39506  -0.31636   0.15133
 Alpha virt. eigenvalues --    0.37330   0.51896   0.70992   0.78583   0.88572
 Alpha virt. eigenvalues --    0.88572   0.91730   0.97489   0.97489   1.24951
 Alpha virt. eigenvalues --    1.24951   1.30862   1.56217   1.56217   1.67483

 Mulliken charges and spin densities:
               1          2
     1  H   -0.365358   0.270897
     2  H   -0.134642   0.229103
     3  H   -0.134642   0.229103
     4  H   -0.365358   0.270897
 Sum of Mulliken charges =  -1.00000   1.00000

 Dipole moment (field-independent basis, Debye):
    X=             -0.0000    Y=              0.0000    Z=              0.0000  Tot=              0.0000
 Quadrupole moment (field-independent basis, Debye-Ang):
   XX=             -7.4370   YY=             -7.4370   ZZ=            -24.2023
   XY=              0.0000   XZ=              0.0000   YZ=             -0.0000

 P4SDQ=-2.1966796\CCSD=-2.1971687\CCSD(T)=-2.1983308\RMSD=1.226e-09\PG=
 Normal termination of Gaussian 16 at Tue Feb 13 12:18:48 2024.
