 Gaussian 16, Revision A.03,
 Gaussian 16:  ES64L-G16RevA.03 25-Dec-2016

 --------------------
 #p ROCCSD(T)/cc-pVTZ
 --------------------

 ---------
 H2_H2_296
 ---------
 Symbolic Z-matrix:
 Charge = -1 Multiplicity = 2

                         Standard orientation:
 ---------------------------------------------------------------------
 Center     Atomic      Atomic             Coordinates (Angstroms)
 Number     Number       Type             X           Y           Z
 ---------------------------------------------------------------------
      1          1           0       -0.338794   -2.681281    0.000000
      2          1           0        0.398772   -2.621303    0.000000
      3          1           0       -0.000000    2.282510    0.000000
      4          1           0       -0.059978    3.020075    0.000000
 ---------------------------------------------------------------------

 SCF Done:  E(ROHF) =  -2.10287397100     A.U. after   21 cycles
 E2 =    -0.7231473835D-01 EUMP2 =    -0.21751887093520D+01
 CCSD(T)
 CCSD(T)= -0.21918554914D+01

 The electronic state is 2-A'.
 Alpha  occ. eigenvalues --   -0.40773  -0.39727   0.16089
 Alpha virt. eigenvalues --    0.26675   0.45860   0.48276   0.81973   0.82691
 Alpha virt. eigenvalues --    0.88202   0.88206   0.89273   0.89446   1.27873
 Alpha virt. eigenvalues --    1.28837   1.30303   1.30312   1.31212   1.31340

 Mulliken charges and spin densities:
               1          2
     1  H   -0.207689   0.188149
     2  H   -0.312446   0.331990
     3  H   -0.219941   0.262629
     4  H   -0.259923   0.217232
 Sum of Mulliken charges =  -1.00000   1.00000

 Dipole moment (field-independent basis, Debye):
    X=             -0.3858    Y=              0.4991    Z=              0.0000  Tot=              0.6309
 Quadrupole moment (field-independent basis, Debye-Ang):
   XX=            -10.6246   YY=            -44.0646   ZZ=             -7.6809
   XY=              1.1731   XZ=              0.0000   YZ=              0.0000

 SDQ=-2.1903826\CCSD=-2.1912008\CCSD(T)=-2.1918555\RMSD=5.460e-10\PG=CS
 Normal termination of Gaussian 16 at Tue Feb 13 12:34:19 2024.
