 Gaussian 16, Revision A.03,
 Gaussian 16:  ES64L-G16RevA.03 25-Dec-2016

 --------------------
 #p ROCCSD(T)/cc-pVTZ
 --------------------

 ---------
 H2_H2_124
 ---------
 Symbolic Z-matrix:
 Charge = -1 Multiplicity = 2

                         Standard orientation:
 ---------------------------------------------------------------------
 Center     Atomic      Atomic             Coordinates (Angstroms)
 Number     Number       Type             X           Y           Z
 ---------------------------------------------------------------------
      1          1           0       -0.195314   -1.927734    0.000000
      2          1           0        0.271384   -1.353458    0.000000
      3          1           0       -0.000000    1.272556    0.000000
      4          1           0       -0.076070    2.008636    0.000000
 ---------------------------------------------------------------------

 SCF Done:  E(ROHF) =  -2.11932620000     A.U. after   13 cycles
 E2 =    -0.7323239065D-01 EUMP2 =    -0.21925585906488D+01
 CCSD(T)
 CCSD(T)= -0.22095090464D+01

 The electronic state is 2-A'.
 Alpha  occ. eigenvalues --   -0.37606  -0.35348   0.14001
 Alpha virt. eigenvalues --    0.35356   0.48168   0.58696   0.83520   0.89588
 Alpha virt. eigenvalues --    0.91680   0.92340   0.93414   0.98080   1.23862
 Alpha virt. eigenvalues --    1.31164   1.31847   1.36293   1.37552   1.44651

 Mulliken charges and spin densities:
               1          2
     1  H   -0.243064   0.117402
     2  H   -0.306437   0.431629
     3  H   -0.193656   0.350447
     4  H   -0.256843   0.100522
 Sum of Mulliken charges =  -1.00000   1.00000

 Dipole moment (field-independent basis, Debye):
    X=             -0.3338    Y=              0.6464    Z=             -0.0000  Tot=              0.7276
 Quadrupole moment (field-independent basis, Debye-Ang):
   XX=             -8.5395   YY=            -22.8592   ZZ=             -7.5942
   XY=             -0.7200   XZ=              0.0000   YZ=             -0.0000

 \PMP2-0=-2.1925586\MP4SDQ=-2.207965\CCSD=-2.2088065\CCSD(T)=-2.209509\
 Normal termination of Gaussian 16 at Tue Feb 13 12:23:24 2024.
