 Gaussian 16, Revision A.03,
 Gaussian 16:  ES64L-G16RevA.03 25-Dec-2016

 --------------------
 #p ROCCSD(T)/cc-pVTZ
 --------------------

 --------
 H2_H2_96
 --------
 Symbolic Z-matrix:
 Charge = -1 Multiplicity = 2

                         Standard orientation:
 ---------------------------------------------------------------------
 Center     Atomic      Atomic             Coordinates (Angstroms)
 Number     Number       Type             X           Y           Z
 ---------------------------------------------------------------------
      1          1           0        0.000000    0.000000    1.880000
      2          1           0        0.000000    0.000000    1.140000
      3          1           0        0.000000    0.000000   -1.140000
      4          1           0        0.000000    0.000000   -1.880000
 ---------------------------------------------------------------------

 SCF Done:  E(ROHF) =  -2.11771221901     A.U. after   11 cycles
 E2 =    -0.7497428273D-01 EUMP2 =    -0.21926865017414D+01
 CCSD(T)
 CCSD(T)= -0.22097732459D+01

 The electronic state is 2-SGG.
 Alpha  occ. eigenvalues --   -0.37393  -0.34292   0.13974
 Alpha virt. eigenvalues --    0.36854   0.49208   0.65117   0.87107   0.88759
 Alpha virt. eigenvalues --    0.91802   0.91802   0.94537   0.94537   1.19618
 Alpha virt. eigenvalues --    1.28947   1.28947   1.42495   1.42495   1.49519

 Mulliken charges and spin densities:
               1          2
     1  H   -0.294316   0.133781
     2  H   -0.205684   0.366219
     3  H   -0.205684   0.366219
     4  H   -0.294316   0.133781
 Sum of Mulliken charges =  -1.00000   1.00000

 Dipole moment (field-independent basis, Debye):
    X=             -0.0000    Y=             -0.0000    Z=             -0.0000  Tot=              0.0000
 Quadrupole moment (field-independent basis, Debye-Ang):
   XX=             -7.5487   YY=             -7.5487   ZZ=            -23.2272
   XY=             -0.0000   XZ=              0.0000   YZ=              0.0000

 P4SDQ=-2.2082069\CCSD=-2.2089528\CCSD(T)=-2.2097732\RMSD=2.070e-09\PG=
 Normal termination of Gaussian 16 at Tue Feb 13 12:21:34 2024.
