 Gaussian 16, Revision A.03,
 Gaussian 16:  ES64L-G16RevA.03 25-Dec-2016

 --------------------
 #p ROCCSD(T)/cc-pVTZ
 --------------------

 ---------
 H2_H2_146
 ---------
 Symbolic Z-matrix:
 Charge = -1 Multiplicity = 2

                         Standard orientation:
 ---------------------------------------------------------------------
 Center     Atomic      Atomic             Coordinates (Angstroms)
 Number     Number       Type             X           Y           Z
 ---------------------------------------------------------------------
      1          1           0       -0.313036   -1.707647    0.000000
      2          1           0        0.419295   -1.601387    0.000000
      3          1           0        0.000000    1.288352    0.000000
      4          1           0       -0.106260    2.020683    0.000000
 ---------------------------------------------------------------------

 SCF Done:  E(ROHF) =  -2.10734497637     A.U. after   21 cycles
 E2 =    -0.7167306443D-01 EUMP2 =    -0.21790180408020D+01
 CCSD(T)
 CCSD(T)= -0.21961070446D+01

 The electronic state is 2-A'.
 Alpha  occ. eigenvalues --   -0.42740  -0.32828   0.15342
 Alpha virt. eigenvalues --    0.32647   0.46097   0.56214   0.80953   0.85035
 Alpha virt. eigenvalues --    0.85915   0.89596   0.96496   1.03098   1.26194
 Alpha virt. eigenvalues --    1.28596   1.28827   1.37424   1.37930   1.39123

 Mulliken charges and spin densities:
               1          2
     1  H   -0.349959   0.329766
     2  H   -0.530665   0.552333
     3  H    0.029538   0.080952
     4  H   -0.148914   0.036949
 Sum of Mulliken charges =  -1.00000   1.00000

 Dipole moment (field-independent basis, Debye):
    X=             -0.6423    Y=              5.7350    Z=              0.0000  Tot=              5.7708
 Quadrupole moment (field-independent basis, Debye-Ang):
   XX=            -12.8968   YY=            -21.6092   ZZ=             -7.6612
   XY=             -0.2258   XZ=              0.0000   YZ=              0.0000

 =-2.1943032\CCSD=-2.1955131\CCSD(T)=-2.196107\RMSD=5.418e-09\PG=CS [SG
 Normal termination of Gaussian 16 at Tue Feb 13 12:24:48 2024.
