 Gaussian 16, Revision A.03,
 Gaussian 16:  ES64L-G16RevA.03 25-Dec-2016

 --------------------
 #p ROCCSD(T)/cc-pVTZ
 --------------------

 ---------
 H2_H2_240
 ---------
 Symbolic Z-matrix:
 Charge = -1 Multiplicity = 2

                         Standard orientation:
 ---------------------------------------------------------------------
 Center     Atomic      Atomic             Coordinates (Angstroms)
 Number     Number       Type             X           Y           Z
 ---------------------------------------------------------------------
      1          1           0        0.000000    0.000000    2.840000
      2          1           0        0.000000    0.000000    2.100000
      3          1           0        0.000000    0.000000   -2.100000
      4          1           0        0.000000    0.000000   -2.840000
 ---------------------------------------------------------------------

 SCF Done:  E(ROHF) =  -2.12781627534     A.U. after   10 cycles
 E2 =    -0.7087768805D-01 EUMP2 =    -0.21986939633876D+01
 CCSD(T)
 CCSD(T)= -0.22152415649D+01

 The electronic state is 2-SGG.
 Alpha  occ. eigenvalues --   -0.39820  -0.39510   0.13497
 Alpha virt. eigenvalues --    0.31303   0.45794   0.50240   0.81059   0.88105
 Alpha virt. eigenvalues --    0.89259   0.89259   0.89276   0.89276   1.28945
 Alpha virt. eigenvalues --    1.29669   1.31500   1.31500   1.31627   1.31627

 Mulliken charges and spin densities:
               1          2
     1  H   -0.216297   0.125406
     2  H   -0.283703   0.374594
     3  H   -0.283703   0.374594
     4  H   -0.216297   0.125406
 Sum of Mulliken charges =  -1.00000   1.00000

 Dipole moment (field-independent basis, Debye):
    X=             -0.0000    Y=             -0.0000    Z=             -0.0000  Tot=              0.0000
 Quadrupole moment (field-independent basis, Debye-Ang):
   XX=             -7.7561   YY=             -7.7561   ZZ=            -36.7610
   XY=              0.0000   XZ=              0.0000   YZ=             -0.0000

 SDQ=-2.2137783\CCSD=-2.2146919\CCSD(T)=-2.2152416\RMSD=3.444e-09\PG=D*
 Normal termination of Gaussian 16 at Tue Feb 13 12:30:51 2024.
