 Gaussian 16, Revision A.03,
 Gaussian 16:  ES64L-G16RevA.03 25-Dec-2016

 --------------------
 #p ROCCSD(T)/cc-pVTZ
 --------------------

 ---------
 H2_H2_208
 ---------
 Symbolic Z-matrix:
 Charge = -1 Multiplicity = 2

                         Standard orientation:
 ---------------------------------------------------------------------
 Center     Atomic      Atomic             Coordinates (Angstroms)
 Number     Number       Type             X           Y           Z
 ---------------------------------------------------------------------
      1          1           0       -0.215822   -2.479207    0.000000
      2          1           0        0.268705   -1.919891    0.000000
      3          1           0       -0.000000    1.830494   -0.000000
      4          1           0       -0.052884    2.568604   -0.000000
 ---------------------------------------------------------------------

 SCF Done:  E(ROHF) =  -2.12652535589     A.U. after   13 cycles
 E2 =    -0.7103754219D-01 EUMP2 =    -0.21975628980833D+01
 CCSD(T)
 CCSD(T)= -0.22141971557D+01

 The electronic state is 2-A'.
 Alpha  occ. eigenvalues --   -0.39036  -0.38581   0.13565
 Alpha virt. eigenvalues --    0.32308   0.46010   0.52369   0.83036   0.86768
 Alpha virt. eigenvalues --    0.90084   0.90097   0.90171   0.91620   1.29446
 Alpha virt. eigenvalues --    1.30825   1.32247   1.32404   1.32505   1.33039

 Mulliken charges and spin densities:
               1          2
     1  H   -0.191667   0.088392
     2  H   -0.304142   0.407347
     3  H   -0.282331   0.390515
     4  H   -0.221860   0.113746
 Sum of Mulliken charges =  -1.00000   1.00000

 Dipole moment (field-independent basis, Debye):
    X=             -0.4071    Y=             -0.1037    Z=              0.0000  Tot=              0.4202
 Quadrupole moment (field-independent basis, Debye-Ang):
   XX=             -8.7133   YY=            -29.9297   ZZ=             -7.7182
   XY=             -0.2969   XZ=              0.0000   YZ=              0.0000

 \PMP2-0=-2.1975629\MP4SDQ=-2.2127103\CCSD=-2.2136373\CCSD(T)=-2.214197
 Normal termination of Gaussian 16 at Tue Feb 13 12:28:47 2024.
