 Gaussian 16, Revision A.03,
 Gaussian 16:  ES64L-G16RevA.03 25-Dec-2016

 --------------------
 #p ROCCSD(T)/cc-pVTZ
 --------------------

 ---------
 H2_H2_268
 ---------
 Symbolic Z-matrix:
 Charge = -1 Multiplicity = 2

                         Standard orientation:
 ---------------------------------------------------------------------
 Center     Atomic      Atomic             Coordinates (Angstroms)
 Number     Number       Type             X           Y           Z
 ---------------------------------------------------------------------
      1          1           0       -0.224121   -2.875547    0.000000
      2          1           0        0.267537   -2.322489   -0.000000
      3          1           0       -0.000000    2.229656    0.000000
      4          1           0       -0.043416    2.968381    0.000000
 ---------------------------------------------------------------------

 SCF Done:  E(ROHF) =  -2.11762100305     A.U. after   13 cycles
 E2 =    -0.7144965791D-01 EUMP2 =    -0.21890706609614D+01
 CCSD(T)
 CCSD(T)= -0.22056535106D+01

 The electronic state is 2-A'.
 Alpha  occ. eigenvalues --   -0.40198  -0.39975   0.14583
 Alpha virt. eigenvalues --    0.29047   0.45796   0.48907   0.80885   0.85429
 Alpha virt. eigenvalues --    0.88823   0.88825   0.88912   0.89071   1.28661
 Alpha virt. eigenvalues --    1.28721   1.30983   1.31014   1.31074   1.31184

 Mulliken charges and spin densities:
               1          2
     1  H   -0.217948   0.154254
     2  H   -0.280466   0.344162
     3  H   -0.265614   0.332700
     4  H   -0.235972   0.168884
 Sum of Mulliken charges =  -1.00000   1.00000

 Dipole moment (field-independent basis, Debye):
    X=             -0.2618    Y=             -0.0459    Z=              0.0000  Tot=              0.2658
 Quadrupole moment (field-independent basis, Debye-Ang):
   XX=             -8.9301   YY=            -40.8364   ZZ=             -7.7385
   XY=             -0.4589   XZ=              0.0000   YZ=              0.0000

 MP2-0=-2.1890707\MP4SDQ=-2.2041956\CCSD=-2.2050633\CCSD(T)=-2.2056535\
 Normal termination of Gaussian 16 at Tue Feb 13 12:32:35 2024.
