 Gaussian 16, Revision A.03,
 Gaussian 16:  ES64L-G16RevA.03 25-Dec-2016

 --------------------
 #p ROCCSD(T)/cc-pVTZ
 --------------------

 ---------
 H2_H2_232
 ---------
 Symbolic Z-matrix:
 Charge = -1 Multiplicity = 2

                         Standard orientation:
 ---------------------------------------------------------------------
 Center     Atomic      Atomic             Coordinates (Angstroms)
 Number     Number       Type             X           Y           Z
 ---------------------------------------------------------------------
      1          1           0       -0.219545   -2.637580    0.000000
      2          1           0        0.268187   -2.081058    0.000000
      3          1           0       -0.000000    1.990119   -0.000000
      4          1           0       -0.048642    2.728519   -0.000000
 ---------------------------------------------------------------------

 SCF Done:  E(ROHF) =  -2.12390611080     A.U. after   13 cycles
 E2 =    -0.7109754511D-01 EUMP2 =    -0.21950036559093D+01
 CCSD(T)
 CCSD(T)= -0.22116066696D+01

 The electronic state is 2-A'.
 Alpha  occ. eigenvalues --   -0.39560  -0.39239   0.13893
 Alpha virt. eigenvalues --    0.31030   0.45825   0.50763   0.81789   0.86712
 Alpha virt. eigenvalues --    0.89520   0.89526   0.89557   0.90209   1.29141
 Alpha virt. eigenvalues --    1.29783   1.31683   1.31790   1.31839   1.32107

 Mulliken charges and spin densities:
               1          2
     1  H   -0.198275   0.111260
     2  H   -0.297115   0.384112
     3  H   -0.279802   0.370367
     4  H   -0.224808   0.134261
 Sum of Mulliken charges =  -1.00000   1.00000

 Dipole moment (field-independent basis, Debye):
    X=             -0.3636    Y=             -0.1131    Z=             -0.0000  Tot=              0.3808
 Quadrupole moment (field-independent basis, Debye-Ang):
   XX=             -8.8175   YY=            -33.8132   ZZ=             -7.7385
   XY=             -0.3172   XZ=             -0.0000   YZ=              0.0000

 \PMP2-0=-2.1950037\MP4SDQ=-2.2101338\CCSD=-2.2110418\CCSD(T)=-2.211606
 Normal termination of Gaussian 16 at Tue Feb 13 12:30:20 2024.
