 Gaussian 16, Revision A.03,
 Gaussian 16:  ES64L-G16RevA.03 25-Dec-2016

 --------------------
 #p ROCCSD(T)/cc-pVTZ
 --------------------

 ---------
 H2_H2_220
 ---------
 Symbolic Z-matrix:
 Charge = -1 Multiplicity = 2

                         Standard orientation:
 ---------------------------------------------------------------------
 Center     Atomic      Atomic             Coordinates (Angstroms)
 Number     Number       Type             X           Y           Z
 ---------------------------------------------------------------------
      1          1           0       -0.217762   -2.558362   -0.000000
      2          1           0        0.268436   -2.000499   -0.000000
      3          1           0        0.000000    1.910299    0.000000
      4          1           0       -0.050674    2.648562    0.000000
 ---------------------------------------------------------------------

 SCF Done:  E(ROHF) =  -2.12544491683     A.U. after   13 cycles
 E2 =    -0.7104205385D-01 EUMP2 =    -0.21964869706771D+01
 CCSD(T)
 CCSD(T)= -0.22131030342D+01

 The electronic state is 2-A'.
 Alpha  occ. eigenvalues --   -0.39306  -0.38927   0.13708
 Alpha virt. eigenvalues --    0.31683   0.45896   0.51531   0.82345   0.86840
 Alpha virt. eigenvalues --    0.89793   0.89801   0.89845   0.90851   1.29275
 Alpha virt. eigenvalues --    1.30280   1.31960   1.32089   1.32154   1.32542

 Mulliken charges and spin densities:
               1          2
     1  H   -0.194075   0.098852
     2  H   -0.301207   0.396392
     3  H   -0.282067   0.381347
     4  H   -0.222651   0.123409
 Sum of Mulliken charges =  -1.00000   1.00000

 Dipole moment (field-independent basis, Debye):
    X=             -0.3887    Y=             -0.1145    Z=              0.0000  Tot=              0.4052
 Quadrupole moment (field-independent basis, Debye-Ang):
   XX=             -8.7673   YY=            -31.7745   ZZ=             -7.7305
   XY=             -0.2988   XZ=              0.0000   YZ=             -0.0000

 PMP2-0=-2.196487\MP4SDQ=-2.2116236\CCSD=-2.2125424\CCSD(T)=-2.213103\R
 Normal termination of Gaussian 16 at Tue Feb 13 12:29:34 2024.
