 Gaussian 16, Revision A.03,
 Gaussian 16:  ES64L-G16RevA.03 25-Dec-2016

 --------------------
 #p ROCCSD(T)/cc-pVTZ
 --------------------

 ---------
 H2_H2_251
 ---------
 Symbolic Z-matrix:
 Charge = -1 Multiplicity = 2

                         Standard orientation:
 ---------------------------------------------------------------------
 Center     Atomic      Atomic             Coordinates (Angstroms)
 Number     Number       Type             X           Y           Z
 ---------------------------------------------------------------------
      1          1           0       -0.333880   -2.386540    0.000000
      2          1           0        0.402895   -2.317526    0.000000
      3          1           0       -0.000000    1.983646    0.000000
      4          1           0       -0.069014    2.720420    0.000000
 ---------------------------------------------------------------------

 SCF Done:  E(ROHF) =  -2.10597716199     A.U. after   19 cycles
 E2 =    -0.7110675757D-01 EUMP2 =    -0.21770839195619D+01
 CCSD(T)
 CCSD(T)= -0.21941819043D+01

 The electronic state is 2-A'.
 Alpha  occ. eigenvalues --   -0.45615  -0.33175   0.15623
 Alpha virt. eigenvalues --    0.28540   0.43359   0.52899   0.77690   0.83018
 Alpha virt. eigenvalues --    0.83098   0.89396   0.96148   0.96149   1.23552
 Alpha virt. eigenvalues --    1.25578   1.25945   1.35072   1.37623   1.37628

 Mulliken charges and spin densities:
               1          2
     1  H   -0.010121  -0.012177
     2  H   -0.104314   0.126403
     3  H   -0.453652   0.482953
     4  H   -0.431913   0.402822
 Sum of Mulliken charges =  -1.00000   1.00000

 Dipole moment (field-independent basis, Debye):
    X=             -0.2271    Y=             -8.5439    Z=              0.0000  Tot=              8.5469
 Quadrupole moment (field-independent basis, Debye-Ang):
   XX=             -7.7553   YY=            -38.8233   ZZ=             -7.7044
   XY=              1.4200   XZ=              0.0000   YZ=              0.0000

 P4SDQ=-2.1922713\CCSD=-2.1936025\CCSD(T)=-2.1941819\RMSD=2.941e-09\PG=
 Normal termination of Gaussian 16 at Tue Feb 13 12:31:32 2024.
