 Gaussian 16, Revision A.03,
 Gaussian 16:  ES64L-G16RevA.03 25-Dec-2016

 --------------------
 #p ROCCSD(T)/cc-pVTZ
 --------------------

 ---------
 H2_H2_116
 ---------
 Symbolic Z-matrix:
 Charge = -1 Multiplicity = 2

                         Standard orientation:
 ---------------------------------------------------------------------
 Center     Atomic      Atomic             Coordinates (Angstroms)
 Number     Number       Type             X           Y           Z
 ---------------------------------------------------------------------
      1          1           0       -0.301888   -1.518194    0.000000
      2          1           0        0.427392   -1.392690    0.000000
      3          1           0        0.000000    1.090802    0.000000
      4          1           0       -0.125504    1.820082    0.000000
 ---------------------------------------------------------------------

 SCF Done:  E(ROHF) =  -2.10787016555     A.U. after   17 cycles
 E2 =    -0.7193424307D-01 EUMP2 =    -0.21798044086220D+01
 CCSD(T)
 CCSD(T)= -0.21967265681D+01

 The electronic state is 2-A'.
 Alpha  occ. eigenvalues --   -0.41948  -0.32342   0.15155
 Alpha virt. eigenvalues --    0.34136   0.48025   0.56174   0.83497   0.85202
 Alpha virt. eigenvalues --    0.86638   0.90699   0.96879   1.01476   1.25697
 Alpha virt. eigenvalues --    1.29865   1.30420   1.38464   1.39780   1.43016

 Mulliken charges and spin densities:
               1          2
     1  H   -0.413442   0.409826
     2  H   -0.512717   0.519899
     3  H    0.083078   0.046489
     4  H   -0.156918   0.023786
 Sum of Mulliken charges =  -1.00000   1.00000

 Dipole moment (field-independent basis, Debye):
    X=             -0.4281    Y=              5.5650    Z=              0.0000  Tot=              5.5815
 Quadrupole moment (field-independent basis, Debye-Ang):
   XX=            -13.1734   YY=            -18.7809   ZZ=             -7.6598
   XY=             -0.6652   XZ=              0.0000   YZ=              0.0000

 P4SDQ=-2.1950764\CCSD=-2.196146\CCSD(T)=-2.1967266\RMSD=3.035e-09\PG=C
 Normal termination of Gaussian 16 at Tue Feb 13 12:22:52 2024.
