 Gaussian 16, Revision A.03,
 Gaussian 16:  ES64L-G16RevA.03 25-Dec-2016

 --------------------
 #p ROCCSD(T)/cc-pVTZ
 --------------------

 --------
 H2_H2_30
 --------
 Symbolic Z-matrix:
 Charge = -1 Multiplicity = 2

                         Standard orientation:
 ---------------------------------------------------------------------
 Center     Atomic      Atomic             Coordinates (Angstroms)
 Number     Number       Type             X           Y           Z
 ---------------------------------------------------------------------
      1          1           0        0.000000    0.000000    1.440000
      2          1           0        0.000000    0.000000    0.700000
      3          1           0        0.000000    0.000000   -0.700000
      4          1           0        0.000000    0.000000   -1.440000
 ---------------------------------------------------------------------

 SCF Done:  E(ROHF) =  -2.09157902073     A.U. after   12 cycles
 E2 =    -0.8161860386D-01 EUMP2 =    -0.21731976245911D+01
 CCSD(T)
 CCSD(T)= -0.21905050841D+01

 The electronic state is 2-SGG.
 Alpha  occ. eigenvalues --   -0.41980  -0.29621   0.15371
 Alpha virt. eigenvalues --    0.37822   0.53569   0.73201   0.75235   0.86612
 Alpha virt. eigenvalues --    0.86612   0.96678   0.99258   0.99258   1.26323
 Alpha virt. eigenvalues --    1.26323   1.38794   1.65537   1.65537   1.78260

 Mulliken charges and spin densities:
               1          2
     1  H   -0.427686   0.375790
     2  H   -0.072314   0.124210
     3  H   -0.072314   0.124210
     4  H   -0.427686   0.375790
 Sum of Mulliken charges =  -1.00000   1.00000

 Dipole moment (field-independent basis, Debye):
    X=             -0.0000    Y=             -0.0000    Z=             -0.0000  Tot=              0.0000
 Quadrupole moment (field-independent basis, Debye-Ang):
   XX=             -7.3870   YY=             -7.3870   ZZ=            -24.5868
   XY=              0.0000   XZ=              0.0000   YZ=             -0.0000

 DQ=-2.1887593\CCSD=-2.1891352\CCSD(T)=-2.1905051\RMSD=2.783e-10\PG=D*H
 Normal termination of Gaussian 16 at Tue Feb 13 12:17:29 2024.
