 Gaussian 16, Revision A.03,
 Gaussian 16:  ES64L-G16RevA.03 25-Dec-2016

 --------------------
 #p ROCCSD(T)/cc-pVTZ
 --------------------

 ---------
 H2_H2_105
 ---------
 Symbolic Z-matrix:
 Charge = -1 Multiplicity = 2

                         Standard orientation:
 ---------------------------------------------------------------------
 Center     Atomic      Atomic             Coordinates (Angstroms)
 Number     Number       Type             X           Y           Z
 ---------------------------------------------------------------------
      1          1           0        0.000000    0.000000    1.940000
      2          1           0        0.000000    0.000000    1.200000
      3          1           0        0.000000    0.000000   -1.200000
      4          1           0        0.000000    0.000000   -1.940000
 ---------------------------------------------------------------------

 SCF Done:  E(ROHF) =  -2.12043033715     A.U. after   11 cycles
 E2 =    -0.7425844575D-01 EUMP2 =    -0.21946887828913D+01
 CCSD(T)
 CCSD(T)= -0.22117138698D+01

 The electronic state is 2-SGG.
 Alpha  occ. eigenvalues --   -0.37303  -0.34705   0.13733
 Alpha virt. eigenvalues --    0.36744   0.48815   0.63898   0.86970   0.90379
 Alpha virt. eigenvalues --    0.92024   0.92024   0.94048   0.94048   1.19716
 Alpha virt. eigenvalues --    1.30051   1.30051   1.40698   1.40698   1.46567

 Mulliken charges and spin densities:
               1          2
     1  H   -0.283541   0.118267
     2  H   -0.216459   0.381733
     3  H   -0.216459   0.381733
     4  H   -0.283541   0.118267
 Sum of Mulliken charges =  -1.00000   1.00000

 Dipole moment (field-independent basis, Debye):
    X=             -0.0000    Y=             -0.0000    Z=             -0.0000  Tot=              0.0000
 Quadrupole moment (field-independent basis, Debye-Ang):
   XX=             -7.5641   YY=             -7.5641   ZZ=            -23.2291
   XY=             -0.0000   XZ=              0.0000   YZ=              0.0000

 P4SDQ=-2.2101542\CCSD=-2.2109437\CCSD(T)=-2.2117139\RMSD=1.665e-09\PG=
 Normal termination of Gaussian 16 at Tue Feb 13 12:22:08 2024.
