 Gaussian 16, Revision A.03,
 Gaussian 16:  ES64L-G16RevA.03 25-Dec-2016

 --------------------
 #p ROCCSD(T)/cc-pVTZ
 --------------------

 ---------
 H2_H2_265
 ---------
 Symbolic Z-matrix:
 Charge = -1 Multiplicity = 2

                         Standard orientation:
 ---------------------------------------------------------------------
 Center     Atomic      Atomic             Coordinates (Angstroms)
 Number     Number       Type             X           Y           Z
 ---------------------------------------------------------------------
      1          1           0       -0.223778   -2.855701   -0.000000
      2          1           0        0.267586   -2.302382    0.000000
      3          1           0       -0.000000    2.209691    0.000000
      4          1           0       -0.043808    2.948393   -0.000000
 ---------------------------------------------------------------------

 SCF Done:  E(ROHF) =  -2.11818933303     A.U. after   13 cycles
 E2 =    -0.7141464304D-01 EUMP2 =    -0.21896039760716D+01
 CCSD(T)
 CCSD(T)= -0.22061878714D+01

 The electronic state is 2-A'.
 Alpha  occ. eigenvalues --   -0.40151  -0.39925   0.14523
 Alpha virt. eigenvalues --    0.29208   0.45792   0.49036   0.80923   0.85565
 Alpha virt. eigenvalues --    0.88875   0.88877   0.88954   0.89130   1.28734
 Alpha virt. eigenvalues --    1.28760   1.31035   1.31072   1.31126   1.31241

 Mulliken charges and spin densities:
               1          2
     1  H   -0.216082   0.150594
     2  H   -0.281948   0.347436
     3  H   -0.267032   0.335871
     4  H   -0.234938   0.166098
 Sum of Mulliken charges =  -1.00000   1.00000

 Dipole moment (field-independent basis, Debye):
    X=             -0.2711    Y=             -0.0551    Z=             -0.0000  Tot=              0.2766
 Quadrupole moment (field-independent basis, Debye-Ang):
   XX=             -8.9230   YY=            -40.2121   ZZ=             -7.7396
   XY=             -0.4432   XZ=             -0.0000   YZ=             -0.0000

 PMP2-0=-2.189604\MP4SDQ=-2.204729\CCSD=-2.2056001\CCSD(T)=-2.2061879\R
 Normal termination of Gaussian 16 at Tue Feb 13 12:32:24 2024.
