 Gaussian 16, Revision A.03,
 Gaussian 16:  ES64L-G16RevA.03 25-Dec-2016

 --------------------
 #p ROCCSD(T)/cc-pVTZ
 --------------------

 ---------
 H2_H2_131
 ---------
 Symbolic Z-matrix:
 Charge = -1 Multiplicity = 2

                         Standard orientation:
 ---------------------------------------------------------------------
 Center     Atomic      Atomic             Coordinates (Angstroms)
 Number     Number       Type             X           Y           Z
 ---------------------------------------------------------------------
      1          1           0       -0.307951   -1.612519    0.000000
      2          1           0        0.423044   -1.497426    0.000000
      3          1           0       -0.000000    1.189475    0.000000
      4          1           0       -0.115093    1.920470    0.000000
 ---------------------------------------------------------------------

 SCF Done:  E(ROHF) =  -2.10758005170     A.U. after   20 cycles
 E2 =    -0.7172963027D-01 EUMP2 =    -0.21793096819673D+01
 CCSD(T)
 CCSD(T)= -0.21962985613D+01

 The electronic state is 2-A'.
 Alpha  occ. eigenvalues --   -0.42461  -0.32510   0.15257
 Alpha virt. eigenvalues --    0.33380   0.46943   0.56324   0.82021   0.85048
 Alpha virt. eigenvalues --    0.86162   0.90188   0.96799   1.02993   1.26516
 Alpha virt. eigenvalues --    1.28583   1.29198   1.38256   1.38450   1.40675

 Mulliken charges and spin densities:
               1          2
     1  H   -0.386446   0.375314
     2  H   -0.523969   0.537510
     3  H    0.059698   0.059338
     4  H   -0.149284   0.027838
 Sum of Mulliken charges =  -1.00000   1.00000

 Dipole moment (field-independent basis, Debye):
    X=             -0.5247    Y=              5.7737    Z=              0.0000  Tot=              5.7975
 Quadrupole moment (field-independent basis, Debye-Ang):
   XX=            -13.0859   YY=            -20.1303   ZZ=             -7.6606
   XY=             -0.4821   XZ=              0.0000   YZ=              0.0000

 P4SDQ=-2.1945833\CCSD=-2.195721\CCSD(T)=-2.1962986\RMSD=4.344e-10\PG=C
 Normal termination of Gaussian 16 at Tue Feb 13 12:23:50 2024.
