 Gaussian 16, Revision A.03,
 Gaussian 16:  ES64L-G16RevA.03 25-Dec-2016

 --------------------
 #p ROCCSD(T)/cc-pVTZ
 --------------------

 --------
 H2_H2_12
 --------
 Symbolic Z-matrix:
 Charge = -1 Multiplicity = 2

                         Standard orientation:
 ---------------------------------------------------------------------
 Center     Atomic      Atomic             Coordinates (Angstroms)
 Number     Number       Type             X           Y           Z
 ---------------------------------------------------------------------
      1          1           0        0.000000    0.000000    1.320000
      2          1           0        0.000000    0.000000    0.580000
      3          1           0        0.000000    0.000000   -0.580000
      4          1           0        0.000000    0.000000   -1.320000
 ---------------------------------------------------------------------

 SCF Done:  E(ROHF) =  -2.07794917780     A.U. after   12 cycles
 E2 =    -0.8397603739D-01 EUMP2 =    -0.21619252151819D+01
 CCSD(T)
 CCSD(T)= -0.21791184470D+01

 The electronic state is 2-SGG.
 Alpha  occ. eigenvalues --   -0.45411  -0.27161   0.15221
 Alpha virt. eigenvalues --    0.38649   0.55007   0.73510   0.73834   0.85172
 Alpha virt. eigenvalues --    0.85172   1.01028   1.01028   1.02718   1.29732
 Alpha virt. eigenvalues --    1.29732   1.46287   1.74807   1.74807   1.88122

 Mulliken charges and spin densities:
               1          2
     1  H   -0.517688   0.484767
     2  H    0.017688   0.015233
     3  H    0.017688   0.015233
     4  H   -0.517688   0.484767
 Sum of Mulliken charges =  -1.00000   1.00000

 Dipole moment (field-independent basis, Debye):
    X=             -0.0000    Y=             -0.0000    Z=              0.0000  Tot=              0.0000
 Quadrupole moment (field-independent basis, Debye-Ang):
   XX=             -7.3655   YY=             -7.3655   ZZ=            -24.5089
   XY=              0.0000   XZ=              0.0000   YZ=             -0.0000

 4SDQ=-2.1772759\CCSD=-2.1775524\CCSD(T)=-2.1791184\RMSD=2.544e-09\PG=D
 Normal termination of Gaussian 16 at Tue Feb 13 12:16:24 2024.
