 Gaussian 16, Revision A.03,
 Gaussian 16:  ES64L-G16RevA.03 25-Dec-2016

 --------------------
 #p ROCCSD(T)/cc-pVTZ
 --------------------

 ---------
 H2_H2_168
 ---------
 Symbolic Z-matrix:
 Charge = -1 Multiplicity = 2

                         Standard orientation:
 ---------------------------------------------------------------------
 Center     Atomic      Atomic             Coordinates (Angstroms)
 Number     Number       Type             X           Y           Z
 ---------------------------------------------------------------------
      1          1           0        0.000000    0.000000    2.360000
      2          1           0        0.000000    0.000000    1.620000
      3          1           0        0.000000    0.000000   -1.620000
      4          1           0        0.000000    0.000000   -2.360000
 ---------------------------------------------------------------------

 SCF Done:  E(ROHF) =  -2.13311555706     A.U. after   10 cycles
 E2 =    -0.7114967829D-01 EUMP2 =    -0.22042652353448D+01
 CCSD(T)
 CCSD(T)= -0.22209306667D+01

 The electronic state is 2-SGG.
 Alpha  occ. eigenvalues --   -0.38145  -0.37304   0.12699
 Alpha virt. eigenvalues --    0.35147   0.46763   0.56195   0.86762   0.89409
 Alpha virt. eigenvalues --    0.91146   0.91146   0.91318   0.91318   1.31902
 Alpha virt. eigenvalues --    1.32075   1.33030   1.33030   1.34137   1.34137

 Mulliken charges and spin densities:
               1          2
     1  H   -0.221983   0.075820
     2  H   -0.278017   0.424180
     3  H   -0.278017   0.424180
     4  H   -0.221983   0.075820
 Sum of Mulliken charges =  -1.00000   1.00000

 Dipole moment (field-independent basis, Debye):
    X=             -0.0000    Y=              0.0000    Z=              0.0000  Tot=              0.0000
 Quadrupole moment (field-independent basis, Debye-Ang):
   XX=             -7.6641   YY=             -7.6641   ZZ=            -26.1475
   XY=              0.0000   XZ=              0.0000   YZ=             -0.0000

 MP4SDQ=-2.2194208\CCSD=-2.2203649\CCSD(T)=-2.2209307\RMSD=5.413e-09\PG
 Normal termination of Gaussian 16 at Tue Feb 13 12:26:13 2024.
