 Gaussian 16, Revision A.03,
 Gaussian 16:  ES64L-G16RevA.03 25-Dec-2016

 --------------------
 #p ROCCSD(T)/cc-pVTZ
 --------------------

 --------
 H2_H2_75
 --------
 Symbolic Z-matrix:
 Charge = -1 Multiplicity = 2

                         Standard orientation:
 ---------------------------------------------------------------------
 Center     Atomic      Atomic             Coordinates (Angstroms)
 Number     Number       Type             X           Y           Z
 ---------------------------------------------------------------------
      1          1           0        0.000000    0.000000    1.740000
      2          1           0        0.000000    0.000000    1.000000
      3          1           0        0.000000    0.000000   -1.000000
      4          1           0        0.000000    0.000000   -1.740000
 ---------------------------------------------------------------------

 SCF Done:  E(ROHF) =  -2.11076265735     A.U. after   11 cycles
 E2 =    -0.7686042867D-01 EUMP2 =    -0.21876230860197D+01
 CCSD(T)
 CCSD(T)= -0.22048383398D+01

 The electronic state is 2-SGG.
 Alpha  occ. eigenvalues --   -0.37971  -0.33221   0.14560
 Alpha virt. eigenvalues --    0.37060   0.50295   0.67956   0.83814   0.88358
 Alpha virt. eigenvalues --    0.90691   0.90691   0.95801   0.95801   1.23273
 Alpha virt. eigenvalues --    1.26354   1.26354   1.47873   1.47873   1.57164

 Mulliken charges and spin densities:
               1          2
     1  H   -0.321712   0.183771
     2  H   -0.178288   0.316229
     3  H   -0.178288   0.316229
     4  H   -0.321712   0.183771
 Sum of Mulliken charges =  -1.00000   1.00000

 Dipole moment (field-independent basis, Debye):
    X=             -0.0000    Y=             -0.0000    Z=              0.0000  Tot=              0.0000
 Quadrupole moment (field-independent basis, Debye-Ang):
   XX=             -7.5016   YY=             -7.5016   ZZ=            -23.5453
   XY=              0.0000   XZ=              0.0000   YZ=             -0.0000

 SDQ=-2.2032485\CCSD=-2.2038769\CCSD(T)=-2.2048383\RMSD=8.544e-10\PG=D*
 Normal termination of Gaussian 16 at Tue Feb 13 12:20:13 2024.
