 Gaussian 16, Revision A.03,
 Gaussian 16:  ES64L-G16RevA.03 25-Dec-2016

 --------------------
 #p ROCCSD(T)/cc-pVTZ
 --------------------

 ---------
 H2_H2_155
 ---------
 Symbolic Z-matrix:
 Charge = -1 Multiplicity = 2

                         Standard orientation:
 ---------------------------------------------------------------------
 Center     Atomic      Atomic             Coordinates (Angstroms)
 Number     Number       Type             X           Y           Z
 ---------------------------------------------------------------------
      1          1           0       -0.315710   -1.765043    0.000000
      2          1           0        0.417286   -1.663467    0.000000
      3          1           0        0.000000    1.347757    0.000000
      4          1           0       -0.101576    2.080753    0.000000
 ---------------------------------------------------------------------

 SCF Done:  E(ROHF) =  -2.10725413911     A.U. after   21 cycles
 E2 =    -0.7170831238D-01 EUMP2 =    -0.21789624514929D+01
 CCSD(T)
 CCSD(T)= -0.21961100694D+01

 The electronic state is 2-A'.
 Alpha  occ. eigenvalues --   -0.42714  -0.33163   0.15389
 Alpha virt. eigenvalues --    0.32225   0.45742   0.55980   0.80639   0.85167
 Alpha virt. eigenvalues --    0.85967   0.89192   0.96141   1.02402   1.26162
 Alpha virt. eigenvalues --    1.28803   1.28808   1.36833   1.37598   1.38379

 Mulliken charges and spin densities:
               1          2
     1  H   -0.321173   0.294681
     2  H   -0.530406   0.557885
     3  H    0.005134   0.100922
     4  H   -0.153554   0.046512
 Sum of Mulliken charges =  -1.00000   1.00000

 Dipole moment (field-independent basis, Debye):
    X=             -0.7223    Y=              5.5067    Z=              0.0000  Tot=              5.5538
 Quadrupole moment (field-independent basis, Debye-Ang):
   XX=            -12.7046   YY=            -22.5728   ZZ=             -7.6623
   XY=             -0.0247   XZ=              0.0000   YZ=              0.0000

 P4SDQ=-2.19426\CCSD=-2.1954996\CCSD(T)=-2.1961101\RMSD=9.585e-09\PG=CS
 Normal termination of Gaussian 16 at Tue Feb 13 12:25:24 2024.
