 Gaussian 16, Revision A.03,
 Gaussian 16:  ES64L-G16RevA.03 25-Dec-2016

 --------------------
 #p ROCCSD(T)/cc-pVTZ
 --------------------

 ---------
 H2_H2_151
 ---------
 Symbolic Z-matrix:
 Charge = -1 Multiplicity = 2

                         Standard orientation:
 ---------------------------------------------------------------------
 Center     Atomic      Atomic             Coordinates (Angstroms)
 Number     Number       Type             X           Y           Z
 ---------------------------------------------------------------------
      1          1           0       -0.203649   -2.104356   -0.000000
      2          1           0        0.270330   -1.536075   -0.000000
      3          1           0       -0.000000    1.451720    0.000000
      4          1           0       -0.066682    2.188710    0.000000
 ---------------------------------------------------------------------

 SCF Done:  E(ROHF) =  -2.12412881259     A.U. after   13 cycles
 E2 =    -0.7203461877D-01 EUMP2 =    -0.21961634313616D+01
 CCSD(T)
 CCSD(T)= -0.22129778759D+01

 The electronic state is 2-A'.
 Alpha  occ. eigenvalues --   -0.37815  -0.36511   0.13605
 Alpha virt. eigenvalues --    0.34642   0.47217   0.56829   0.84162   0.87949
 Alpha virt. eigenvalues --    0.91449   0.91641   0.92202   0.96325   1.29752
 Alpha virt. eigenvalues --    1.31510   1.32930   1.34249   1.35102   1.38250

 Mulliken charges and spin densities:
               1          2
     1  H   -0.211087   0.081520
     2  H   -0.305609   0.434698
     3  H   -0.243138   0.389740
     4  H   -0.240165   0.094043
 Sum of Mulliken charges =  -1.00000   1.00000

 Dipole moment (field-independent basis, Debye):
    X=             -0.3961    Y=              0.2175    Z=              0.0000  Tot=              0.4519
 Quadrupole moment (field-independent basis, Debye-Ang):
   XX=             -8.5110   YY=            -24.0850   ZZ=             -7.6265
   XY=             -0.5023   XZ=              0.0000   YZ=             -0.0000

 P2-0=-2.1961634\MP4SDQ=-2.2114509\CCSD=-2.2123541\CCSD(T)=-2.2129779\R
 Normal termination of Gaussian 16 at Tue Feb 13 12:25:09 2024.
