 Gaussian 16, Revision A.03,
 Gaussian 16:  ES64L-G16RevA.03 25-Dec-2016

 --------------------
 #p ROCCSD(T)/cc-pVTZ
 --------------------

 ---------
 H2_H2_181
 ---------
 Symbolic Z-matrix:
 Charge = -1 Multiplicity = 2

                         Standard orientation:
 ---------------------------------------------------------------------
 Center     Atomic      Atomic             Coordinates (Angstroms)
 Number     Number       Type             X           Y           Z
 ---------------------------------------------------------------------
      1          1           0       -0.210761   -2.301379    0.000000
      2          1           0        0.269394   -1.738305    0.000000
      3          1           0       -0.000000    1.651005   -0.000000
      4          1           0       -0.058633    2.388679   -0.000000
 ---------------------------------------------------------------------

 SCF Done:  E(ROHF) =  -2.12695271819     A.U. after   13 cycles
 E2 =    -0.7127156371D-01 EUMP2 =    -0.21982242818986D+01
 CCSD(T)
 CCSD(T)= -0.22149235249D+01

 The electronic state is 2-A'.
 Alpha  occ. eigenvalues --   -0.38406  -0.37681   0.13431
 Alpha virt. eigenvalues --    0.33559   0.46442   0.54444   0.84865   0.86089
 Alpha virt. eigenvalues --    0.90773   0.90816   0.91039   0.93703   1.30176
 Alpha virt. eigenvalues --    1.31853   1.32824   1.33158   1.33482   1.34489

 Mulliken charges and spin densities:
               1          2
     1  H   -0.194020   0.074705
     2  H   -0.306578   0.425681
     3  H   -0.273318   0.401224
     4  H   -0.226084   0.098390
 Sum of Mulliken charges =  -1.00000   1.00000

 Dipole moment (field-independent basis, Debye):
    X=             -0.4220    Y=             -0.0212    Z=              0.0000  Tot=              0.4226
 Quadrupole moment (field-independent basis, Debye-Ang):
   XX=             -8.5937   YY=            -26.5578   ZZ=             -7.6777
   XY=             -0.3520   XZ=              0.0000   YZ=              0.0000

 PMP2-0=-2.1982243\MP4SDQ=-2.2134177\CCSD=-2.214349\CCSD(T)=-2.2149235\
 Normal termination of Gaussian 16 at Tue Feb 13 12:27:03 2024.
