 Gaussian 16, Revision A.03,
 Gaussian 16:  ES64L-G16RevA.03 25-Dec-2016

 --------------------
 #p ROCCSD(T)/cc-pVTZ
 --------------------

 ---------
 H2_H2_198
 ---------
 Symbolic Z-matrix:
 Charge = -1 Multiplicity = 2

                         Standard orientation:
 ---------------------------------------------------------------------
 Center     Atomic      Atomic             Coordinates (Angstroms)
 Number     Number       Type             X           Y           Z
 ---------------------------------------------------------------------
      1          1           0        0.000000    0.000000    2.560000
      2          1           0        0.000000    0.000000    1.820000
      3          1           0        0.000000    0.000000   -1.820000
      4          1           0        0.000000    0.000000   -2.560000
 ---------------------------------------------------------------------

 SCF Done:  E(ROHF) =  -2.13365033372     A.U. after   10 cycles
 E2 =    -0.7072262128D-01 EUMP2 =    -0.22043729549996D+01
 CCSD(T)
 CCSD(T)= -0.22209560477D+01

 The electronic state is 2-SGG.
 Alpha  occ. eigenvalues --   -0.38892  -0.38359   0.12774
 Alpha virt. eigenvalues --    0.33771   0.46168   0.53296   0.83591   0.89907
 Alpha virt. eigenvalues --    0.90277   0.90277   0.90330   0.90330   1.29724
 Alpha virt. eigenvalues --    1.31563   1.32496   1.32496   1.32851   1.32851

 Mulliken charges and spin densities:
               1          2
     1  H   -0.210562   0.086932
     2  H   -0.289438   0.413068
     3  H   -0.289438   0.413068
     4  H   -0.210562   0.086932
 Sum of Mulliken charges =  -1.00000   1.00000

 Dipole moment (field-independent basis, Debye):
    X=             -0.0000    Y=             -0.0000    Z=              0.0000  Tot=              0.0000
 Quadrupole moment (field-independent basis, Debye-Ang):
   XX=             -7.7168   YY=             -7.7168   ZZ=            -29.5891
   XY=              0.0000   XZ=              0.0000   YZ=             -0.0000

 4SDQ=-2.2194699\CCSD=-2.2204179\CCSD(T)=-2.220956\RMSD=5.223e-09\PG=D*
 Normal termination of Gaussian 16 at Tue Feb 13 12:28:09 2024.
