 Gaussian 16, Revision A.03,
 Gaussian 16:  ES64L-G16RevA.03 25-Dec-2016

 --------------------
 #p ROCCSD(T)/cc-pVTZ
 --------------------

 --------
 H2_H2_89
 --------
 Symbolic Z-matrix:
 Charge = -1 Multiplicity = 2

                         Standard orientation:
 ---------------------------------------------------------------------
 Center     Atomic      Atomic             Coordinates (Angstroms)
 Number     Number       Type             X           Y           Z
 ---------------------------------------------------------------------
      1          1           0       -0.287443   -1.351157    0.000000
      2          1           0        0.437237   -1.201363    0.000000
      3          1           0        0.000000    0.913920    0.000000
      4          1           0       -0.149794    1.638601    0.000000
 ---------------------------------------------------------------------

 SCF Done:  E(ROHF) =  -2.10807702407     A.U. after   14 cycles
 E2 =    -0.7275363144D-01 EUMP2 =    -0.21808306555067D+01
 CCSD(T)
 CCSD(T)= -0.21977190611D+01

 The electronic state is 2-A'.
 Alpha  occ. eigenvalues --   -0.40903  -0.32000   0.14906
 Alpha virt. eigenvalues --    0.35526   0.50312   0.55592   0.84203   0.86016
 Alpha virt. eigenvalues --    0.87443   0.91359   0.96896   1.00871   1.23434
 Alpha virt. eigenvalues --    1.31652   1.35372   1.39097   1.44501   1.49763

 Mulliken charges and spin densities:
               1          2
     1  H   -0.451041   0.459083
     2  H   -0.484028   0.482808
     3  H    0.120089   0.034064
     4  H   -0.185020   0.024046
 Sum of Mulliken charges =  -1.00000   1.00000

 Dipole moment (field-independent basis, Debye):
    X=             -0.2797    Y=              4.8796    Z=              0.0000  Tot=              4.8876
 Quadrupole moment (field-independent basis, Debye-Ang):
   XX=            -13.1742   YY=            -16.6623   ZZ=             -7.6482
   XY=             -0.8912   XZ=              0.0000   YZ=              0.0000

 Q=-2.1961138\CCSD=-2.197078\CCSD(T)=-2.1977191\RMSD=4.512e-09\PG=CS [S
 Normal termination of Gaussian 16 at Tue Feb 13 12:21:06 2024.
