 Gaussian 16, Revision A.03,
 Gaussian 16:  ES64L-G16RevA.03 25-Dec-2016

 --------------------
 #p ROCCSD(T)/cc-pVTZ
 --------------------

 --------
 H2_H2_44
 --------
 Symbolic Z-matrix:
 Charge = -1 Multiplicity = 2

                         Standard orientation:
 ---------------------------------------------------------------------
 Center     Atomic      Atomic             Coordinates (Angstroms)
 Number     Number       Type             X           Y           Z
 ---------------------------------------------------------------------
      1          1           0       -0.243461   -1.086267    0.000000
      2          1           0        0.463170   -0.866558    0.000000
      3          1           0        0.000000    0.623097    0.000000
      4          1           0       -0.219709    1.329729    0.000000
 ---------------------------------------------------------------------

 SCF Done:  E(ROHF) =  -2.10099404260     A.U. after   14 cycles
 E2 =    -0.7615669647D-01 EUMP2 =    -0.21771507390676D+01
 CCSD(T)
 CCSD(T)= -0.21940592630D+01

 The electronic state is 2-A'.
 Alpha  occ. eigenvalues --   -0.41709  -0.28731   0.14138
 Alpha virt. eigenvalues --    0.38093   0.52372   0.56827   0.81618   0.86096
 Alpha virt. eigenvalues --    0.89050   0.92236   1.00134   1.14730   1.27093
 Alpha virt. eigenvalues --    1.34667   1.38462   1.44987   1.62236   1.66335

 Mulliken charges and spin densities:
               1          2
     1  H   -0.515791   0.553832
     2  H   -0.394651   0.380295
     3  H    0.161468   0.022255
     4  H   -0.251026   0.043617
 Sum of Mulliken charges =  -1.00000   1.00000

 Dipole moment (field-independent basis, Debye):
    X=              0.0694    Y=              3.3228    Z=              0.0000  Tot=              3.3235
 Quadrupole moment (field-independent basis, Debye-Ang):
   XX=            -12.7767   YY=            -14.1925   ZZ=             -7.5415
   XY=             -1.1233   XZ=              0.0000   YZ=              0.0000

 Q=-2.1923789\CCSD=-2.1931249\CCSD(T)=-2.1940593\RMSD=1.762e-09\PG=CS [
 Normal termination of Gaussian 16 at Tue Feb 13 12:18:21 2024.
