 Gaussian 16, Revision A.03,
 Gaussian 16:  ES64L-G16RevA.03 25-Dec-2016

 --------------------
 #p ROCCSD(T)/cc-pVTZ
 --------------------

 --------
 H2_H2_82
 --------
 Symbolic Z-matrix:
 Charge = -1 Multiplicity = 2

                         Standard orientation:
 ---------------------------------------------------------------------
 Center     Atomic      Atomic             Coordinates (Angstroms)
 Number     Number       Type             X           Y           Z
 ---------------------------------------------------------------------
      1          1           0       -0.176269   -1.655013   -0.000000
      2          1           0        0.273612   -1.067469   -0.000000
      3          1           0        0.000000    0.994456    0.000000
      4          1           0       -0.097343    1.728026    0.000000
 ---------------------------------------------------------------------

 SCF Done:  E(ROHF) =  -2.10989496807     A.U. after   15 cycles
 E2 =    -0.7566768644D-01 EUMP2 =    -0.21855626545083D+01
 CCSD(T)
 CCSD(T)= -0.22027877318D+01

 The electronic state is 2-A'.
 Alpha  occ. eigenvalues --   -0.38390  -0.33308   0.14761
 Alpha virt. eigenvalues --    0.36216   0.50195   0.60192   0.84096   0.85751
 Alpha virt. eigenvalues --    0.90304   0.92478   0.95665   1.00432   1.22945
 Alpha virt. eigenvalues --    1.27779   1.28943   1.42345   1.44775   1.59279

 Mulliken charges and spin densities:
               1          2
     1  H   -0.345144   0.268015
     2  H   -0.305243   0.385621
     3  H   -0.075443   0.230268
     4  H   -0.274169   0.116095
 Sum of Mulliken charges =  -1.00000   1.00000

 Dipole moment (field-independent basis, Debye):
    X=             -0.0977    Y=              1.7826    Z=              0.0000  Tot=              1.7853
 Quadrupole moment (field-independent basis, Debye-Ang):
   XX=             -8.8188   YY=            -22.0994   ZZ=             -7.5610
   XY=             -1.2153   XZ=              0.0000   YZ=             -0.0000

 P2-0=-2.1855627\MP4SDQ=-2.2011291\CCSD=-2.2018992\CCSD(T)=-2.2027877\R
 Normal termination of Gaussian 16 at Tue Feb 13 12:20:41 2024.
