 Gaussian 16, Revision A.03,
 Gaussian 16:  ES64L-G16RevA.03 25-Dec-2016

 --------------------
 #p ROCCSD(T)/cc-pVTZ
 --------------------

 ---------
 H2_H2_189
 ---------
 Symbolic Z-matrix:
 Charge = -1 Multiplicity = 2

                         Standard orientation:
 ---------------------------------------------------------------------
 Center     Atomic      Atomic             Coordinates (Angstroms)
 Number     Number       Type             X           Y           Z
 ---------------------------------------------------------------------
      1          1           0        0.000000    0.000000    2.500000
      2          1           0        0.000000    0.000000    1.760000
      3          1           0        0.000000    0.000000   -1.760000
      4          1           0        0.000000    0.000000   -2.500000
 ---------------------------------------------------------------------

 SCF Done:  E(ROHF) =  -2.13393273016     A.U. after   10 cycles
 E2 =    -0.7079361188D-01 EUMP2 =    -0.22047263420441D+01
 CCSD(T)
 CCSD(T)= -0.22213280563D+01

 The electronic state is 2-SGG.
 Alpha  occ. eigenvalues --   -0.38667  -0.38061   0.12709
 Alpha virt. eigenvalues --    0.34225   0.46317   0.54105   0.84434   0.89938
 Alpha virt. eigenvalues --    0.90533   0.90533   0.90607   0.90607   1.30169
 Alpha virt. eigenvalues --    1.31888   1.32699   1.32699   1.33187   1.33187

 Mulliken charges and spin densities:
               1          2
     1  H   -0.212499   0.081842
     2  H   -0.287501   0.418158
     3  H   -0.287501   0.418158
     4  H   -0.212499   0.081842
 Sum of Mulliken charges =  -1.00000   1.00000

 Dipole moment (field-independent basis, Debye):
    X=             -0.0000    Y=             -0.0000    Z=             -0.0000  Tot=              0.0000
 Quadrupole moment (field-independent basis, Debye-Ang):
   XX=             -7.7022   YY=             -7.7022   ZZ=            -28.4047
   XY=              0.0000   XZ=              0.0000   YZ=             -0.0000

 MP4SDQ=-2.2198354\CCSD=-2.2207853\CCSD(T)=-2.2213281\RMSD=5.303e-09\PG
 Normal termination of Gaussian 16 at Tue Feb 13 12:27:35 2024.
