 Gaussian 16, Revision A.03,
 Gaussian 16:  ES64L-G16RevA.03 25-Dec-2016

 --------------------
 #p ROCCSD(T)/cc-pVTZ
 --------------------

 --------
 H2_H2_57
 --------
 Symbolic Z-matrix:
 Charge = -1 Multiplicity = 2

                         Standard orientation:
 ---------------------------------------------------------------------
 Center     Atomic      Atomic             Coordinates (Angstroms)
 Number     Number       Type             X           Y           Z
 ---------------------------------------------------------------------
      1          1           0        0.000000    0.000000    1.620000
      2          1           0        0.000000    0.000000    0.880000
      3          1           0        0.000000    0.000000   -0.880000
      4          1           0        0.000000    0.000000   -1.620000
 ---------------------------------------------------------------------

 SCF Done:  E(ROHF) =  -2.10414910799     A.U. after   12 cycles
 E2 =    -0.7865230007D-01 EUMP2 =    -0.21828014080587D+01
 CCSD(T)
 CCSD(T)= -0.22000957034D+01

 The electronic state is 2-SGG.
 Alpha  occ. eigenvalues --   -0.39014  -0.32087   0.15011
 Alpha virt. eigenvalues --    0.37247   0.51459   0.70269   0.79776   0.89148
 Alpha virt. eigenvalues --    0.89148   0.90673   0.97038   0.97038   1.25041
 Alpha virt. eigenvalues --    1.25041   1.28776   1.53900   1.53900   1.64717

 Mulliken charges and spin densities:
               1          2
     1  H   -0.352468   0.245801
     2  H   -0.147532   0.254199
     3  H   -0.147532   0.254199
     4  H   -0.352468   0.245801
 Sum of Mulliken charges =  -1.00000   1.00000

 Dipole moment (field-independent basis, Debye):
    X=             -0.0000    Y=             -0.0000    Z=              0.0000  Tot=              0.0000
 Quadrupole moment (field-independent basis, Debye-Ang):
   XX=             -7.4532   YY=             -7.4532   ZZ=            -24.0366
   XY=              0.0000   XZ=              0.0000   YZ=             -0.0000

 4SDQ=-2.1984647\CCSD=-2.1989876\CCSD(T)=-2.2000957\RMSD=8.615e-10\PG=D
 Normal termination of Gaussian 16 at Tue Feb 13 12:19:09 2024.
