 Gaussian 16, Revision A.03,
 Gaussian 16:  ES64L-G16RevA.03 25-Dec-2016

 --------------------
 #p ROCCSD(T)/cc-pVTZ
 --------------------

 ---------
 H2_H2_280
 ---------
 Symbolic Z-matrix:
 Charge = -1 Multiplicity = 2

                         Standard orientation:
 ---------------------------------------------------------------------
 Center     Atomic      Atomic             Coordinates (Angstroms)
 Number     Number       Type             X           Y           Z
 ---------------------------------------------------------------------
      1          1           0       -0.225433   -2.954957   -0.000000
      2          1           0        0.267348   -2.402900    0.000000
      3          1           0       -0.000000    2.309523    0.000000
      4          1           0       -0.041915    3.048334   -0.000000
 ---------------------------------------------------------------------

 SCF Done:  E(ROHF) =  -2.11535886795     A.U. after   13 cycles
 E2 =    -0.7159172900D-01 EUMP2 =    -0.21869505969544D+01
 CCSD(T)
 CCSD(T)= -0.22035297391D+01

 The electronic state is 2-A'.
 Alpha  occ. eigenvalues --   -0.40381  -0.40153   0.14822
 Alpha virt. eigenvalues --    0.28424   0.45819   0.48431   0.80786   0.84878
 Alpha virt. eigenvalues --    0.88623   0.88624   0.88765   0.88874   1.28395
 Alpha virt. eigenvalues --    1.28563   1.30777   1.30792   1.30889   1.30983

 Mulliken charges and spin densities:
               1          2
     1  H   -0.225505   0.168610
     2  H   -0.274704   0.331603
     3  H   -0.259805   0.320319
     4  H   -0.239985   0.179468
 Sum of Mulliken charges =  -1.00000   1.00000

 Dipole moment (field-independent basis, Debye):
    X=             -0.2247    Y=             -0.0011    Z=             -0.0000  Tot=              0.2247
 Quadrupole moment (field-independent basis, Debye-Ang):
   XX=             -8.9545   YY=            -43.3795   ZZ=             -7.7326
   XY=             -0.5264   XZ=             -0.0000   YZ=             -0.0000

 PMP2-0=-2.1869506\MP4SDQ=-2.2020754\CCSD=-2.2029294\CCSD(T)=-2.2035297
 Normal termination of Gaussian 16 at Tue Feb 13 12:33:20 2024.
