 Gaussian 16, Revision A.03,
 Gaussian 16:  ES64L-G16RevA.03 25-Dec-2016

 --------------------
 #p ROCCSD(T)/cc-pVTZ
 --------------------

 ---------
 H2_H2_199
 ---------
 Symbolic Z-matrix:
 Charge = -1 Multiplicity = 2

                         Standard orientation:
 ---------------------------------------------------------------------
 Center     Atomic      Atomic             Coordinates (Angstroms)
 Number     Number       Type             X           Y           Z
 ---------------------------------------------------------------------
      1          1           0       -0.214250   -2.419886    0.000000
      2          1           0        0.268921   -1.859399    0.000000
      3          1           0       -0.000000    1.770654   -0.000000
      4          1           0       -0.054671    2.508632   -0.000000
 ---------------------------------------------------------------------

 SCF Done:  E(ROHF) =  -2.12698893041     A.U. after   13 cycles
 E2 =    -0.7107452053D-01 EUMP2 =    -0.21980634509380D+01
 CCSD(T)
 CCSD(T)= -0.22147153912D+01

 The electronic state is 2-A'.
 Alpha  occ. eigenvalues --   -0.38826  -0.38299   0.13490
 Alpha virt. eigenvalues --    0.32752   0.46126   0.53036   0.83634   0.86589
 Alpha virt. eigenvalues --    0.90311   0.90330   0.90440   0.92266   1.29625
 Alpha virt. eigenvalues --    1.31240   1.32459   1.32649   1.32798   1.33451

 Mulliken charges and spin densities:
               1          2
     1  H   -0.191197   0.082152
     2  H   -0.305555   0.414495
     3  H   -0.280942   0.395817
     4  H   -0.222305   0.107535
 Sum of Mulliken charges =  -1.00000   1.00000

 Dipole moment (field-independent basis, Debye):
    X=             -0.4163    Y=             -0.0862    Z=              0.0000  Tot=              0.4251
 Quadrupole moment (field-independent basis, Debye-Ang):
   XX=             -8.6719   YY=            -28.6832   ZZ=             -7.7063
   XY=             -0.3064   XZ=              0.0000   YZ=              0.0000

 \PMP2-0=-2.1980635\MP4SDQ=-2.2132225\CCSD=-2.2141534\CCSD(T)=-2.214715
 Normal termination of Gaussian 16 at Tue Feb 13 12:28:12 2024.
