 Gaussian 16, Revision A.03,
 Gaussian 16:  ES64L-G16RevA.03 25-Dec-2016

 --------------------
 #p ROCCSD(T)/cc-pVTZ
 --------------------

 ---------
 H2_H2_282
 ---------
 Symbolic Z-matrix:
 Charge = -1 Multiplicity = 2

                         Standard orientation:
 ---------------------------------------------------------------------
 Center     Atomic      Atomic             Coordinates (Angstroms)
 Number     Number       Type             X           Y           Z
 ---------------------------------------------------------------------
      1          1           0        0.000000    0.000000    3.120000
      2          1           0        0.000000    0.000000    2.380000
      3          1           0        0.000000    0.000000   -2.380000
      4          1           0        0.000000    0.000000   -3.120000
 ---------------------------------------------------------------------

 SCF Done:  E(ROHF) =  -2.11810588179     A.U. after   10 cycles
 E2 =    -0.7144371395D-01 EUMP2 =    -0.21895495957446D+01
 CCSD(T)
 CCSD(T)= -0.22061003978D+01

 The electronic state is 2-SGG.
 Alpha  occ. eigenvalues --   -0.40471  -0.40271   0.14540
 Alpha virt. eigenvalues --    0.28753   0.45786   0.48286   0.80425   0.85436
 Alpha virt. eigenvalues --    0.88581   0.88581   0.88590   0.88590   1.28414
 Alpha virt. eigenvalues --    1.28471   1.30736   1.30736   1.30814   1.30814

 Mulliken charges and spin densities:
               1          2
     1  H   -0.235292   0.172143
     2  H   -0.264708   0.327857
     3  H   -0.264708   0.327857
     4  H   -0.235292   0.172143
 Sum of Mulliken charges =  -1.00000   1.00000

 Dipole moment (field-independent basis, Debye):
    X=             -0.0000    Y=             -0.0000    Z=              0.0000  Tot=              0.0000
 Quadrupole moment (field-independent basis, Debye-Ang):
   XX=             -7.7443   YY=             -7.7443   ZZ=            -45.8953
   XY=              0.0000   XZ=              0.0000   YZ=             -0.0000

 P4SDQ=-2.2046497\CCSD=-2.2055108\CCSD(T)=-2.2061004\RMSD=1.308e-09\PG=
 Normal termination of Gaussian 16 at Tue Feb 13 12:33:28 2024.
