 Gaussian 16, Revision A.03,
 Gaussian 16:  ES64L-G16RevA.03 25-Dec-2016

 --------------------
 #p ROCCSD(T)/cc-pVTZ
 --------------------

 ---------
 H2_H2_109
 ---------
 Symbolic Z-matrix:
 Charge = -1 Multiplicity = 2

                         Standard orientation:
 ---------------------------------------------------------------------
 Center     Atomic      Atomic             Coordinates (Angstroms)
 Number     Number       Type             X           Y           Z
 ---------------------------------------------------------------------
      1          1           0       -0.189565   -1.829996    0.000000
      2          1           0        0.272082   -1.251652    0.000000
      3          1           0        0.000000    1.173131   -0.000000
      4          1           0       -0.082517    1.908516   -0.000000
 ---------------------------------------------------------------------

 SCF Done:  E(ROHF) =  -2.11612678251     A.U. after   13 cycles
 E2 =    -0.7406673924D-01 EUMP2 =    -0.21901935217413D+01
 CCSD(T)
 CCSD(T)= -0.22072310750D+01

 The electronic state is 2-A'.
 Alpha  occ. eigenvalues --   -0.37710  -0.34664   0.14277
 Alpha virt. eigenvalues --    0.35674   0.48801   0.59472   0.83774   0.89082
 Alpha virt. eigenvalues --    0.91491   0.92502   0.94160   0.98502   1.21462
 Alpha virt. eigenvalues --    1.30189   1.30589   1.38033   1.39576   1.49258

 Mulliken charges and spin densities:
               1          2
     1  H   -0.270484   0.155293
     2  H   -0.308024   0.423263
     3  H   -0.156640   0.315108
     4  H   -0.264851   0.106335
 Sum of Mulliken charges =  -1.00000   1.00000

 Dipole moment (field-independent basis, Debye):
    X=             -0.2767    Y=              0.9958    Z=             -0.0000  Tot=              1.0335
 Quadrupole moment (field-independent basis, Debye-Ang):
   XX=             -8.6112   YY=            -22.4858   ZZ=             -7.5842
   XY=             -0.8788   XZ=             -0.0000   YZ=              0.0000

 2-0=-2.1901935\MP4SDQ=-2.2056696\CCSD=-2.2064704\CCSD(T)=-2.2072311\RM
 Normal termination of Gaussian 16 at Tue Feb 13 12:22:23 2024.
