 Gaussian 16, Revision A.03,
 Gaussian 16:  ES64L-G16RevA.03 25-Dec-2016

 --------------------
 #p ROCCSD(T)/cc-pVTZ
 --------------------

 ---------
 H2_H2_123
 ---------
 Symbolic Z-matrix:
 Charge = -1 Multiplicity = 2

                         Standard orientation:
 ---------------------------------------------------------------------
 Center     Atomic      Atomic             Coordinates (Angstroms)
 Number     Number       Type             X           Y           Z
 ---------------------------------------------------------------------
      1          1           0        0.000000    0.000000    2.060000
      2          1           0        0.000000    0.000000    1.320000
      3          1           0        0.000000    0.000000   -1.320000
      4          1           0        0.000000    0.000000   -2.060000
 ---------------------------------------------------------------------

 SCF Done:  E(ROHF) =  -2.12530179626     A.U. after   10 cycles
 E2 =    -0.7302467314D-01 EUMP2 =    -0.21983264694003D+01
 CCSD(T)
 CCSD(T)= -0.22152284899D+01

 The electronic state is 2-SGG.
 Alpha  occ. eigenvalues --   -0.37333  -0.35489   0.13302
 Alpha virt. eigenvalues --    0.36450   0.48122   0.61519   0.87241   0.91404
 Alpha virt. eigenvalues --    0.92101   0.92101   0.93157   0.93157   1.23330
 Alpha virt. eigenvalues --    1.31798   1.31798   1.37906   1.37906   1.41240

 Mulliken charges and spin densities:
               1          2
     1  H   -0.262714   0.095445
     2  H   -0.237286   0.404555
     3  H   -0.237286   0.404555
     4  H   -0.262714   0.095445
 Sum of Mulliken charges =  -1.00000   1.00000

 Dipole moment (field-independent basis, Debye):
    X=             -0.0000    Y=              0.0000    Z=              0.0000  Tot=              0.0000
 Quadrupole moment (field-independent basis, Debye-Ang):
   XX=             -7.5898   YY=             -7.5898   ZZ=            -23.5247
   XY=             -0.0000   XZ=              0.0000   YZ=              0.0000

 MP4SDQ=-2.2136814\CCSD=-2.2145415\CCSD(T)=-2.2152285\RMSD=3.818e-09\PG
 Normal termination of Gaussian 16 at Tue Feb 13 12:23:21 2024.
