 Gaussian 16, Revision A.03,
 Gaussian 16:  ES64L-G16RevA.03 25-Dec-2016

 --------------------
 #p ROCCSD(T)/cc-pVTZ
 --------------------

 --------
 H2_H2_76
 --------
 Symbolic Z-matrix:
 Charge = -1 Multiplicity = 2

                         Standard orientation:
 ---------------------------------------------------------------------
 Center     Atomic      Atomic             Coordinates (Angstroms)
 Number     Number       Type             X           Y           Z
 ---------------------------------------------------------------------
      1          1           0       -0.172626   -1.616337   -0.000000
      2          1           0        0.274010   -1.026323    0.000000
      3          1           0       -0.000000    0.954819    0.000000
      4          1           0       -0.101384    1.687841   -0.000000
 ---------------------------------------------------------------------

 SCF Done:  E(ROHF) =  -2.10843686433     A.U. after   15 cycles
 E2 =    -0.7602256248D-01 EUMP2 =    -0.21844594268121D+01
 CCSD(T)
 CCSD(T)= -0.22017327314D+01

 The electronic state is 2-A'.
 Alpha  occ. eigenvalues --   -0.38635  -0.32966   0.14849
 Alpha virt. eigenvalues --    0.36353   0.50563   0.60221   0.82967   0.86290
 Alpha virt. eigenvalues --    0.89886   0.92526   0.96036   1.01088   1.23506
 Alpha virt. eigenvalues --    1.27266   1.29534   1.43536   1.46217   1.61799

 Mulliken charges and spin densities:
               1          2
     1  H   -0.367002   0.301677
     2  H   -0.301532   0.371367
     3  H   -0.055561   0.208864
     4  H   -0.275904   0.118092
 Sum of Mulliken charges =  -1.00000   1.00000

 Dipole moment (field-independent basis, Debye):
    X=             -0.0394    Y=              1.9642    Z=             -0.0000  Tot=              1.9646
 Quadrupole moment (field-independent basis, Debye-Ang):
   XX=             -8.8718   YY=            -22.0238   ZZ=             -7.5520
   XY=             -1.2898   XZ=             -0.0000   YZ=             -0.0000

 MP2-0=-2.1844594\MP4SDQ=-2.2000351\CCSD=-2.200812\CCSD(T)=-2.2017327\R
 Normal termination of Gaussian 16 at Tue Feb 13 12:20:16 2024.
