 Gaussian 16, Revision A.03,
 Gaussian 16:  ES64L-G16RevA.03 25-Dec-2016

 --------------------
 #p ROCCSD(T)/cc-pVTZ
 --------------------

 ---------
 H2_H2_299
 ---------
 Symbolic Z-matrix:
 Charge = -1 Multiplicity = 2

                         Standard orientation:
 ---------------------------------------------------------------------
 Center     Atomic      Atomic             Coordinates (Angstroms)
 Number     Number       Type             X           Y           Z
 ---------------------------------------------------------------------
      1          1           0       -0.339074   -2.700977    0.000000
      2          1           0        0.398533   -2.641519    0.000000
      3          1           0       -0.000000    2.302444    0.000000
      4          1           0       -0.059459    3.040052    0.000000
 ---------------------------------------------------------------------

 SCF Done:  E(ROHF) =  -2.10275147349     A.U. after   21 cycles
 E2 =    -0.7232755715D-01 EUMP2 =    -0.21750790306440D+01
 CCSD(T)
 CCSD(T)= -0.21917374876D+01

 The electronic state is 2-A'.
 Alpha  occ. eigenvalues --   -0.40685  -0.39887   0.16102
 Alpha virt. eigenvalues --    0.26587   0.45902   0.48152   0.82006   0.82570
 Alpha virt. eigenvalues --    0.88297   0.88301   0.89108   0.89273   1.27940
 Alpha virt. eigenvalues --    1.28686   1.30385   1.30393   1.31058   1.31184

 Mulliken charges and spin densities:
               1          2
     1  H   -0.206948   0.188207
     2  H   -0.306498   0.325242
     3  H   -0.223539   0.265230
     4  H   -0.263015   0.221321
 Sum of Mulliken charges =  -1.00000   1.00000

 Dipole moment (field-independent basis, Debye):
    X=             -0.3664    Y=              0.3322    Z=              0.0000  Tot=              0.4946
 Quadrupole moment (field-independent basis, Debye-Ang):
   XX=            -10.5810   YY=            -44.6440   ZZ=             -7.6799
   XY=              1.1529   XZ=              0.0000   YZ=              0.0000

 DQ=-2.1902701\CCSD=-2.1910823\CCSD(T)=-2.1917375\RMSD=1.235e-09\PG=CS
 Normal termination of Gaussian 16 at Tue Feb 13 12:34:30 2024.
