 Gaussian 16, Revision A.03,
 Gaussian 16:  ES64L-G16RevA.03 25-Dec-2016

 --------------------
 #p ROCCSD(T)/cc-pVTZ
 --------------------

 --------
 H2_H2_71
 --------
 Symbolic Z-matrix:
 Charge = -1 Multiplicity = 2

                         Standard orientation:
 ---------------------------------------------------------------------
 Center     Atomic      Atomic             Coordinates (Angstroms)
 Number     Number       Type             X           Y           Z
 ---------------------------------------------------------------------
      1          1           0       -0.273980   -1.242572    0.000000
      2          1           0        0.445797   -1.070754    0.000000
      3          1           0       -0.000000    0.796775    0.000000
      4          1           0       -0.171818    1.516552    0.000000
 ---------------------------------------------------------------------

 SCF Done:  E(ROHF) =  -2.10720942638     A.U. after   15 cycles
 E2 =    -0.7373067176D-01 EUMP2 =    -0.21809400981332D+01
 CCSD(T)
 CCSD(T)= -0.21978410532D+01

 The electronic state is 2-A'.
 Alpha  occ. eigenvalues --   -0.40563  -0.31337   0.14670
 Alpha virt. eigenvalues --    0.36496   0.51758   0.55390   0.82712   0.87268
 Alpha virt. eigenvalues --    0.87361   0.91418   0.97432   1.04946   1.23515
 Alpha virt. eigenvalues --    1.33094   1.37169   1.40319   1.50616   1.55809

 Mulliken charges and spin densities:
               1          2
     1  H   -0.474928   0.492096
     2  H   -0.456723   0.450427
     3  H    0.142210   0.028877
     4  H   -0.210559   0.028600
 Sum of Mulliken charges =  -1.00000   1.00000

 Dipole moment (field-independent basis, Debye):
    X=             -0.1677    Y=              4.3051    Z=              0.0000  Tot=              4.3084
 Quadrupole moment (field-independent basis, Debye-Ang):
   XX=            -13.0825   YY=            -15.4935   ZZ=             -7.6236
   XY=             -1.0054   XZ=              0.0000   YZ=              0.0000

 4SDQ=-2.1962258\CCSD=-2.1971158\CCSD(T)=-2.1978411\RMSD=2.503e-09\PG=C
 Normal termination of Gaussian 16 at Tue Feb 13 12:19:58 2024.
