 Gaussian 16, Revision A.03,
 Gaussian 16:  ES64L-G16RevA.03 25-Dec-2016

 --------------------
 #p ROCCSD(T)/cc-pVTZ
 --------------------

 ---------
 H2_H2_143
 ---------
 Symbolic Z-matrix:
 Charge = -1 Multiplicity = 2

                         Standard orientation:
 ---------------------------------------------------------------------
 Center     Atomic      Atomic             Coordinates (Angstroms)
 Number     Number       Type             X           Y           Z
 ---------------------------------------------------------------------
      1          1           0       -0.312086   -1.688565    0.000000
      2          1           0        0.420003   -1.580648    0.000000
      3          1           0       -0.000000    1.268562    0.000000
      4          1           0       -0.107917    2.000651    0.000000
 ---------------------------------------------------------------------

 SCF Done:  E(ROHF) =  -2.10738435291     A.U. after   21 cycles
 E2 =    -0.7167294069D-01 EUMP2 =    -0.21790572936029D+01
 CCSD(T)
 CCSD(T)= -0.21961250305D+01

 The electronic state is 2-A'.
 Alpha  occ. eigenvalues --   -0.42711  -0.32745   0.15326
 Alpha virt. eigenvalues --    0.32791   0.46243   0.56262   0.81116   0.85019
 Alpha virt. eigenvalues --    0.85937   0.89721   0.96581   1.03212   1.26258
 Alpha virt. eigenvalues --    1.28535   1.28872   1.37616   1.38013   1.39391

 Mulliken charges and spin densities:
               1          2
     1  H   -0.358258   0.340017
     2  H   -0.529873   0.549763
     3  H    0.036417   0.075653
     4  H   -0.148286   0.034567
 Sum of Mulliken charges =  -1.00000   1.00000

 Dipole moment (field-independent basis, Debye):
    X=             -0.6171    Y=              5.7708    Z=              0.0000  Tot=              5.8037
 Quadrupole moment (field-independent basis, Debye-Ang):
   XX=            -12.9456   YY=            -21.3019   ZZ=             -7.6610
   XY=             -0.2843   XZ=              0.0000   YZ=              0.0000

 P4SDQ=-2.1943393\CCSD=-2.1955357\CCSD(T)=-2.196125\RMSD=3.483e-09\PG=C
 Normal termination of Gaussian 16 at Tue Feb 13 12:24:37 2024.
