 Gaussian 16, Revision A.03,
 Gaussian 16:  ES64L-G16RevA.03 25-Dec-2016

 --------------------
 #p ROCCSD(T)/cc-pVTZ
 --------------------

 ---------
 H2_H2_209
 ---------
 Symbolic Z-matrix:
 Charge = -1 Multiplicity = 2

                         Standard orientation:
 ---------------------------------------------------------------------
 Center     Atomic      Atomic             Coordinates (Angstroms)
 Number     Number       Type             X           Y           Z
 ---------------------------------------------------------------------
      1          1           0       -0.327671   -2.113027    0.000000
      2          1           0        0.407961   -2.032737    0.000000
      3          1           0       -0.000000    1.705066    0.000000
      4          1           0       -0.080290    2.440697    0.000000
 ---------------------------------------------------------------------

 SCF Done:  E(ROHF) =  -2.10754800637     A.U. after   16 cycles
 E2 =    -0.7159514622D-01 EUMP2 =    -0.21791431525981D+01
 CCSD(T)
 CCSD(T)= -0.21961583958D+01

 The electronic state is 2-A'.
 Alpha  occ. eigenvalues --   -0.42279  -0.34724   0.15490
 Alpha virt. eigenvalues --    0.30239   0.45287   0.53244   0.80617   0.83730
 Alpha virt. eigenvalues --    0.86500   0.92276   0.94476   0.94510   1.26990
 Alpha virt. eigenvalues --    1.28783   1.29278   1.33816   1.36177   1.36240

 Mulliken charges and spin densities:
               1          2
     1  H   -0.016745  -0.022599
     2  H   -0.211974   0.250567
     3  H   -0.395154   0.455128
     4  H   -0.376127   0.316905
 Sum of Mulliken charges =  -1.00000   1.00000

 Dipole moment (field-independent basis, Debye):
    X=             -0.5510    Y=             -5.2415    Z=              0.0000  Tot=              5.2704
 Quadrupole moment (field-independent basis, Debye-Ang):
   XX=             -8.4358   YY=            -31.5941   ZZ=             -7.7033
   XY=              1.4951   XZ=              0.0000   YZ=              0.0000

 DQ=-2.1944079\CCSD=-2.1955521\CCSD(T)=-2.1961584\RMSD=1.836e-09\PG=CS
 Normal termination of Gaussian 16 at Tue Feb 13 12:28:50 2024.
