 Gaussian 16, Revision A.03,
 Gaussian 16:  ES64L-G16RevA.03 25-Dec-2016

 --------------------
 #p ROCCSD(T)/cc-pVTZ
 --------------------

 --------
 H2_H2_99
 --------
 Symbolic Z-matrix:
 Charge = -1 Multiplicity = 2

                         Standard orientation:
 ---------------------------------------------------------------------
 Center     Atomic      Atomic             Coordinates (Angstroms)
 Number     Number       Type             X           Y           Z
 ---------------------------------------------------------------------
      1          1           0        0.000000    0.000000    1.900000
      2          1           0        0.000000    0.000000    1.160000
      3          1           0        0.000000    0.000000   -1.160000
      4          1           0        0.000000    0.000000   -1.900000
 ---------------------------------------------------------------------

 SCF Done:  E(ROHF) =  -2.11863733947     A.U. after   11 cycles
 E2 =    -0.7472880197D-01 EUMP2 =    -0.21933661414415D+01
 CCSD(T)
 CCSD(T)= -0.22104325572D+01

 The electronic state is 2-SGG.
 Alpha  occ. eigenvalues --   -0.37354  -0.34432   0.13892
 Alpha virt. eigenvalues --    0.36820   0.49073   0.64709   0.87038   0.89363
 Alpha virt. eigenvalues --    0.91892   0.91892   0.94370   0.94370   1.19514
 Alpha virt. eigenvalues --    1.29326   1.29326   1.41864   1.41864   1.48514

 Mulliken charges and spin densities:
               1          2
     1  H   -0.290695   0.128267
     2  H   -0.209305   0.371733
     3  H   -0.209305   0.371733
     4  H   -0.290695   0.128267
 Sum of Mulliken charges =  -1.00000   1.00000

 Dipole moment (field-independent basis, Debye):
    X=             -0.0000    Y=              0.0000    Z=             -0.0000  Tot=              0.0000
 Quadrupole moment (field-independent basis, Debye-Ang):
   XX=             -7.5542   YY=             -7.5542   ZZ=            -23.2176
   XY=             -0.0000   XZ=              0.0000   YZ=              0.0000

 P4SDQ=-2.2088685\CCSD=-2.2096295\CCSD(T)=-2.2104326\RMSD=1.953e-09\PG=
 Normal termination of Gaussian 16 at Tue Feb 13 12:21:46 2024.
