 Gaussian 16, Revision A.03,
 Gaussian 16:  ES64L-G16RevA.03 25-Dec-2016

 --------------------
 #p ROCCSD(T)/cc-pVTZ
 --------------------

 ---------
 H2_H2_250
 ---------
 Symbolic Z-matrix:
 Charge = -1 Multiplicity = 2

                         Standard orientation:
 ---------------------------------------------------------------------
 Center     Atomic      Atomic             Coordinates (Angstroms)
 Number     Number       Type             X           Y           Z
 ---------------------------------------------------------------------
      1          1           0       -0.221964   -2.756509   -0.000000
      2          1           0        0.267845   -2.201814   -0.000000
      3          1           0       -0.000000    2.109874    0.000000
      4          1           0       -0.045881    2.848450    0.000000
 ---------------------------------------------------------------------

 SCF Done:  E(ROHF) =  -2.12096498586     A.U. after   13 cycles
 E2 =    -0.7124989302D-01 EUMP2 =    -0.21922148788768D+01
 CCSD(T)
 CCSD(T)= -0.22088052898D+01

 The electronic state is 2-A'.
 Alpha  occ. eigenvalues --   -0.39900  -0.39644   0.14223
 Alpha virt. eigenvalues --    0.30030   0.45784   0.49751   0.81205   0.86192
 Alpha virt. eigenvalues --    0.89150   0.89153   0.89194   0.89509   1.28944
 Alpha virt. eigenvalues --    1.29154   1.31308   1.31380   1.31422   1.31578

 Mulliken charges and spin densities:
               1          2
     1  H   -0.207172   0.132240
     2  H   -0.289286   0.364215
     3  H   -0.273671   0.351875
     4  H   -0.229870   0.151670
 Sum of Mulliken charges =  -1.00000   1.00000

 Dipole moment (field-independent basis, Debye):
    X=             -0.3162    Y=             -0.0911    Z=             -0.0000  Tot=              0.3290
 Quadrupole moment (field-independent basis, Debye-Ang):
   XX=             -8.8815   YY=            -37.1824   ZZ=             -7.7426
   XY=             -0.3739   XZ=             -0.0000   YZ=             -0.0000

 2-0=-2.1922149\MP4SDQ=-2.2073408\CCSD=-2.2082294\CCSD(T)=-2.2088053\RM
 Normal termination of Gaussian 16 at Tue Feb 13 12:31:29 2024.
