 Gaussian 16, Revision A.03,
 Gaussian 16:  ES64L-G16RevA.03 25-Dec-2016

 --------------------
 #p ROCCSD(T)/cc-pVTZ
 --------------------

 --------
 H2_H2_59
 --------
 Symbolic Z-matrix:
 Charge = -1 Multiplicity = 2

                         Standard orientation:
 ---------------------------------------------------------------------
 Center     Atomic      Atomic             Coordinates (Angstroms)
 Number     Number       Type             X           Y           Z
 ---------------------------------------------------------------------
      1          1           0       -0.262375   -1.171926    0.000000
      2          1           0        0.452725   -0.981575    0.000000
      3          1           0       -0.000000    0.719201    0.000000
      4          1           0       -0.190350    1.434300    0.000000
 ---------------------------------------------------------------------

 SCF Done:  E(ROHF) =  -2.10551529067     A.U. after   14 cycles
 E2 =    -0.7464153423D-01 EUMP2 =    -0.21801568248981D+01
 CCSD(T)
 CCSD(T)= -0.21970674798D+01

 The electronic state is 2-A'.
 Alpha  occ. eigenvalues --   -0.40758  -0.30470   0.14467
 Alpha virt. eigenvalues --    0.37183   0.52331   0.55711   0.82006   0.86910
 Alpha virt. eigenvalues --    0.88123   0.91497   0.98331   1.08959   1.24655
 Alpha virt. eigenvalues --    1.33949   1.37833   1.41885   1.55584   1.60337

 Mulliken charges and spin densities:
               1          2
     1  H   -0.491936   0.517026
     2  H   -0.433227   0.423295
     3  H    0.153613   0.025849
     4  H   -0.228450   0.033830
 Sum of Mulliken charges =  -1.00000   1.00000

 Dipole moment (field-independent basis, Debye):
    X=             -0.0759    Y=              3.8859    Z=              0.0000  Tot=              3.8866
 Quadrupole moment (field-independent basis, Debye-Ang):
   XX=            -12.9754   YY=            -14.8403   ZZ=             -7.5950
   XY=             -1.0679   XZ=              0.0000   YZ=              0.0000

 SDQ=-2.1954307\CCSD=-2.1962631\CCSD(T)=-2.1970675\RMSD=7.214e-09\PG=CS
 Normal termination of Gaussian 16 at Tue Feb 13 12:19:15 2024.
