 Gaussian 16, Revision A.03,
 Gaussian 16:  ES64L-G16RevA.03 25-Dec-2016

 --------------------
 #p ROCCSD(T)/cc-pVTZ
 --------------------

 --------
 H2_H2_42
 --------
 Symbolic Z-matrix:
 Charge = -1 Multiplicity = 2

                         Standard orientation:
 ---------------------------------------------------------------------
 Center     Atomic      Atomic             Coordinates (Angstroms)
 Number     Number       Type             X           Y           Z
 ---------------------------------------------------------------------
      1          1           0        0.000000    0.000000    1.520000
      2          1           0        0.000000    0.000000    0.780000
      3          1           0        0.000000    0.000000   -0.780000
      4          1           0        0.000000    0.000000   -1.520000
 ---------------------------------------------------------------------

 SCF Done:  E(ROHF) =  -2.09780920290     A.U. after   12 cycles
 E2 =    -0.8024394942D-01 EUMP2 =    -0.21780531523195D+01
 CCSD(T)
 CCSD(T)= -0.21953764849D+01

 The electronic state is 2-SGG.
 Alpha  occ. eigenvalues --   -0.40408  -0.30866   0.15277
 Alpha virt. eigenvalues --    0.37495   0.52592   0.72014   0.76980   0.87707
 Alpha virt. eigenvalues --    0.87707   0.93603   0.98208   0.98208   1.25207
 Alpha virt. eigenvalues --    1.25207   1.34153   1.59985   1.59985   1.71890

 Mulliken charges and spin densities:
               1          2
     1  H   -0.388178   0.312694
     2  H   -0.111822   0.187306
     3  H   -0.111822   0.187306
     4  H   -0.388178   0.312694
 Sum of Mulliken charges =  -1.00000   1.00000

 Dipole moment (field-independent basis, Debye):
    X=             -0.0000    Y=              0.0000    Z=              0.0000  Tot=              0.0000
 Quadrupole moment (field-independent basis, Debye-Ang):
   XX=             -7.4137   YY=             -7.4137   ZZ=            -24.4157
   XY=              0.0000   XZ=              0.0000   YZ=             -0.0000

 4SDQ=-2.1936886\CCSD=-2.1941288\CCSD(T)=-2.1953765\RMSD=1.314e-09\PG=D
 Normal termination of Gaussian 16 at Tue Feb 13 12:18:15 2024.
