 Gaussian 16, Revision A.03,
 Gaussian 16:  ES64L-G16RevA.03 25-Dec-2016

 --------------------
 #p ROCCSD(T)/cc-pVTZ
 --------------------

 ---------
 H2_H2_223
 ---------
 Symbolic Z-matrix:
 Charge = -1 Multiplicity = 2

                         Standard orientation:
 ---------------------------------------------------------------------
 Center     Atomic      Atomic             Coordinates (Angstroms)
 Number     Number       Type             X           Y           Z
 ---------------------------------------------------------------------
      1          1           0       -0.218222   -2.578161   -0.000000
      2          1           0        0.268372   -2.020643   -0.000000
      3          1           0        0.000000    1.930253    0.000000
      4          1           0       -0.050150    2.668551    0.000000
 ---------------------------------------------------------------------

 SCF Done:  E(ROHF) =  -2.12509963221     A.U. after   13 cycles
 E2 =    -0.7105161331D-01 EUMP2 =    -0.21961512455140D+01
 CCSD(T)
 CCSD(T)= -0.22127636124D+01

 The electronic state is 2-A'.
 Alpha  occ. eigenvalues --   -0.39371  -0.39008   0.13751
 Alpha virt. eigenvalues --    0.31522   0.45875   0.51332   0.82193   0.86826
 Alpha virt. eigenvalues --    0.89723   0.89731   0.89769   0.90678   1.29240
 Alpha virt. eigenvalues --    1.30151   1.31889   1.32012   1.32072   1.32427

 Mulliken charges and spin densities:
               1          2
     1  H   -0.194968   0.101793
     2  H   -0.300287   0.393430
     3  H   -0.281671   0.378747
     4  H   -0.223074   0.126030
 Sum of Mulliken charges =  -1.00000   1.00000

 Dipole moment (field-independent basis, Debye):
    X=             -0.3830    Y=             -0.1152    Z=              0.0000  Tot=              0.3999
 Quadrupole moment (field-independent basis, Debye-Ang):
   XX=             -8.7803   YY=            -32.2668   ZZ=             -7.7329
   XY=             -0.3019   XZ=              0.0000   YZ=             -0.0000

 \PMP2-0=-2.1961512\MP4SDQ=-2.2112859\CCSD=-2.2122023\CCSD(T)=-2.212763
 Normal termination of Gaussian 16 at Tue Feb 13 12:29:46 2024.
