 Gaussian 16, Revision A.03,
 Gaussian 16:  ES64L-G16RevA.03 25-Dec-2016

 --------------------
 #p ROCCSD(T)/cc-pVTZ
 --------------------

 ---------
 H2_H2_125
 ---------
 Symbolic Z-matrix:
 Charge = -1 Multiplicity = 2

                         Standard orientation:
 ---------------------------------------------------------------------
 Center     Atomic      Atomic             Coordinates (Angstroms)
 Number     Number       Type             X           Y           Z
 ---------------------------------------------------------------------
      1          1           0       -0.305658   -1.574682    0.000000
      2          1           0        0.424704   -1.455636    0.000000
      3          1           0       -0.000000    1.149978    0.000000
      4          1           0       -0.119046    1.880340    0.000000
 ---------------------------------------------------------------------

 SCF Done:  E(ROHF) =  -2.10769430261     A.U. after   18 cycles
 E2 =    -0.7179292130D-01 EUMP2 =    -0.21794872239057D+01
 CCSD(T)
 CCSD(T)= -0.21964446698D+01

 The electronic state is 2-A'.
 Alpha  occ. eigenvalues --   -0.42275  -0.32433   0.15218
 Alpha virt. eigenvalues --    0.33681   0.47352   0.56290   0.82588   0.85104
 Alpha virt. eigenvalues --    0.86335   0.90403   0.96851   1.02499   1.26354
 Alpha virt. eigenvalues --    1.29071   1.29434   1.38344   1.38933   1.41496

 Mulliken charges and spin densities:
               1          2
     1  H   -0.398126   0.390163
     2  H   -0.519873   0.530676
     3  H    0.069564   0.053412
     4  H   -0.151565   0.025750
 Sum of Mulliken charges =  -1.00000   1.00000

 Dipole moment (field-independent basis, Debye):
    X=             -0.4838    Y=              5.7122    Z=              0.0000  Tot=              5.7326
 Quadrupole moment (field-independent basis, Debye-Ang):
   XX=            -13.1305   YY=            -19.5758   ZZ=             -7.6605
   XY=             -0.5625   XZ=              0.0000   YZ=              0.0000

 P4SDQ=-2.1947591\CCSD=-2.1958685\CCSD(T)=-2.1964447\RMSD=9.742e-10\PG=
 Normal termination of Gaussian 16 at Tue Feb 13 12:23:28 2024.
