 Gaussian 16, Revision A.03,
 Gaussian 16:  ES64L-G16RevA.03 25-Dec-2016

 --------------------
 #p ROCCSD(T)/cc-pVTZ
 --------------------

 --------
 H2_H2_74
 --------
 Symbolic Z-matrix:
 Charge = -1 Multiplicity = 2

                         Standard orientation:
 ---------------------------------------------------------------------
 Center     Atomic      Atomic             Coordinates (Angstroms)
 Number     Number       Type             X           Y           Z
 ---------------------------------------------------------------------
      1          1           0       -0.276511   -1.260473    0.000000
      2          1           0        0.444231   -1.092753    0.000000
      3          1           0        0.000000    0.816241    0.000000
      4          1           0       -0.167720    1.536984    0.000000
 ---------------------------------------------------------------------

 SCF Done:  E(ROHF) =  -2.10746190878     A.U. after   15 cycles
 E2 =    -0.7353812993D-01 EUMP2 =    -0.21810000387111D+01
 CCSD(T)
 CCSD(T)= -0.21978982002D+01

 The electronic state is 2-A'.
 Alpha  occ. eigenvalues --   -0.40577  -0.31493   0.14714
 Alpha virt. eigenvalues --    0.36330   0.51548   0.55384   0.82945   0.87053
 Alpha virt. eigenvalues --    0.87427   0.91422   0.97282   1.04071   1.23366
 Alpha virt. eigenvalues --    1.32857   1.36954   1.40037   1.49460   1.54732

 Mulliken charges and spin densities:
               1          2
     1  H   -0.470857   0.486305
     2  H   -0.461855   0.456438
     3  H    0.138838   0.029670
     4  H   -0.206126   0.027586
 Sum of Mulliken charges =  -1.00000   1.00000

 Dipole moment (field-independent basis, Debye):
    X=             -0.1882    Y=              4.4056    Z=              0.0000  Tot=              4.4096
 Quadrupole moment (field-independent basis, Debye-Ang):
   XX=            -13.1031   YY=            -15.6733   ZZ=             -7.6290
   XY=             -0.9879   XZ=              0.0000   YZ=              0.0000

 962865\CCSD=-2.1971897\CCSD(T)=-2.1978982\RMSD=3.344e-09\PG=CS [SG(H4)
 Normal termination of Gaussian 16 at Tue Feb 13 12:20:08 2024.
