 Gaussian 16, Revision A.03,
 Gaussian 16:  ES64L-G16RevA.03 25-Dec-2016

 --------------------
 #p ROCCSD(T)/cc-pVTZ
 --------------------

 ---------
 H2_H2_112
 ---------
 Symbolic Z-matrix:
 Charge = -1 Multiplicity = 2

                         Standard orientation:
 ---------------------------------------------------------------------
 Center     Atomic      Atomic             Coordinates (Angstroms)
 Number     Number       Type             X           Y           Z
 ---------------------------------------------------------------------
      1          1           0       -0.190793   -1.849517    0.000000
      2          1           0        0.271935   -1.272038    0.000000
      3          1           0       -0.000000    1.193009   -0.000000
      4          1           0       -0.081142    1.928546   -0.000000
 ---------------------------------------------------------------------

 SCF Done:  E(ROHF) =  -2.11678580764     A.U. after   13 cycles
 E2 =    -0.7389364032D-01 EUMP2 =    -0.21906794479581D+01
 CCSD(T)
 CCSD(T)= -0.22076988289D+01

 The electronic state is 2-A'.
 Alpha  occ. eigenvalues --   -0.37675  -0.34804   0.14220
 Alpha virt. eigenvalues --    0.35613   0.48668   0.59336   0.83683   0.89323
 Alpha virt. eigenvalues --    0.91553   0.92495   0.94006   0.98415   1.21749
 Alpha virt. eigenvalues --    1.30415   1.30874   1.37650   1.39126   1.48282

 Mulliken charges and spin densities:
               1          2
     1  H   -0.264317   0.146463
     2  H   -0.307715   0.425462
     3  H   -0.164556   0.322932
     4  H   -0.263412   0.105143
 Sum of Mulliken charges =  -1.00000   1.00000

 Dipole moment (field-independent basis, Debye):
    X=             -0.2899    Y=              0.9196    Z=             -0.0000  Tot=              0.9642
 Quadrupole moment (field-independent basis, Debye-Ang):
   XX=             -8.5937   YY=            -22.5472   ZZ=             -7.5860
   XY=             -0.8449   XZ=              0.0000   YZ=              0.0000

 \PMP2-0=-2.1906794\MP4SDQ=-2.206142\CCSD=-2.2069505\CCSD(T)=-2.2076988
 Normal termination of Gaussian 16 at Tue Feb 13 12:22:35 2024.
