 Gaussian 16, Revision A.03,
 Gaussian 16:  ES64L-G16RevA.03 25-Dec-2016

 --------------------
 #p ROCCSD(T)/cc-pVTZ
 --------------------

 ---------
 H2_H2_144
 ---------
 Symbolic Z-matrix:
 Charge = -1 Multiplicity = 2

                         Standard orientation:
 ---------------------------------------------------------------------
 Center     Atomic      Atomic             Coordinates (Angstroms)
 Number     Number       Type             X           Y           Z
 ---------------------------------------------------------------------
      1          1           0        0.000000    0.000000    2.200000
      2          1           0        0.000000    0.000000    1.460000
      3          1           0        0.000000    0.000000   -1.460000
      4          1           0        0.000000    0.000000   -2.200000
 ---------------------------------------------------------------------

 SCF Done:  E(ROHF) =  -2.12984401256     A.U. after   10 cycles
 E2 =    -0.7194068161D-01 EUMP2 =    -0.22017846941757D+01
 CCSD(T)
 CCSD(T)= -0.22185600043D+01

 The electronic state is 2-SGG.
 Alpha  occ. eigenvalues --   -0.37622  -0.36361   0.12925
 Alpha virt. eigenvalues --    0.35952   0.47425   0.58904   0.88177   0.89702
 Alpha virt. eigenvalues --    0.91778   0.91778   0.92240   0.92240   1.29019
 Alpha virt. eigenvalues --    1.32854   1.32854   1.35722   1.35722   1.36126

 Mulliken charges and spin densities:
               1          2
     1  H   -0.240841   0.080269
     2  H   -0.259159   0.419731
     3  H   -0.259159   0.419731
     4  H   -0.240841   0.080269
 Sum of Mulliken charges =  -1.00000   1.00000

 Dipole moment (field-independent basis, Debye):
    X=             -0.0000    Y=              0.0000    Z=             -0.0000  Tot=              0.0000
 Quadrupole moment (field-independent basis, Debye-Ang):
   XX=             -7.6212   YY=             -7.6212   ZZ=            -24.3958
   XY=             -0.0000   XZ=              0.0000   YZ=             -0.0000

 4SDQ=-2.2170293\CCSD=-2.2179434\CCSD(T)=-2.21856\RMSD=4.976e-09\PG=D*H
 Normal termination of Gaussian 16 at Tue Feb 13 12:24:43 2024.
