 Gaussian 16, Revision A.03,
 Gaussian 16:  ES64L-G16RevA.03 25-Dec-2016

 --------------------
 #p ROCCSD(T)/cc-pVTZ
 --------------------

 --------
 H2_H2_36
 --------
 Symbolic Z-matrix:
 Charge = -1 Multiplicity = 2

                         Standard orientation:
 ---------------------------------------------------------------------
 Center     Atomic      Atomic             Coordinates (Angstroms)
 Number     Number       Type             X           Y           Z
 ---------------------------------------------------------------------
      1          1           0        0.000000    0.000000    1.480000
      2          1           0        0.000000    0.000000    0.740000
      3          1           0        0.000000    0.000000   -0.740000
      4          1           0        0.000000    0.000000   -1.480000
 ---------------------------------------------------------------------

 SCF Done:  E(ROHF) =  -2.09487342836     A.U. after   12 cycles
 E2 =    -0.8091640026D-01 EUMP2 =    -0.21757898286209D+01
 CCSD(T)
 CCSD(T)= -0.21931104950D+01

 The electronic state is 2-SGG.
 Alpha  occ. eigenvalues --   -0.41136  -0.30278   0.15340
 Alpha virt. eigenvalues --    0.37640   0.53076   0.72640   0.76050   0.87148
 Alpha virt. eigenvalues --    0.87148   0.95054   0.98719   0.98719   1.25652
 Alpha virt. eigenvalues --    1.25652   1.36440   1.62689   1.62689   1.75006

 Mulliken charges and spin densities:
               1          2
     1  H   -0.406391   0.343229
     2  H   -0.093609   0.156771
     3  H   -0.093609   0.156771
     4  H   -0.406391   0.343229
 Sum of Mulliken charges =  -1.00000   1.00000

 Dipole moment (field-independent basis, Debye):
    X=             -0.0000    Y=              0.0000    Z=             -0.0000  Tot=              0.0000
 Quadrupole moment (field-independent basis, Debye-Ang):
   XX=             -7.3995   YY=             -7.3995   ZZ=            -24.5205
   XY=              0.0000   XZ=              0.0000   YZ=             -0.0000

 P4SDQ=-2.1913947\CCSD=-2.1918028\CCSD(T)=-2.1931105\RMSD=8.592e-10\PG=
 Normal termination of Gaussian 16 at Tue Feb 13 12:17:52 2024.
