 Gaussian 16, Revision A.03,
 Gaussian 16:  ES64L-G16RevA.03 25-Dec-2016

 --------------------
 #p ROCCSD(T)/cc-pVTZ
 --------------------

 --------
 H2_H2_68
 --------
 Symbolic Z-matrix:
 Charge = -1 Multiplicity = 2

                         Standard orientation:
 ---------------------------------------------------------------------
 Center     Atomic      Atomic             Coordinates (Angstroms)
 Number     Number       Type             X           Y           Z
 ---------------------------------------------------------------------
      1          1           0       -0.271312   -1.224761    0.000000
      2          1           0        0.447426   -1.048647    0.000000
      3          1           0        0.000000    0.777335    0.000000
      4          1           0       -0.176115    1.496073    0.000000
 ---------------------------------------------------------------------

 SCF Done:  E(ROHF) =  -2.10689767186     A.U. after   15 cycles
 E2 =    -0.7393655782D-01 EUMP2 =    -0.21808342296802D+01
 CCSD(T)
 CCSD(T)= -0.21977379697D+01

 The electronic state is 2-A'.
 Alpha  occ. eigenvalues --   -0.40572  -0.31159   0.14623
 Alpha virt. eigenvalues --    0.36664   0.51946   0.55421   0.82500   0.87275
 Alpha virt. eigenvalues --    0.87485   0.91418   0.97612   1.05880   1.23720
 Alpha virt. eigenvalues --    1.33324   1.37360   1.40642   1.51812   1.56910

 Mulliken charges and spin densities:
               1          2
     1  H   -0.479058   0.498045
     2  H   -0.451320   0.444129
     3  H    0.145399   0.028100
     4  H   -0.215021   0.029726
 Sum of Mulliken charges =  -1.00000   1.00000

 Dipole moment (field-independent basis, Debye):
    X=             -0.1463    Y=              4.2029    Z=              0.0000  Tot=              4.2055
 Quadrupole moment (field-independent basis, Debye-Ang):
   XX=            -13.0595   YY=            -15.3200   ZZ=             -7.6175
   XY=             -1.0222   XZ=              0.0000   YZ=              0.0000

 4SDQ=-2.1961184\CCSD=-2.1969948\CCSD(T)=-2.197738\RMSD=1.858e-09\PG=CS
 Normal termination of Gaussian 16 at Tue Feb 13 12:19:47 2024.
