 Gaussian 16, Revision A.03,
 Gaussian 16:  ES64L-G16RevA.03 25-Dec-2016

 --------------------
 #p ROCCSD(T)/cc-pVTZ
 --------------------

 --------
 H2_H2_65
 --------
 Symbolic Z-matrix:
 Charge = -1 Multiplicity = 2

                         Standard orientation:
 ---------------------------------------------------------------------
 Center     Atomic      Atomic             Coordinates (Angstroms)
 Number     Number       Type             X           Y           Z
 ---------------------------------------------------------------------
      1          1           0       -0.268496   -1.207046    0.000000
      2          1           0        0.449121   -1.026421    0.000000
      3          1           0       -0.000000    0.757925    0.000000
      4          1           0       -0.180625    1.475542    0.000000
 ---------------------------------------------------------------------

 SCF Done:  E(ROHF) =  -2.10651801558     A.U. after   15 cycles
 E2 =    -0.7415649308D-01 EUMP2 =    -0.21806745086553D+01
 CCSD(T)
 CCSD(T)= -0.21975808889D+01

 The electronic state is 2-A'.
 Alpha  occ. eigenvalues --   -0.40606  -0.30956   0.14574
 Alpha virt. eigenvalues --    0.36835   0.52106   0.55483   0.82310   0.87169
 Alpha virt. eigenvalues --    0.87700   0.91427   0.97821   1.06863   1.23980
 Alpha virt. eigenvalues --    1.33545   1.37533   1.41009   1.53042   1.58033

 Mulliken charges and spin densities:
               1          2
     1  H   -0.483260   0.504170
     2  H   -0.445622   0.437523
     3  H    0.148379   0.027339
     4  H   -0.219497   0.030968
 Sum of Mulliken charges =  -1.00000   1.00000

 Dipole moment (field-independent basis, Debye):
    X=             -0.1239    Y=              4.0990    Z=              0.0000  Tot=              4.1009
 Quadrupole moment (field-independent basis, Debye-Ang):
   XX=            -13.0341   YY=            -15.1532   ZZ=             -7.6107
   XY=             -1.0383   XZ=              0.0000   YZ=              0.0000

 Q=-2.1959563\CCSD=-2.1968186\CCSD(T)=-2.1975809\RMSD=1.395e-09\PG=CS [
 Normal termination of Gaussian 16 at Tue Feb 13 12:19:36 2024.
