 Gaussian 16, Revision A.03,
 Gaussian 16:  ES64L-G16RevA.03 25-Dec-2016

 --------------------
 #p ROCCSD(T)/cc-pVTZ
 --------------------

 -------
 H2_H2_4
 -------
 Symbolic Z-matrix:
 Charge = -1 Multiplicity = 2

                         Standard orientation:
 ---------------------------------------------------------------------
 Center     Atomic      Atomic             Coordinates (Angstroms)
 Number     Number       Type             X           Y           Z
 ---------------------------------------------------------------------
      1          1           0       -0.081111   -1.162677    0.000000
      2          1           0        0.281186   -0.517432    0.000000
      3          1           0        0.000000    0.483835    0.000000
      4          1           0       -0.200074    1.196274    0.000000
 ---------------------------------------------------------------------

 SCF Done:  E(ROHF) =  -2.06863850040     A.U. after   15 cycles
 E2 =    -0.8303780664D-01 EUMP2 =    -0.21516763070439D+01
 CCSD(T)
 CCSD(T)= -0.21689797037D+01

 The electronic state is 2-A'.
 Alpha  occ. eigenvalues --   -0.47847  -0.24491   0.14191
 Alpha virt. eigenvalues --    0.39754   0.53012   0.59534   0.75307   0.84443
 Alpha virt. eigenvalues --    0.92825   1.01848   1.03276   1.14626   1.31500
 Alpha virt. eigenvalues --    1.33798   1.55409   1.66445   1.69442   1.77993

 Mulliken charges and spin densities:
               1          2
     1  H   -0.707291   0.791065
     2  H    0.045088  -0.098998
     3  H    0.077964   0.066776
     4  H   -0.415761   0.241157
 Sum of Mulliken charges =  -1.00000   1.00000

 Dipole moment (field-independent basis, Debye):
    X=              1.1920    Y=              1.9948    Z=              0.0000  Tot=              2.3238
 Quadrupole moment (field-independent basis, Debye-Ang):
   XX=             -9.0705   YY=            -20.2381   ZZ=             -7.3720
   XY=             -0.7270   XZ=              0.0000   YZ=              0.0000

 2-0=-2.1516763\MP4SDQ=-2.1668301\CCSD=-2.1674375\CCSD(T)=-2.1689797\RM
 Normal termination of Gaussian 16 at Tue Feb 13 12:15:56 2024.
