 Gaussian 16, Revision A.03,
 Gaussian 16:  ES64L-G16RevA.03 25-Dec-2016

 --------------------
 #p ROCCSD(T)/cc-pVTZ
 --------------------

 --------
 H2_H2_97
 --------
 Symbolic Z-matrix:
 Charge = -1 Multiplicity = 2

                         Standard orientation:
 ---------------------------------------------------------------------
 Center     Atomic      Atomic             Coordinates (Angstroms)
 Number     Number       Type             X           Y           Z
 ---------------------------------------------------------------------
      1          1           0       -0.184201   -1.752055   -0.000000
      2          1           0        0.272714   -1.169965   -0.000000
      3          1           0        0.000000    1.093666    0.000000
      4          1           0       -0.088512    1.828353    0.000000
 ---------------------------------------------------------------------

 SCF Done:  E(ROHF) =  -2.11341881469     A.U. after   14 cycles
 E2 =    -0.7477517989D-01 EUMP2 =    -0.21881939945845D+01
 CCSD(T)
 CCSD(T)= -0.22053089959D+01

 The electronic state is 2-A'.
 Alpha  occ. eigenvalues --   -0.37931  -0.34089   0.14502
 Alpha virt. eigenvalues --    0.35909   0.49373   0.59908   0.84331   0.87381
 Alpha virt. eigenvalues --    0.91109   0.92470   0.94800   0.99096   1.21413
 Alpha virt. eigenvalues --    1.29273   1.29337   1.39750   1.41627   1.53432

 Mulliken charges and spin densities:
               1          2
     1  H   -0.299123   0.197675
     2  H   -0.308582   0.411048
     3  H   -0.122613   0.280326
     4  H   -0.269682   0.110951
 Sum of Mulliken charges =  -1.00000   1.00000

 Dipole moment (field-independent basis, Debye):
    X=             -0.2121    Y=              1.3281    Z=              0.0000  Tot=              1.3449
 Quadrupole moment (field-independent basis, Debye-Ang):
   XX=             -8.6941   YY=            -22.2883   ZZ=             -7.5765
   XY=             -1.0235   XZ=              0.0000   YZ=             -0.0000

 MP2-0=-2.188194\MP4SDQ=-2.2037186\CCSD=-2.2044949\CCSD(T)=-2.205309\RM
 Normal termination of Gaussian 16 at Tue Feb 13 12:21:37 2024.
