 Gaussian 16, Revision A.03,
 Gaussian 16:  ES64L-G16RevA.03 25-Dec-2016

 --------------------
 #p ROCCSD(T)/cc-pVTZ
 --------------------

 ---------
 H2_H2_244
 ---------
 Symbolic Z-matrix:
 Charge = -1 Multiplicity = 2

                         Standard orientation:
 ---------------------------------------------------------------------
 Center     Atomic      Atomic             Coordinates (Angstroms)
 Number     Number       Type             X           Y           Z
 ---------------------------------------------------------------------
      1          1           0       -0.221189   -2.716854    0.000000
      2          1           0        0.267955   -2.161572    0.000000
      3          1           0       -0.000000    2.069953    0.000000
      4          1           0       -0.046766    2.808473    0.000000
 ---------------------------------------------------------------------

 SCF Done:  E(ROHF) =  -2.12201027951     A.U. after   13 cycles
 E2 =    -0.7119192367D-01 EUMP2 =    -0.21932022031835D+01
 CCSD(T)
 CCSD(T)= -0.22097960827D+01

 The electronic state is 2-A'.
 Alpha  occ. eigenvalues --   -0.39792  -0.39517   0.14108
 Alpha virt. eigenvalues --    0.30364   0.45791   0.50069   0.81368   0.86402
 Alpha virt. eigenvalues --    0.89269   0.89272   0.89306   0.89709   1.29013
 Alpha virt. eigenvalues --    1.29348   1.31427   1.31512   1.31554   1.31738

 Mulliken charges and spin densities:
               1          2
     1  H   -0.203927   0.125033
     2  H   -0.292070   0.370957
     3  H   -0.276001   0.358206
     4  H   -0.228002   0.145804
 Sum of Mulliken charges =  -1.00000   1.00000

 Dipole moment (field-independent basis, Debye):
    X=             -0.3331    Y=             -0.1010    Z=              0.0000  Tot=              0.3480
 Quadrupole moment (field-independent basis, Debye-Ang):
   XX=             -8.8619   YY=            -36.0225   ZZ=             -7.7422
   XY=             -0.3514   XZ=              0.0000   YZ=              0.0000

 \PMP2-0=-2.1932022\MP4SDQ=-2.208329\CCSD=-2.2092243\CCSD(T)=-2.2097961
 Normal termination of Gaussian 16 at Tue Feb 13 12:31:06 2024.
