 Gaussian 16, Revision A.03,
 Gaussian 16:  ES64L-G16RevA.03 25-Dec-2016

 --------------------
 #p ROCCSD(T)/cc-pVTZ
 --------------------

 --------
 H2_H2_91
 --------
 Symbolic Z-matrix:
 Charge = -1 Multiplicity = 2

                         Standard orientation:
 ---------------------------------------------------------------------
 Center     Atomic      Atomic             Coordinates (Angstroms)
 Number     Number       Type             X           Y           Z
 ---------------------------------------------------------------------
      1          1           0       -0.181211   -1.713183    0.000000
      2          1           0        0.273057   -1.129024    0.000000
      3          1           0       -0.000000    1.053964    0.000000
      4          1           0       -0.091846    1.788242    0.000000
 ---------------------------------------------------------------------

 SCF Done:  E(ROHF) =  -2.11202755392     A.U. after   13 cycles
 E2 =    -0.7513292828D-01 EUMP2 =    -0.21871604821955D+01
 CCSD(T)
 CCSD(T)= -0.22043176000D+01

 The electronic state is 2-A'.
 Alpha  occ. eigenvalues --   -0.38089  -0.33787   0.14610
 Alpha virt. eigenvalues --    0.36028   0.49686   0.60058   0.84678   0.86268
 Alpha virt. eigenvalues --    0.90831   0.92459   0.95136   0.99564   1.21926
 Alpha virt. eigenvalues --    1.28689   1.28938   1.40725   1.42807   1.55687

 Mulliken charges and spin densities:
               1          2
     1  H   -0.316079   0.223417
     2  H   -0.308022   0.402443
     3  H   -0.104292   0.261054
     4  H   -0.271606   0.113086
 Sum of Mulliken charges =  -1.00000   1.00000

 Dipole moment (field-independent basis, Debye):
    X=             -0.1714    Y=              1.5071    Z=             -0.0000  Tot=              1.5168
 Quadrupole moment (field-independent basis, Debye-Ang):
   XX=             -8.7420   YY=            -22.2092   ZZ=             -7.5713
   XY=             -1.0998   XZ=              0.0000   YZ=             -0.0000

 PMP2-0=-2.1871605\MP4SDQ=-2.2027048\CCSD=-2.2034748\CCSD(T)=-2.2043176
 Normal termination of Gaussian 16 at Tue Feb 13 12:21:14 2024.
