 Gaussian 16, Revision A.03,
 Gaussian 16:  ES64L-G16RevA.03 25-Dec-2016

 --------------------
 #p ROCCSD(T)/cc-pVTZ
 --------------------

 ---------
 H2_H2_187
 ---------
 Symbolic Z-matrix:
 Charge = -1 Multiplicity = 2

                         Standard orientation:
 ---------------------------------------------------------------------
 Center     Atomic      Atomic             Coordinates (Angstroms)
 Number     Number       Type             X           Y           Z
 ---------------------------------------------------------------------
      1          1           0       -0.211980   -2.340860    0.000000
      2          1           0        0.269229   -1.778688    0.000000
      3          1           0        0.000000    1.690883   -0.000000
      4          1           0       -0.057250    2.428665   -0.000000
 ---------------------------------------------------------------------

 SCF Done:  E(ROHF) =  -2.12710963219     A.U. after   13 cycles
 E2 =    -0.7118622080D-01 EUMP2 =    -0.21982958529933D+01
 CCSD(T)
 CCSD(T)= -0.22149774853D+01

 The electronic state is 2-A'.
 Alpha  occ. eigenvalues --   -0.38544  -0.37895   0.13436
 Alpha virt. eigenvalues --    0.33303   0.46324   0.53967   0.84487   0.86237
 Alpha virt. eigenvalues --    0.90620   0.90652   0.90831   0.93205   1.29963
 Alpha virt. eigenvalues --    1.31715   1.32715   1.32985   1.33237   1.34090

 Mulliken charges and spin densities:
               1          2
     1  H   -0.192501   0.076370
     2  H   -0.306469   0.422429
     3  H   -0.276637   0.400284
     4  H   -0.224394   0.100917
 Sum of Mulliken charges =  -1.00000   1.00000

 Dipole moment (field-independent basis, Debye):
    X=             -0.4220    Y=             -0.0479    Z=              0.0000  Tot=              0.4247
 Quadrupole moment (field-independent basis, Debye-Ang):
   XX=             -8.6185   YY=            -27.2114   ZZ=             -7.6878
   XY=             -0.3330   XZ=              0.0000   YZ=              0.0000

 \PMP2-0=-2.1982959\MP4SDQ=-2.2134761\CCSD=-2.2144085\CCSD(T)=-2.214977
 Normal termination of Gaussian 16 at Tue Feb 13 12:27:26 2024.
