 Gaussian 16, Revision A.03,
 Gaussian 16:  ES64L-G16RevA.03 25-Dec-2016

 --------------------
 #p ROCCSD(T)/cc-pVTZ
 --------------------

 ---------
 H2_H2_231
 ---------
 Symbolic Z-matrix:
 Charge = -1 Multiplicity = 2

                         Standard orientation:
 ---------------------------------------------------------------------
 Center     Atomic      Atomic             Coordinates (Angstroms)
 Number     Number       Type             X           Y           Z
 ---------------------------------------------------------------------
      1          1           0        0.000000    0.000000    2.780000
      2          1           0        0.000000    0.000000    2.040000
      3          1           0        0.000000    0.000000   -2.040000
      4          1           0        0.000000    0.000000   -2.780000
 ---------------------------------------------------------------------

 SCF Done:  E(ROHF) =  -2.12958921162     A.U. after   10 cycles
 E2 =    -0.7079133104D-01 EUMP2 =    -0.22003805426558D+01
 CCSD(T)
 CCSD(T)= -0.22169304291D+01

 The electronic state is 2-SGG.
 Alpha  occ. eigenvalues --   -0.39643  -0.39298   0.13295
 Alpha virt. eigenvalues --    0.31864   0.45833   0.50795   0.81413   0.88645
 Alpha virt. eigenvalues --    0.89447   0.89447   0.89469   0.89469   1.29038
 Alpha virt. eigenvalues --    1.30044   1.31701   1.31701   1.31850   1.31850

 Mulliken charges and spin densities:
               1          2
     1  H   -0.213359   0.115669
     2  H   -0.286641   0.384331
     3  H   -0.286641   0.384331
     4  H   -0.213359   0.115669
 Sum of Mulliken charges =  -1.00000   1.00000

 Dipole moment (field-independent basis, Debye):
    X=             -0.0000    Y=             -0.0000    Z=              0.0000  Tot=              0.0000
 Quadrupole moment (field-independent basis, Debye-Ang):
   XX=             -7.7524   YY=             -7.7524   ZZ=            -35.0156
   XY=              0.0000   XZ=              0.0000   YZ=             -0.0000

 MP4SDQ=-2.2154633\CCSD=-2.2163868\CCSD(T)=-2.2169304\RMSD=3.996e-09\PG
 Normal termination of Gaussian 16 at Tue Feb 13 12:30:17 2024.
