 Gaussian 16, Revision A.03,
 Gaussian 16:  ES64L-G16RevA.03 25-Dec-2016

 --------------------
 #p ROCCSD(T)/cc-pVTZ
 --------------------

 --------
 H2_H2_13
 --------
 Symbolic Z-matrix:
 Charge = -1 Multiplicity = 2

                         Standard orientation:
 ---------------------------------------------------------------------
 Center     Atomic      Atomic             Coordinates (Angstroms)
 Number     Number       Type             X           Y           Z
 ---------------------------------------------------------------------
      1          1           0       -0.101399   -1.217952    0.000000
      2          1           0        0.280054   -0.583844    0.000000
      3          1           0        0.000000    0.541843   -0.000000
      4          1           0       -0.178655    1.259953   -0.000000
 ---------------------------------------------------------------------

 SCF Done:  E(ROHF) =  -2.07998229668     A.U. after   15 cycles
 E2 =    -0.8155668044D-01 EUMP2 =    -0.21615389771233D+01
 CCSD(T)
 CCSD(T)= -0.21789526058D+01

 The electronic state is 2-A'.
 Alpha  occ. eigenvalues --   -0.45500  -0.26265   0.14536
 Alpha virt. eigenvalues --    0.39121   0.53540   0.59383   0.75722   0.84987
 Alpha virt. eigenvalues --    0.92308   0.99558   1.01997   1.11820   1.29756
 Alpha virt. eigenvalues --    1.31725   1.52209   1.62695   1.66424   1.79914

 Mulliken charges and spin densities:
               1          2
     1  H   -0.662649   0.733321
     2  H   -0.051294   0.004814
     3  H    0.082699   0.056883
     4  H   -0.368757   0.204983
 Sum of Mulliken charges =  -1.00000   1.00000

 Dipole moment (field-independent basis, Debye):
    X=              0.9849    Y=              2.2694    Z=             -0.0000  Tot=              2.4739
 Quadrupole moment (field-independent basis, Debye-Ang):
   XX=             -9.1171   YY=            -20.5109   ZZ=             -7.3912
   XY=             -1.0509   XZ=              0.0000   YZ=              0.0000

 MP2-0=-2.161539\MP4SDQ=-2.1768207\CCSD=-2.17752\CCSD(T)=-2.1789526\RMS
 Normal termination of Gaussian 16 at Tue Feb 13 12:16:27 2024.
