 Gaussian 16, Revision A.03,
 Gaussian 16:  ES64L-G16RevA.03 25-Dec-2016

 --------------------
 #p ROCCSD(T)/cc-pVTZ
 --------------------

 ---------
 H2_H2_260
 ---------
 Symbolic Z-matrix:
 Charge = -1 Multiplicity = 2

                         Standard orientation:
 ---------------------------------------------------------------------
 Center     Atomic      Atomic             Coordinates (Angstroms)
 Number     Number       Type             X           Y           Z
 ---------------------------------------------------------------------
      1          1           0       -0.334982   -2.445371    0.000000
      2          1           0        0.401979   -2.378374    0.000000
      3          1           0        0.000000    2.043392    0.000000
      4          1           0       -0.066996    2.780353    0.000000
 ---------------------------------------------------------------------

 SCF Done:  E(ROHF) =  -2.10548214234     A.U. after   20 cycles
 E2 =    -0.7104124567D-01 EUMP2 =    -0.21765233880105D+01
 CCSD(T)
 CCSD(T)= -0.21936551616D+01

 The electronic state is 2-A'.
 Alpha  occ. eigenvalues --   -0.46212  -0.32909   0.15665
 Alpha virt. eigenvalues --    0.28194   0.42945   0.52923   0.77155   0.82494
 Alpha virt. eigenvalues --    0.82579   0.89265   0.96434   0.96435   1.22923
 Alpha virt. eigenvalues --    1.25005   1.25346   1.35306   1.37872   1.37875

 Mulliken charges and spin densities:
               1          2
     1  H   -0.009906  -0.009484
     2  H   -0.087300   0.106534
     3  H   -0.460805   0.484893
     4  H   -0.441990   0.418057
 Sum of Mulliken charges =  -1.00000   1.00000

 Dipole moment (field-independent basis, Debye):
    X=             -0.1697    Y=             -9.1768    Z=              0.0000  Tot=              9.1784
 Quadrupole moment (field-independent basis, Debye-Ang):
   XX=             -7.6585   YY=            -40.4772   ZZ=             -7.6998
   XY=              1.3683   XZ=              0.0000   YZ=              0.0000

 P4SDQ=-2.1917031\CCSD=-2.1930745\CCSD(T)=-2.1936552\RMSD=3.039e-09\PG=
 Normal termination of Gaussian 16 at Tue Feb 13 12:32:05 2024.
