 Gaussian 16, Revision A.03,
 Gaussian 16:  ES64L-G16RevA.03 25-Dec-2016

 --------------------
 #p ROCCSD(T)/cc-pVTZ
 --------------------

 ---------
 H2_H2_289
 ---------
 Symbolic Z-matrix:
 Charge = -1 Multiplicity = 2

                         Standard orientation:
 ---------------------------------------------------------------------
 Center     Atomic      Atomic             Coordinates (Angstroms)
 Number     Number       Type             X           Y           Z
 ---------------------------------------------------------------------
      1          1           0       -0.226359   -3.014539    0.000000
      2          1           0        0.267214   -2.463190    0.000000
      3          1           0        0.000000    2.369429    0.000000
      4          1           0       -0.040855    3.108300    0.000000
 ---------------------------------------------------------------------

 SCF Done:  E(ROHF) =  -2.11371312078     A.U. after   12 cycles
 E2 =    -0.7169702815D-01 EUMP2 =    -0.21854101489335D+01
 CCSD(T)
 CCSD(T)= -0.22019867854D+01

 The electronic state is 2-A'.
 Alpha  occ. eigenvalues --   -0.40516  -0.40263   0.14993
 Alpha virt. eigenvalues --    0.27980   0.45837   0.48116   0.80755   0.84470
 Alpha virt. eigenvalues --    0.88478   0.88479   0.88674   0.88761   1.28219
 Alpha virt. eigenvalues --    1.28447   1.30624   1.30633   1.30777   1.30861

 Mulliken charges and spin densities:
               1          2
     1  H   -0.231147   0.178931
     2  H   -0.270730   0.322949
     3  H   -0.255402   0.311459
     4  H   -0.242720   0.186661
 Sum of Mulliken charges =  -1.00000   1.00000

 Dipole moment (field-independent basis, Debye):
    X=             -0.1976    Y=              0.0425    Z=              0.0000  Tot=              0.2022
 Quadrupole moment (field-independent basis, Debye-Ang):
   XX=             -8.9695   YY=            -45.3235   ZZ=             -7.7272
   XY=             -0.5804   XZ=              0.0000   YZ=              0.0000

 PMP2-0=-2.1854101\MP4SDQ=-2.2005347\CCSD=-2.201379\CCSD(T)=-2.2019868\
 Normal termination of Gaussian 16 at Tue Feb 13 12:33:53 2024.
