 Gaussian 16, Revision A.03,
 Gaussian 16:  ES64L-G16RevA.03 25-Dec-2016

 --------------------
 #p ROCCSD(T)/cc-pVTZ
 --------------------

 ---------
 H2_H2_261
 ---------
 Symbolic Z-matrix:
 Charge = -1 Multiplicity = 2

                         Standard orientation:
 ---------------------------------------------------------------------
 Center     Atomic      Atomic             Coordinates (Angstroms)
 Number     Number       Type             X           Y           Z
 ---------------------------------------------------------------------
      1          1           0        0.000000    0.000000    2.980000
      2          1           0        0.000000    0.000000    2.240000
      3          1           0        0.000000    0.000000   -2.240000
      4          1           0        0.000000    0.000000   -2.980000
 ---------------------------------------------------------------------

 SCF Done:  E(ROHF) =  -2.12307263554     A.U. after   10 cycles
 E2 =    -0.7114265811D-01 EUMP2 =    -0.21942152936490D+01
 CCSD(T)
 CCSD(T)= -0.22107631083D+01

 The electronic state is 2-SGG.
 Alpha  occ. eigenvalues --   -0.40179  -0.39933   0.14015
 Alpha virt. eigenvalues --    0.29994   0.45764   0.49142   0.80565   0.86749
 Alpha virt. eigenvalues --    0.88881   0.88881   0.88893   0.88893   1.28724
 Alpha virt. eigenvalues --    1.28942   1.31081   1.31081   1.31177   1.31177

 Mulliken charges and spin densities:
               1          2
     1  H   -0.225252   0.149197
     2  H   -0.274748   0.350803
     3  H   -0.274748   0.350803
     4  H   -0.225252   0.149197
 Sum of Mulliken charges =  -1.00000   1.00000

 Dipole moment (field-independent basis, Debye):
    X=             -0.0000    Y=              0.0000    Z=             -0.0000  Tot=              0.0000
 Quadrupole moment (field-independent basis, Debye-Ang):
   XX=             -7.7553   YY=             -7.7553   ZZ=            -41.1691
   XY=              0.0000   XZ=              0.0000   YZ=             -0.0000

 MP4SDQ=-2.2093071\CCSD=-2.2101947\CCSD(T)=-2.2107631\RMSD=2.198e-09\PG
 Normal termination of Gaussian 16 at Tue Feb 13 12:32:10 2024.
