 Gaussian 16, Revision A.03,
 Gaussian 16:  ES64L-G16RevA.03 25-Dec-2016

 --------------------
 #p ROCCSD(T)/cc-pVTZ
 --------------------

 ---------
 H2_H2_100
 ---------
 Symbolic Z-matrix:
 Charge = -1 Multiplicity = 2

                         Standard orientation:
 ---------------------------------------------------------------------
 Center     Atomic      Atomic             Coordinates (Angstroms)
 Number     Number       Type             X           Y           Z
 ---------------------------------------------------------------------
      1          1           0       -0.185615   -1.771517   -0.000000
      2          1           0        0.272549   -1.190410   -0.000000
      3          1           0       -0.000000    1.113526    0.000000
      4          1           0       -0.086934    1.848401    0.000000
 ---------------------------------------------------------------------

 SCF Done:  E(ROHF) =  -2.11410555594     A.U. after   14 cycles
 E2 =    -0.7459660262D-01 EUMP2 =    -0.21887021585590D+01
 CCSD(T)
 CCSD(T)= -0.22057969962D+01

 The electronic state is 2-A'.
 Alpha  occ. eigenvalues --   -0.37864  -0.34236   0.14446
 Alpha virt. eigenvalues --    0.35851   0.49223   0.59816   0.84165   0.87901
 Alpha virt. eigenvalues --    0.91226   0.92480   0.94636   0.98904   1.21272
 Alpha virt. eigenvalues --    1.29488   1.29661   1.39292   1.41076   1.52346

 Mulliken charges and spin densities:
               1          2
     1  H   -0.291330   0.185972
     2  H   -0.308601   0.414676
     3  H   -0.131460   0.289518
     4  H   -0.268609   0.109835
 Sum of Mulliken charges =  -1.00000   1.00000

 Dipole moment (field-independent basis, Debye):
    X=             -0.2302    Y=              1.2413    Z=              0.0000  Tot=              1.2625
 Quadrupole moment (field-independent basis, Debye-Ang):
   XX=             -8.6716   YY=            -22.3317   ZZ=             -7.5786
   XY=             -0.9861   XZ=              0.0000   YZ=             -0.0000

 \PMP2-0=-2.1887022\MP4SDQ=-2.2042156\CCSD=-2.2049968\CCSD(T)=-2.205797
 Normal termination of Gaussian 16 at Tue Feb 13 12:21:49 2024.
