 Gaussian 16, Revision A.03,
 Gaussian 16:  ES64L-G16RevA.03 25-Dec-2016

 --------------------
 #p ROCCSD(T)/cc-pVTZ
 --------------------

 ---------
 H2_H2_211
 ---------
 Symbolic Z-matrix:
 Charge = -1 Multiplicity = 2

                         Standard orientation:
 ---------------------------------------------------------------------
 Center     Atomic      Atomic             Coordinates (Angstroms)
 Number     Number       Type             X           Y           Z
 ---------------------------------------------------------------------
      1          1           0       -0.216323   -2.498989   -0.000000
      2          1           0        0.268636   -1.940048   -0.000000
      3          1           0        0.000000    1.850445    0.000000
      4          1           0       -0.052313    2.588593    0.000000
 ---------------------------------------------------------------------

 SCF Done:  E(ROHF) =  -2.12630275990     A.U. after   13 cycles
 E2 =    -0.7103324247D-01 EUMP2 =    -0.21973360023710D+01
 CCSD(T)
 CCSD(T)= -0.22139651592D+01

 The electronic state is 2-A'.
 Alpha  occ. eigenvalues --   -0.39105  -0.38671   0.13597
 Alpha virt. eigenvalues --    0.32155   0.45977   0.52153   0.82851   0.86805
 Alpha virt. eigenvalues --    0.90010   0.90021   0.90086   0.91417   1.29397
 Alpha virt. eigenvalues --    1.30686   1.32175   1.32324   1.32414   1.32909

 Mulliken charges and spin densities:
               1          2
     1  H   -0.192086   0.090795
     2  H   -0.303523   0.404753
     3  H   -0.282477   0.388428
     4  H   -0.221914   0.116024
 Sum of Mulliken charges =  -1.00000   1.00000

 Dipole moment (field-independent basis, Debye):
    X=             -0.4032    Y=             -0.1076    Z=              0.0000  Tot=              0.4173
 Quadrupole moment (field-independent basis, Debye-Ang):
   XX=             -8.7270   YY=            -30.3717   ZZ=             -7.7216
   XY=             -0.2958   XZ=              0.0000   YZ=             -0.0000

 MP2-0=-2.197336\MP4SDQ=-2.2124803\CCSD=-2.2134055\CCSD(T)=-2.2139652\R
 Normal termination of Gaussian 16 at Tue Feb 13 12:28:58 2024.
