 Gaussian 16, Revision A.03,
 Gaussian 16:  ES64L-G16RevA.03 25-Dec-2016

 --------------------
 #p ROCCSD(T)/cc-pVTZ
 --------------------

 ---------
 H2_H2_288
 ---------
 Symbolic Z-matrix:
 Charge = -1 Multiplicity = 2

                         Standard orientation:
 ---------------------------------------------------------------------
 Center     Atomic      Atomic             Coordinates (Angstroms)
 Number     Number       Type             X           Y           Z
 ---------------------------------------------------------------------
      1          1           0        0.000000    0.000000    3.160000
      2          1           0        0.000000    0.000000    2.420000
      3          1           0        0.000000    0.000000   -2.420000
      4          1           0        0.000000    0.000000   -3.160000
 ---------------------------------------------------------------------

 SCF Done:  E(ROHF) =  -2.11674011723     A.U. after   10 cycles
 E2 =    -0.7152869552D-01 EUMP2 =    -0.21882688127438D+01
 CCSD(T)
 CCSD(T)= -0.22048203661D+01

 The electronic state is 2-SGG.
 Alpha  occ. eigenvalues --   -0.40544  -0.40355   0.14682
 Alpha virt. eigenvalues --    0.28421   0.45795   0.48080   0.80429   0.85088
 Alpha virt. eigenvalues --    0.88507   0.88507   0.88515   0.88515   1.28293
 Alpha virt. eigenvalues --    1.28394   1.30649   1.30649   1.30723   1.30723

 Mulliken charges and spin densities:
               1          2
     1  H   -0.238080   0.178209
     2  H   -0.261920   0.321791
     3  H   -0.261920   0.321791
     4  H   -0.238080   0.178209
 Sum of Mulliken charges =  -1.00000   1.00000

 Dipole moment (field-independent basis, Debye):
    X=             -0.0000    Y=             -0.0000    Z=             -0.0000  Tot=              0.0000
 Quadrupole moment (field-independent basis, Debye-Ang):
   XX=             -7.7401   YY=             -7.7401   ZZ=            -47.2791
   XY=              0.0000   XZ=              0.0000   YZ=             -0.0000

 4SDQ=-2.2033709\CCSD=-2.2042247\CCSD(T)=-2.2048204\RMSD=1.161e-09\PG=D
 Normal termination of Gaussian 16 at Tue Feb 13 12:33:50 2024.
