 Gaussian 16, Revision A.03,
 Gaussian 16:  ES64L-G16RevA.03 25-Dec-2016

 --------------------
 #p ROCCSD(T)/cc-pVTZ
 --------------------

 ---------
 H2_H2_140
 ---------
 Symbolic Z-matrix:
 Charge = -1 Multiplicity = 2

                         Standard orientation:
 ---------------------------------------------------------------------
 Center     Atomic      Atomic             Coordinates (Angstroms)
 Number     Number       Type             X           Y           Z
 ---------------------------------------------------------------------
      1          1           0       -0.311104   -1.669510    0.000000
      2          1           0        0.420731   -1.559883    0.000000
      3          1           0        0.000000    1.248779    0.000000
      4          1           0       -0.109627    1.980614    0.000000
 ---------------------------------------------------------------------

 SCF Done:  E(ROHF) =  -2.10742790969     A.U. after   21 cycles
 E2 =    -0.7167852883D-01 EUMP2 =    -0.21791064385257D+01
 CCSD(T)
 CCSD(T)= -0.21961530104D+01

 The electronic state is 2-A'.
 Alpha  occ. eigenvalues --   -0.42667  -0.32673   0.15310
 Alpha virt. eigenvalues --    0.32937   0.46402   0.56296   0.81307   0.85013
 Alpha virt. eigenvalues --    0.85974   0.89843   0.96652   1.03261   1.26340
 Alpha virt. eigenvalues --    1.28486   1.28933   1.37812   1.38086   1.39677

 Mulliken charges and spin densities:
               1          2
     1  H   -0.366009   0.349649
     2  H   -0.528761   0.546950
     3  H    0.042810   0.070901
     4  H   -0.148039   0.032500
 Sum of Mulliken charges =  -1.00000   1.00000

 Dipole moment (field-independent basis, Debye):
    X=             -0.5927    Y=              5.7908    Z=              0.0000  Tot=              5.8210
 Quadrupole moment (field-independent basis, Debye-Ang):
   XX=            -12.9883   YY=            -21.0007   ZZ=             -7.6608
   XY=             -0.3389   XZ=              0.0000   YZ=              0.0000

 P4SDQ=-2.1943857\CCSD=-2.1955677\CCSD(T)=-2.196153\RMSD=4.320e-09\PG=C
 Normal termination of Gaussian 16 at Tue Feb 13 12:24:26 2024.
