 Gaussian 16, Revision A.03,
 Gaussian 16:  ES64L-G16RevA.03 25-Dec-2016

 --------------------
 #p ROCCSD(T)/cc-pVTZ
 --------------------

 ---------
 H2_H2_210
 ---------
 Symbolic Z-matrix:
 Charge = -1 Multiplicity = 2

                         Standard orientation:
 ---------------------------------------------------------------------
 Center     Atomic      Atomic             Coordinates (Angstroms)
 Number     Number       Type             X           Y           Z
 ---------------------------------------------------------------------
      1          1           0        0.000000    0.000000    2.640000
      2          1           0        0.000000    0.000000    1.900000
      3          1           0        0.000000    0.000000   -1.900000
      4          1           0        0.000000    0.000000   -2.640000
 ---------------------------------------------------------------------

 SCF Done:  E(ROHF) =  -2.13269222435     A.U. after   10 cycles
 E2 =    -0.7069355455D-01 EUMP2 =    -0.22033857789004D+01
 CCSD(T)
 CCSD(T)= -0.22199511419D+01

 The electronic state is 2-SGG.
 Alpha  occ. eigenvalues --   -0.39181  -0.38730   0.12916
 Alpha virt. eigenvalues --    0.33115   0.46008   0.52301   0.82633   0.89629
 Alpha virt. eigenvalues --    0.89952   0.89952   0.89989   0.89989   1.29357
 Alpha virt. eigenvalues --    1.31022   1.32206   1.32206   1.32450   1.32450

 Mulliken charges and spin densities:
               1          2
     1  H   -0.209891   0.095756
     2  H   -0.290109   0.404244
     3  H   -0.290109   0.404244
     4  H   -0.209891   0.095756
 Sum of Mulliken charges =  -1.00000   1.00000

 Dipole moment (field-independent basis, Debye):
    X=             -0.0000    Y=             -0.0000    Z=              0.0000  Tot=              0.0000
 Quadrupole moment (field-independent basis, Debye-Ang):
   XX=             -7.7334   YY=             -7.7334   ZZ=            -31.3708
   XY=              0.0000   XZ=              0.0000   YZ=             -0.0000

 4SDQ=-2.2184728\CCSD=-2.2194147\CCSD(T)=-2.2199511\RMSD=4.971e-09\PG=D
 Normal termination of Gaussian 16 at Tue Feb 13 12:28:55 2024.
