 Gaussian 16, Revision A.03,
 Gaussian 16:  ES64L-G16RevA.03 25-Dec-2016

 --------------------
 #p ROCCSD(T)/cc-pVTZ
 --------------------

 --------
 H2_H2_27
 --------
 Symbolic Z-matrix:
 Charge = -1 Multiplicity = 2

                         Standard orientation:
 ---------------------------------------------------------------------
 Center     Atomic      Atomic             Coordinates (Angstroms)
 Number     Number       Type             X           Y           Z
 ---------------------------------------------------------------------
      1          1           0        0.000000    0.000000    1.420000
      2          1           0        0.000000    0.000000    0.680000
      3          1           0        0.000000    0.000000   -0.680000
      4          1           0        0.000000    0.000000   -1.420000
 ---------------------------------------------------------------------

 SCF Done:  E(ROHF) =  -2.08975799234     A.U. after   12 cycles
 E2 =    -0.8198313811D-01 EUMP2 =    -0.21717411304520D+01
 CCSD(T)
 CCSD(T)= -0.21890375795D+01

 The electronic state is 2-SGG.
 Alpha  occ. eigenvalues --   -0.42451  -0.29264   0.15374
 Alpha virt. eigenvalues --    0.37929   0.53816   0.73445   0.74872   0.86354
 Alpha virt. eigenvalues --    0.86354   0.97558   0.99537   0.99537   1.26745
 Alpha virt. eigenvalues --    1.26745   1.39996   1.67012   1.67012   1.79932

 Mulliken charges and spin densities:
               1          2
     1  H   -0.439692   0.392801
     2  H   -0.060308   0.107199
     3  H   -0.060308   0.107199
     4  H   -0.439692   0.392801
 Sum of Mulliken charges =  -1.00000   1.00000

 Dipole moment (field-independent basis, Debye):
    X=             -0.0000    Y=             -0.0000    Z=              0.0000  Tot=              0.0000
 Quadrupole moment (field-independent basis, Debye-Ang):
   XX=             -7.3815   YY=             -7.3815   ZZ=            -24.6039
   XY=              0.0000   XZ=              0.0000   YZ=             -0.0000

 Q=-2.1872762\CCSD=-2.1876358\CCSD(T)=-2.1890376\RMSD=6.332e-10\PG=D*H
 Normal termination of Gaussian 16 at Tue Feb 13 12:17:17 2024.
