 Gaussian 16, Revision A.03,
 Gaussian 16:  ES64L-G16RevA.03 25-Dec-2016

 --------------------
 #p ROCCSD(T)/cc-pVTZ
 --------------------

 ---------
 H2_H2_290
 ---------
 Symbolic Z-matrix:
 Charge = -1 Multiplicity = 2

                         Standard orientation:
 ---------------------------------------------------------------------
 Center     Atomic      Atomic             Coordinates (Angstroms)
 Number     Number       Type             X           Y           Z
 ---------------------------------------------------------------------
      1          1           0       -0.338217   -2.641904    0.000000
      2          1           0        0.399261   -2.580860    0.000000
      3          1           0       -0.000000    2.242644    0.000000
      4          1           0       -0.061044    2.980121    0.000000
 ---------------------------------------------------------------------

 SCF Done:  E(ROHF) =  -2.10313217256     A.U. after   25 cycles
 E2 =    -0.7228506109D-01 EUMP2 =    -0.21754172336496D+01
 CCSD(T)
 CCSD(T)= -0.21921079036D+01

 The electronic state is 2-A'.
 Alpha  occ. eigenvalues --   -0.40997  -0.39361   0.16060
 Alpha virt. eigenvalues --    0.26857   0.45747   0.48556   0.81856   0.82990
 Alpha virt. eigenvalues --    0.87964   0.87969   0.89651   0.89842   1.27689
 Alpha virt. eigenvalues --    1.29190   1.30098   1.30108   1.31566   1.31697

 Mulliken charges and spin densities:
               1          2
     1  H   -0.210335   0.189154
     2  H   -0.325895   0.347081
     3  H   -0.211238   0.256077
     4  H   -0.252532   0.207688
 Sum of Mulliken charges =  -1.00000   1.00000

 Dipole moment (field-independent basis, Debye):
    X=             -0.4266    Y=              0.8925    Z=              0.0000  Tot=              0.9892
 Quadrupole moment (field-independent basis, Debye-Ang):
   XX=            -10.7298   YY=            -42.8990   ZZ=             -7.6828
   XY=              1.2091   XZ=              0.0000   YZ=              0.0000

 4SDQ=-2.1906168\CCSD=-2.1914542\CCSD(T)=-2.1921079\RMSD=3.005e-09\PG=C
 Normal termination of Gaussian 16 at Tue Feb 13 12:33:57 2024.
