 Gaussian 16, Revision A.03,
 Gaussian 16:  ES64L-G16RevA.03 25-Dec-2016

 --------------------
 #p ROCCSD(T)/cc-pVTZ
 --------------------

 --------
 H2_H2_94
 --------
 Symbolic Z-matrix:
 Charge = -1 Multiplicity = 2

                         Standard orientation:
 ---------------------------------------------------------------------
 Center     Atomic      Atomic             Coordinates (Angstroms)
 Number     Number       Type             X           Y           Z
 ---------------------------------------------------------------------
      1          1           0       -0.182734   -1.732610    0.000000
      2          1           0        0.272883   -1.149503   -0.000000
      3          1           0        0.000000    1.073813    0.000000
      4          1           0       -0.090149    1.808301    0.000000
 ---------------------------------------------------------------------

 SCF Done:  E(ROHF) =  -2.11272612302     A.U. after   14 cycles
 E2 =    -0.7495405585D-01 EUMP2 =    -0.21876801788709D+01
 CCSD(T)
 CCSD(T)= -0.22048159156D+01

 The electronic state is 2-A'.
 Alpha  occ. eigenvalues --   -0.38006  -0.33940   0.14557
 Alpha virt. eigenvalues --    0.35968   0.49527   0.59989   0.84508   0.86826
 Alpha virt. eigenvalues --    0.90977   0.92463   0.94967   0.99317   1.21637
 Alpha virt. eigenvalues --    1.29012   1.29085   1.40228   1.42204   1.54545

 Mulliken charges and spin densities:
               1          2
     1  H   -0.307367   0.210152
     2  H   -0.308402   0.406982
     3  H   -0.113554   0.270832
     4  H   -0.270677   0.112034
 Sum of Mulliken charges =  -1.00000   1.00000

 Dipole moment (field-independent basis, Debye):
    X=             -0.1926    Y=              1.4168    Z=              0.0000  Tot=              1.4298
 Quadrupole moment (field-independent basis, Debye-Ang):
   XX=             -8.7176   YY=            -22.2477   ZZ=             -7.5741
   XY=             -1.0614   XZ=              0.0000   YZ=              0.0000

 MP2-0=-2.1876802\MP4SDQ=-2.2032151\CCSD=-2.2039877\CCSD(T)=-2.2048159\
 Normal termination of Gaussian 16 at Tue Feb 13 12:21:25 2024.
