 Gaussian 16, Revision A.03,
 Gaussian 16:  ES64L-G16RevA.03 25-Dec-2016

 --------------------
 #p ROCCSD(T)/cc-pVTZ
 --------------------

 --------
 H2_H2_37
 --------
 Symbolic Z-matrix:
 Charge = -1 Multiplicity = 2

                         Standard orientation:
 ---------------------------------------------------------------------
 Center     Atomic      Atomic             Coordinates (Angstroms)
 Number     Number       Type             X           Y           Z
 ---------------------------------------------------------------------
      1          1           0       -0.138651   -1.367643   -0.000000
      2          1           0        0.277301   -0.755610   -0.000000
      3          1           0       -0.000000    0.698179    0.000000
      4          1           0       -0.138651    1.425074    0.000000
 ---------------------------------------------------------------------

 SCF Done:  E(ROHF) =  -2.09640621152     A.U. after   15 cycles
 E2 =    -0.7869111427D-01 EUMP2 =    -0.21750973257873D+01
 CCSD(T)
 CCSD(T)= -0.21926169299D+01

 The electronic state is 2-A'.
 Alpha  occ. eigenvalues --   -0.41495  -0.29805   0.15004
 Alpha virt. eigenvalues --    0.37717   0.53212   0.59476   0.77518   0.86668
 Alpha virt. eigenvalues --    0.90685   0.94895   0.99124   1.06397   1.26027
 Alpha virt. eigenvalues --    1.27742   1.42304   1.53773   1.57956   1.77613

 Mulliken charges and spin densities:
               1          2
     1  H   -0.543830   0.568187
     2  H   -0.209466   0.201292
     3  H    0.055802   0.083700
     4  H   -0.302507   0.146821
 Sum of Mulliken charges =  -1.00000   1.00000

 Dipole moment (field-independent basis, Debye):
    X=              0.5132    Y=              2.6304    Z=              0.0000  Tot=              2.6800
 Quadrupole moment (field-independent basis, Debye-Ang):
   XX=             -9.1403   YY=            -21.2215   ZZ=             -7.4609
   XY=             -1.4791   XZ=             -0.0000   YZ=             -0.0000

 PMP2-0=-2.1750973\MP4SDQ=-2.1905971\CCSD=-2.191431\CCSD(T)=-2.1926169\
 Normal termination of Gaussian 16 at Tue Feb 13 12:17:55 2024.
