 Gaussian 16, Revision A.03,
 Gaussian 16:  ES64L-G16RevA.03 25-Dec-2016

 --------------------
 #p ROCCSD(T)/cc-pVTZ
 --------------------

 ---------
 H2_H2_148
 ---------
 Symbolic Z-matrix:
 Charge = -1 Multiplicity = 2

                         Standard orientation:
 ---------------------------------------------------------------------
 Center     Atomic      Atomic             Coordinates (Angstroms)
 Number     Number       Type             X           Y           Z
 ---------------------------------------------------------------------
      1          1           0       -0.202827   -2.084694    0.000000
      2          1           0        0.270436   -1.515817    0.000000
      3          1           0       -0.000000    1.431803   -0.000000
      4          1           0       -0.067609    2.168708   -0.000000
 ---------------------------------------------------------------------

 SCF Done:  E(ROHF) =  -2.12368128105     A.U. after   13 cycles
 E2 =    -0.7214400357D-01 EUMP2 =    -0.21958252846153D+01
 CCSD(T)
 CCSD(T)= -0.22126535206D+01

 The electronic state is 2-A'.
 Alpha  occ. eigenvalues --   -0.37772  -0.36386   0.13640
 Alpha virt. eigenvalues --    0.34733   0.47311   0.57057   0.84039   0.88199
 Alpha virt. eigenvalues --    0.91500   0.91722   0.92329   0.96577   1.29260
 Alpha virt. eigenvalues --    1.31556   1.32879   1.34409   1.35315   1.38824

 Mulliken charges and spin densities:
               1          2
     1  H   -0.213755   0.083866
     2  H   -0.305542   0.434928
     3  H   -0.238741   0.386861
     4  H   -0.241962   0.094345
 Sum of Mulliken charges =  -1.00000   1.00000

 Dipole moment (field-independent basis, Debye):
    X=             -0.3911    Y=              0.2535    Z=             -0.0000  Tot=              0.4661
 Quadrupole moment (field-independent basis, Debye-Ang):
   XX=             -8.5083   YY=            -23.9063   ZZ=             -7.6219
   XY=             -0.5224   XZ=              0.0000   YZ=              0.0000

 \PMP2-0=-2.1958253\MP4SDQ=-2.2111246\CCSD=-2.2120227\CCSD(T)=-2.212653
 Normal termination of Gaussian 16 at Tue Feb 13 12:24:57 2024.
