 Gaussian 16, Revision A.03,
 Gaussian 16:  ES64L-G16RevA.03 25-Dec-2016

 --------------------
 #p ROCCSD(T)/cc-pVTZ
 --------------------

 --------
 H2_H2_32
 --------
 Symbolic Z-matrix:
 Charge = -1 Multiplicity = 2

                         Standard orientation:
 ---------------------------------------------------------------------
 Center     Atomic      Atomic             Coordinates (Angstroms)
 Number     Number       Type             X           Y           Z
 ---------------------------------------------------------------------
      1          1           0       -0.223128   -1.020521    0.000000
      2          1           0        0.473301   -0.770348    0.000000
      3          1           0       -0.000000    0.547220    0.000000
      4          1           0       -0.250173    1.243649    0.000000
 ---------------------------------------------------------------------

 SCF Done:  E(ROHF) =  -2.09414343186     A.U. after   14 cycles
 E2 =    -0.7773771004D-01 EUMP2 =    -0.21718811419089D+01
 CCSD(T)
 CCSD(T)= -0.21887645774D+01

 The electronic state is 2-A'.
 Alpha  occ. eigenvalues --   -0.43181  -0.26755   0.13790
 Alpha virt. eigenvalues --    0.38839   0.52118   0.57991   0.81469   0.85404
 Alpha virt. eigenvalues --    0.89809   0.93535   1.02075   1.19661   1.29496
 Alpha virt. eigenvalues --    1.34911   1.39051   1.48377   1.67686   1.71216

 Mulliken charges and spin densities:
               1          2
     1  H   -0.537400   0.590243
     2  H   -0.352624   0.335146
     3  H    0.161716   0.019590
     4  H   -0.271691   0.055020
 Sum of Mulliken charges =  -1.00000   1.00000

 Dipole moment (field-independent basis, Debye):
    X=              0.2249    Y=              2.8411    Z=              0.0000  Tot=              2.8500
 Quadrupole moment (field-independent basis, Debye-Ang):
   XX=            -12.5520   YY=            -13.8375   ZZ=             -7.4832
   XY=             -1.1383   XZ=              0.0000   YZ=              0.0000

 SDQ=-2.1870345\CCSD=-2.1876973\CCSD(T)=-2.1887646\RMSD=1.831e-09\PG=CS
 Normal termination of Gaussian 16 at Tue Feb 13 12:17:35 2024.
