 Gaussian 16, Revision A.03,
 Gaussian 16:  ES64L-G16RevA.03 25-Dec-2016

 --------------------
 #p ROCCSD(T)/cc-pVTZ
 --------------------

 ---------
 H2_H2_203
 ---------
 Symbolic Z-matrix:
 Charge = -1 Multiplicity = 2

                         Standard orientation:
 ---------------------------------------------------------------------
 Center     Atomic      Atomic             Coordinates (Angstroms)
 Number     Number       Type             X           Y           Z
 ---------------------------------------------------------------------
      1          1           0       -0.326606   -2.074121    0.000000
      2          1           0        0.408813   -1.991914    0.000000
      3          1           0        0.000000    1.665308    0.000000
      4          1           0       -0.082207    2.400727    0.000000
 ---------------------------------------------------------------------

 SCF Done:  E(ROHF) =  -2.10755854292     A.U. after   15 cycles
 E2 =    -0.7172860093D-01 EUMP2 =    -0.21792871438561D+01
 CCSD(T)
 CCSD(T)= -0.21962883352D+01

 The electronic state is 2-A'.
 Alpha  occ. eigenvalues --   -0.41594  -0.35147   0.15494
 Alpha virt. eigenvalues --    0.30470   0.45579   0.53312   0.81197   0.83646
 Alpha virt. eigenvalues --    0.87209   0.93040   0.94019   0.94068   1.27625
 Alpha virt. eigenvalues --    1.29442   1.29938   1.33515   1.35779   1.35866

 Mulliken charges and spin densities:
               1          2
     1  H   -0.022413  -0.020083
     2  H   -0.238402   0.280034
     3  H   -0.375872   0.441587
     4  H   -0.363313   0.298462
 Sum of Mulliken charges =  -1.00000   1.00000

 Dipole moment (field-independent basis, Debye):
    X=             -0.6163    Y=             -4.5318    Z=              0.0000  Tot=              4.5735
 Quadrupole moment (field-independent basis, Debye-Ang):
   XX=             -8.6465   YY=            -30.6021   ZZ=             -7.6991
   XY=              1.4682   XZ=              0.0000   YZ=              0.0000

 P4SDQ=-2.194573\CCSD=-2.1956723\CCSD(T)=-2.1962883\RMSD=7.351e-09\PG=C
 Normal termination of Gaussian 16 at Tue Feb 13 12:28:27 2024.
