 Gaussian 16, Revision A.03,
 Gaussian 16:  ES64L-G16RevA.03 25-Dec-2016

 --------------------
 #p ROCCSD(T)/cc-pVTZ
 --------------------

 ---------
 H2_H2_252
 ---------
 Symbolic Z-matrix:
 Charge = -1 Multiplicity = 2

                         Standard orientation:
 ---------------------------------------------------------------------
 Center     Atomic      Atomic             Coordinates (Angstroms)
 Number     Number       Type             X           Y           Z
 ---------------------------------------------------------------------
      1          1           0        0.000000    0.000000    2.920000
      2          1           0        0.000000    0.000000    2.180000
      3          1           0        0.000000    0.000000   -2.180000
      4          1           0        0.000000    0.000000   -2.920000
 ---------------------------------------------------------------------

 SCF Done:  E(ROHF) =  -2.12517704382     A.U. after   10 cycles
 E2 =    -0.7102104013D-01 EUMP2 =    -0.21961980839544D+01
 CCSD(T)
 CCSD(T)= -0.22127451459D+01

 The electronic state is 2-SGG.
 Alpha  occ. eigenvalues --   -0.40034  -0.39763   0.13788
 Alpha virt. eigenvalues --    0.30551   0.45768   0.49580   0.80725   0.87335
 Alpha virt. eigenvalues --    0.89033   0.89033   0.89047   0.89047   1.28822
 Alpha virt. eigenvalues --    1.29227   1.31251   1.31251   1.31359   1.31359

 Mulliken charges and spin densities:
               1          2
     1  H   -0.221150   0.138942
     2  H   -0.278850   0.361058
     3  H   -0.278850   0.361058
     4  H   -0.221150   0.138942
 Sum of Mulliken charges =  -1.00000   1.00000

 Dipole moment (field-independent basis, Debye):
    X=             -0.0000    Y=              0.0000    Z=              0.0000  Tot=              0.0000
 Quadrupole moment (field-independent basis, Debye-Ang):
   XX=             -7.7571   YY=             -7.7571   ZZ=            -39.2299
   XY=              0.0000   XZ=              0.0000   YZ=             -0.0000

 SDQ=-2.2112863\CCSD=-2.2121853\CCSD(T)=-2.2127451\RMSD=2.705e-09\PG=D*
 Normal termination of Gaussian 16 at Tue Feb 13 12:31:37 2024.
