 Gaussian 16, Revision A.03,
 Gaussian 16:  ES64L-G16RevA.03 25-Dec-2016

 --------------------
 #p ROCCSD(T)/cc-pVTZ
 --------------------

 --------
 H2_H2_62
 --------
 Symbolic Z-matrix:
 Charge = -1 Multiplicity = 2

                         Standard orientation:
 ---------------------------------------------------------------------
 Center     Atomic      Atomic             Coordinates (Angstroms)
 Number     Number       Type             X           Y           Z
 ---------------------------------------------------------------------
      1          1           0       -0.265522   -1.189432    0.000000
      2          1           0        0.450886   -1.004068    0.000000
      3          1           0        0.000000    0.738546    0.000000
      4          1           0       -0.185364    1.454954    0.000000
 ---------------------------------------------------------------------

 SCF Done:  E(ROHF) =  -2.10606080942     A.U. after   14 cycles
 E2 =    -0.7439122321D-01 EUMP2 =    -0.21804520326215D+01
 CCSD(T)
 CCSD(T)= -0.21973607669D+01

 The electronic state is 2-A'.
 Alpha  occ. eigenvalues --   -0.40667  -0.30727   0.14522
 Alpha virt. eigenvalues --    0.37008   0.52236   0.55579   0.82146   0.87047
 Alpha virt. eigenvalues --    0.87914   0.91452   0.98061   1.07892   1.24292
 Alpha virt. eigenvalues --    1.33754   1.37689   1.41422   1.54301   1.59176

 Mulliken charges and spin densities:
               1          2
     1  H   -0.487548   0.510490
     2  H   -0.439602   0.430587
     3  H    0.151126   0.026589
     4  H   -0.223976   0.032334
 Sum of Mulliken charges =  -1.00000   1.00000

 Dipole moment (field-independent basis, Debye):
    X=             -0.1005    Y=              3.9933    Z=              0.0000  Tot=              3.9946
 Quadrupole moment (field-independent basis, Debye-Ang):
   XX=            -13.0061   YY=            -14.9932   ZZ=             -7.6032
   XY=             -1.0535   XZ=              0.0000   YZ=              0.0000

 Q=-2.1957305\CCSD=-2.1965781\CCSD(T)=-2.1973608\RMSD=9.049e-09\PG=CS [
 Normal termination of Gaussian 16 at Tue Feb 13 12:19:25 2024.
