 Gaussian 16, Revision A.03,
 Gaussian 16:  ES64L-G16RevA.03 25-Dec-2016

 --------------------
 #p ROCCSD(T)/cc-pVTZ
 --------------------

 ---------
 H2_H2_102
 ---------
 Symbolic Z-matrix:
 Charge = -1 Multiplicity = 2

                         Standard orientation:
 ---------------------------------------------------------------------
 Center     Atomic      Atomic             Coordinates (Angstroms)
 Number     Number       Type             X           Y           Z
 ---------------------------------------------------------------------
      1          1           0        0.000000    0.000000    1.920000
      2          1           0        0.000000    0.000000    1.180000
      3          1           0        0.000000    0.000000   -1.180000
      4          1           0        0.000000    0.000000   -1.920000
 ---------------------------------------------------------------------

 SCF Done:  E(ROHF) =  -2.11954360894     A.U. after   11 cycles
 E2 =    -0.7449012008D-01 EUMP2 =    -0.21940337290134D+01
 CCSD(T)
 CCSD(T)= -0.22110795624D+01

 The electronic state is 2-SGG.
 Alpha  occ. eigenvalues --   -0.37324  -0.34569   0.13812
 Alpha virt. eigenvalues --    0.36783   0.48942   0.64303   0.86993   0.89907
 Alpha virt. eigenvalues --    0.91965   0.91965   0.94208   0.94208   1.19545
 Alpha virt. eigenvalues --    1.29695   1.29695   1.41265   1.41265   1.47530

 Mulliken charges and spin densities:
               1          2
     1  H   -0.287105   0.123101
     2  H   -0.212895   0.376899
     3  H   -0.212895   0.376899
     4  H   -0.287105   0.123101
 Sum of Mulliken charges =  -1.00000   1.00000

 Dipole moment (field-independent basis, Debye):
    X=             -0.0000    Y=              0.0000    Z=             -0.0000  Tot=              0.0000
 Quadrupole moment (field-independent basis, Debye-Ang):
   XX=             -7.5593   YY=             -7.5593   ZZ=            -23.2181
   XY=             -0.0000   XZ=              0.0000   YZ=              0.0000

 P4SDQ=-2.2095177\CCSD=-2.2102933\CCSD(T)=-2.2110796\RMSD=1.815e-09\PG=
 Normal termination of Gaussian 16 at Tue Feb 13 12:21:57 2024.
