 Gaussian 16, Revision A.03,
 Gaussian 16:  ES64L-G16RevA.03 25-Dec-2016

 --------------------
 #p ROCCSD(T)/cc-pVTZ
 --------------------

 ---------
 H2_H2_294
 ---------
 Symbolic Z-matrix:
 Charge = -1 Multiplicity = 2

                         Standard orientation:
 ---------------------------------------------------------------------
 Center     Atomic      Atomic             Coordinates (Angstroms)
 Number     Number       Type             X           Y           Z
 ---------------------------------------------------------------------
      1          1           0        0.000000    0.000000    3.200000
      2          1           0        0.000000    0.000000    2.460000
      3          1           0        0.000000    0.000000   -2.460000
      4          1           0        0.000000    0.000000   -3.200000
 ---------------------------------------------------------------------

 SCF Done:  E(ROHF) =  -2.11541996010     A.U. after   10 cycles
 E2 =    -0.7161145958D-01 EUMP2 =    -0.21870314196829D+01
 CCSD(T)
 CCSD(T)= -0.22035835599D+01

 The electronic state is 2-SGG.
 Alpha  occ. eigenvalues --   -0.40613  -0.40434   0.14819
 Alpha virt. eigenvalues --    0.28101   0.45805   0.47888   0.80446   0.84755
 Alpha virt. eigenvalues --    0.88437   0.88437   0.88445   0.88445   1.28183
 Alpha virt. eigenvalues --    1.28317   1.30568   1.30568   1.30638   1.30638

 Mulliken charges and spin densities:
               1          2
     1  H   -0.240765   0.183985
     2  H   -0.259235   0.316015
     3  H   -0.259235   0.316015
     4  H   -0.240765   0.183985
 Sum of Mulliken charges =  -1.00000   1.00000

 Dipole moment (field-independent basis, Debye):
    X=             -0.0000    Y=             -0.0000    Z=              0.0000  Tot=              0.0000
 Quadrupole moment (field-independent basis, Debye-Ang):
   XX=             -7.7355   YY=             -7.7355   ZZ=            -48.6714
   XY=              0.0000   XZ=              0.0000   YZ=             -0.0000

 DQ=-2.2021352\CCSD=-2.2029821\CCSD(T)=-2.2035836\RMSD=1.078e-09\PG=D*H
 Normal termination of Gaussian 16 at Tue Feb 13 12:34:13 2024.
