 Gaussian 16, Revision A.03,
 Gaussian 16:  ES64L-G16RevA.03 25-Dec-2016

 --------------------
 #p ROCCSD(T)/cc-pVTZ
 --------------------

 ---------
 H2_H2_293
 ---------
 Symbolic Z-matrix:
 Charge = -1 Multiplicity = 2

                         Standard orientation:
 ---------------------------------------------------------------------
 Center     Atomic      Atomic             Coordinates (Angstroms)
 Number     Number       Type             X           Y           Z
 ---------------------------------------------------------------------
      1          1           0       -0.338508   -2.661590    0.000000
      2          1           0        0.399014   -2.601084    0.000000
      3          1           0       -0.000000    2.262576    0.000000
      4          1           0       -0.060506    3.000098    0.000000
 ---------------------------------------------------------------------

 SCF Done:  E(ROHF) =  -2.10300093870     A.U. after   21 cycles
 E2 =    -0.7230066626D-01 EUMP2 =    -0.21753016049567D+01
 CCSD(T)
 CCSD(T)= -0.21919789708D+01

 The electronic state is 2-A'.
 Alpha  occ. eigenvalues --   -0.40877  -0.39552   0.16075
 Alpha virt. eigenvalues --    0.26765   0.45808   0.48410   0.81923   0.82832
 Alpha virt. eigenvalues --    0.88092   0.88096   0.89453   0.89635   1.27789
 Alpha virt. eigenvalues --    1.29005   1.30208   1.30217   1.31381   1.31511

 Mulliken charges and spin densities:
               1          2
     1  H   -0.208798   0.188443
     2  H   -0.318897   0.339255
     3  H   -0.215862   0.259599
     4  H   -0.256443   0.212703
 Sum of Mulliken charges =  -1.00000   1.00000

 Dipole moment (field-independent basis, Debye):
    X=             -0.4059    Y=              0.6852    Z=              0.0000  Tot=              0.7964
 Quadrupole moment (field-independent basis, Debye-Ang):
   XX=            -10.6740   YY=            -43.4830   ZZ=             -7.6819
   XY=              1.1919   XZ=              0.0000   YZ=              0.0000

 P4SDQ=-2.1904983\CCSD=-2.1913248\CCSD(T)=-2.191979\RMSD=2.033e-09\PG=C
 Normal termination of Gaussian 16 at Tue Feb 13 12:34:08 2024.
