 Gaussian 16, Revision A.03,
 Gaussian 16:  ES64L-G16RevA.03 25-Dec-2016

 --------------------
 #p ROCCSD(T)/cc-pVTZ
 --------------------

 ---------
 H2_H2_171
 ---------
 Symbolic Z-matrix:
 Charge = -1 Multiplicity = 2

                         Standard orientation:
 ---------------------------------------------------------------------
 Center     Atomic      Atomic             Coordinates (Angstroms)
 Number     Number       Type             X           Y           Z
 ---------------------------------------------------------------------
      1          1           0        0.000000    0.000000    2.380000
      2          1           0        0.000000    0.000000    1.640000
      3          1           0        0.000000    0.000000   -1.640000
      4          1           0        0.000000    0.000000   -2.380000
 ---------------------------------------------------------------------

 SCF Done:  E(ROHF) =  -2.13335599409     A.U. after   10 cycles
 E2 =    -0.7108105745D-01 EUMP2 =    -0.22044370515350D+01
 CCSD(T)
 CCSD(T)= -0.22210915526D+01

 The electronic state is 2-SGG.
 Alpha  occ. eigenvalues --   -0.38218  -0.37417   0.12689
 Alpha virt. eigenvalues --    0.35028   0.46691   0.55880   0.86403   0.89530
 Alpha virt. eigenvalues --    0.91059   0.91059   0.91211   0.91211   1.31714
 Alpha virt. eigenvalues --    1.32000   1.33002   1.33002   1.33983   1.33983

 Mulliken charges and spin densities:
               1          2
     1  H   -0.220206   0.076144
     2  H   -0.279794   0.423856
     3  H   -0.279794   0.423856
     4  H   -0.220206   0.076144
 Sum of Mulliken charges =  -1.00000   1.00000

 Dipole moment (field-independent basis, Debye):
    X=             -0.0000    Y=              0.0000    Z=             -0.0000  Tot=              0.0000
 Quadrupole moment (field-independent basis, Debye-Ang):
   XX=             -7.6697   YY=             -7.6697   ZZ=            -26.4272
   XY=              0.0000   XZ=              0.0000   YZ=             -0.0000

 4SDQ=-2.2195842\CCSD=-2.2205302\CCSD(T)=-2.2210916\RMSD=5.400e-09\PG=D
 Normal termination of Gaussian 16 at Tue Feb 13 12:26:24 2024.
