 Gaussian 16, Revision A.03,
 Gaussian 16:  ES64L-G16RevA.03 25-Dec-2016

 --------------------
 #p ROCCSD(T)/cc-pVTZ
 --------------------

 ---------
 H2_H2_121
 ---------
 Symbolic Z-matrix:
 Charge = -1 Multiplicity = 2

                         Standard orientation:
 ---------------------------------------------------------------------
 Center     Atomic      Atomic             Coordinates (Angstroms)
 Number     Number       Type             X           Y           Z
 ---------------------------------------------------------------------
      1          1           0       -0.194238   -1.908162   -0.000000
      2          1           0        0.271516   -1.333120   -0.000000
      3          1           0       -0.000000    1.252664    0.000000
      4          1           0       -0.077278    1.988618    0.000000
 ---------------------------------------------------------------------

 SCF Done:  E(ROHF) =  -2.11870760438     A.U. after   13 cycles
 E2 =    -0.7339203593D-01 EUMP2 =    -0.21920996403011D+01
 CCSD(T)
 CCSD(T)= -0.22090668094D+01

 The electronic state is 2-A'.
 Alpha  occ. eigenvalues --   -0.37613  -0.35213   0.14055
 Alpha virt. eigenvalues --    0.35423   0.48288   0.58870   0.83531   0.89612
 Alpha virt. eigenvalues --    0.91664   0.92397   0.93559   0.98178   1.23216
 Alpha virt. eigenvalues --    1.31006   1.31631   1.36606   1.37913   1.45518

 Mulliken charges and spin densities:
               1          2
     1  H   -0.247899   0.123782
     2  H   -0.306732   0.430438
     3  H   -0.186777   0.344148
     4  H   -0.258591   0.101631
 Sum of Mulliken charges =  -1.00000   1.00000

 Dipole moment (field-independent basis, Debye):
    X=             -0.3240    Y=              0.7099    Z=              0.0000  Tot=              0.7803
 Quadrupole moment (field-independent basis, Debye-Ang):
   XX=             -8.5506   YY=            -22.7702   ZZ=             -7.5919
   XY=             -0.7496   XZ=             -0.0000   YZ=             -0.0000

 \PMP2-0=-2.1920996\MP4SDQ=-2.2075203\CCSD=-2.2083535\CCSD(T)=-2.209066
 Normal termination of Gaussian 16 at Tue Feb 13 12:23:12 2024.
