 Gaussian 16, Revision A.03,
 Gaussian 16:  ES64L-G16RevA.03 25-Dec-2016

 --------------------
 #p ROCCSD(T)/cc-pVTZ
 --------------------

 --------
 H2_H2_28
 --------
 Symbolic Z-matrix:
 Charge = -1 Multiplicity = 2

                         Standard orientation:
 ---------------------------------------------------------------------
 Center     Atomic      Atomic             Coordinates (Angstroms)
 Number     Number       Type             X           Y           Z
 ---------------------------------------------------------------------
      1          1           0       -0.126857   -1.311139   -0.000000
      2          1           0        0.278268   -0.691887   -0.000000
      3          1           0        0.000000    0.639341    0.000000
      4          1           0       -0.151411    1.363685    0.000000
 ---------------------------------------------------------------------

 SCF Done:  E(ROHF) =  -2.09180109918     A.U. after   15 cycles
 E2 =    -0.7959551212D-01 EUMP2 =    -0.21713966113038D+01
 CCSD(T)
 CCSD(T)= -0.21889086578D+01

 The electronic state is 2-A'.
 Alpha  occ. eigenvalues --   -0.42691  -0.28669   0.14894
 Alpha virt. eigenvalues --    0.38191   0.53602   0.59305   0.76726   0.85996
 Alpha virt. eigenvalues --    0.91379   0.96374   1.00101   1.08121   1.27234
 Alpha virt. eigenvalues --    1.28938   1.46069   1.56862   1.61116   1.79786

 Mulliken charges and spin densities:
               1          2
     1  H   -0.588110   0.631701
     2  H   -0.163039   0.138472
     3  H    0.070215   0.066755
     4  H   -0.319065   0.163071
 Sum of Mulliken charges =  -1.00000   1.00000

 Dipole moment (field-independent basis, Debye):
    X=              0.6776    Y=              2.5676    Z=              0.0000  Tot=              2.6555
 Quadrupole moment (field-independent basis, Debye-Ang):
   XX=             -9.1530   YY=            -20.9603   ZZ=             -7.4342
   XY=             -1.3838   XZ=             -0.0000   YZ=             -0.0000

 PMP2-0=-2.1713966\MP4SDQ=-2.1868344\CCSD=-2.1876393\CCSD(T)=-2.1889087
 Normal termination of Gaussian 16 at Tue Feb 13 12:17:20 2024.
