 Gaussian 16, Revision A.03,
 Gaussian 16:  ES64L-G16RevA.03 25-Dec-2016

 --------------------
 #p ROCCSD(T)/cc-pVTZ
 --------------------

 ---------
 H2_H2_142
 ---------
 Symbolic Z-matrix:
 Charge = -1 Multiplicity = 2

                         Standard orientation:
 ---------------------------------------------------------------------
 Center     Atomic      Atomic             Coordinates (Angstroms)
 Number     Number       Type             X           Y           Z
 ---------------------------------------------------------------------
      1          1           0       -0.201112   -2.045397    0.000000
      2          1           0        0.270656   -1.475279    0.000000
      3          1           0        0.000000    1.391976   -0.000000
      4          1           0       -0.069544    2.128701   -0.000000
 ---------------------------------------------------------------------

 SCF Done:  E(ROHF) =  -2.12271256177     A.U. after   12 cycles
 E2 =    -0.7238126030D-01 EUMP2 =    -0.21950938220683D+01
 CCSD(T)
 CCSD(T)= -0.22119506781D+01

 The electronic state is 2-A'.
 Alpha  occ. eigenvalues --   -0.37698  -0.36133   0.13717
 Alpha virt. eigenvalues --    0.34905   0.47508   0.57501   0.83823   0.88673
 Alpha virt. eigenvalues --    0.91586   0.91885   0.92589   0.97053   1.28091
 Alpha virt. eigenvalues --    1.31599   1.32730   1.34777   1.35780   1.40081

 Mulliken charges and spin densities:
               1          2
     1  H   -0.219693   0.089663
     2  H   -0.305508   0.434998
     3  H   -0.229134   0.380032
     4  H   -0.245665   0.095307
 Sum of Mulliken charges =  -1.00000   1.00000

 Dipole moment (field-independent basis, Debye):
    X=             -0.3798    Y=              0.3337    Z=             -0.0000  Tot=              0.5056
 Quadrupole moment (field-independent basis, Debye-Ang):
   XX=             -8.5070   YY=            -23.5829   ZZ=             -7.6135
   XY=             -0.5655   XZ=             -0.0000   YZ=              0.0000

 \PMP2-0=-2.1950938\MP4SDQ=-2.2104181\CCSD=-2.2113044\CCSD(T)=-2.211950
 Normal termination of Gaussian 16 at Tue Feb 13 12:24:33 2024.
