 Gaussian 16, Revision A.03,
 Gaussian 16:  ES64L-G16RevA.03 25-Dec-2016

 --------------------
 #p ROCCSD(T)/cc-pVTZ
 --------------------

 ---------
 H2_H2_254
 ---------
 Symbolic Z-matrix:
 Charge = -1 Multiplicity = 2

                         Standard orientation:
 ---------------------------------------------------------------------
 Center     Atomic      Atomic             Coordinates (Angstroms)
 Number     Number       Type             X           Y           Z
 ---------------------------------------------------------------------
      1          1           0       -0.334255   -2.406143    0.000000
      2          1           0        0.402584   -2.337814    0.000000
      3          1           0        0.000000    2.003559    0.000000
      4          1           0       -0.068328    2.740398    0.000000
 ---------------------------------------------------------------------

 SCF Done:  E(ROHF) =  -2.10581237724     A.U. after   19 cycles
 E2 =    -0.7108449099D-01 EUMP2 =    -0.21768968682260D+01
 CCSD(T)
 CCSD(T)= -0.21940057829D+01

 The electronic state is 2-A'.
 Alpha  occ. eigenvalues --   -0.45817  -0.33086   0.15637
 Alpha virt. eigenvalues --    0.28423   0.43221   0.52903   0.77509   0.82879
 Alpha virt. eigenvalues --    0.82893   0.89339   0.96244   0.96245   1.23339
 Alpha virt. eigenvalues --    1.25384   1.25742   1.35150   1.37707   1.37711

 Mulliken charges and spin densities:
               1          2
     1  H   -0.010061  -0.011242
     2  H   -0.098505   0.119618
     3  H   -0.456115   0.483623
     4  H   -0.435319   0.408001
 Sum of Mulliken charges =  -1.00000   1.00000

 Dipole moment (field-independent basis, Debye):
    X=             -0.2076    Y=             -8.7553    Z=              0.0000  Tot=              8.7578
 Quadrupole moment (field-independent basis, Debye-Ang):
   XX=             -7.7224   YY=            -39.3715   ZZ=             -7.7030
   XY=              1.4037   XZ=              0.0000   YZ=              0.0000

 4SDQ=-2.1920815\CCSD=-2.1934262\CCSD(T)=-2.1940058\RMSD=5.656e-09\PG=C
 Normal termination of Gaussian 16 at Tue Feb 13 12:31:43 2024.
