 Gaussian 16, Revision A.03,
 Gaussian 16:  ES64L-G16RevA.03 25-Dec-2016

 --------------------
 #p ROCCSD(T)/cc-pVTZ
 --------------------

 ---------
 H2_H2_104
 ---------
 Symbolic Z-matrix:
 Charge = -1 Multiplicity = 2

                         Standard orientation:
 ---------------------------------------------------------------------
 Center     Atomic      Atomic             Coordinates (Angstroms)
 Number     Number       Type             X           Y           Z
 ---------------------------------------------------------------------
      1          1           0       -0.296131   -1.443453    0.000000
      2          1           0        0.431401   -1.308183    0.000000
      3          1           0        0.000000    1.012052    0.000000
      4          1           0       -0.135270    1.739584    0.000000
 ---------------------------------------------------------------------

 SCF Done:  E(ROHF) =  -2.10806477681     A.U. after   16 cycles
 E2 =    -0.7221812931D-01 EUMP2 =    -0.21802829061217D+01
 CCSD(T)
 CCSD(T)= -0.21971786553D+01

 The electronic state is 2-A'.
 Alpha  occ. eigenvalues --   -0.41467  -0.32230   0.15056
 Alpha virt. eigenvalues --    0.34748   0.49008   0.55936   0.84530   0.85287
 Alpha virt. eigenvalues --    0.87058   0.91046   0.96863   1.00329   1.24551
 Alpha virt. eigenvalues --    1.30573   1.32751   1.38656   1.41311   1.45623

 Mulliken charges and spin densities:
               1          2
     1  H   -0.431074   0.432718
     2  H   -0.501432   0.504540
     3  H    0.099873   0.039851
     4  H   -0.167367   0.022891
 Sum of Mulliken charges =  -1.00000   1.00000

 Dipole moment (field-independent basis, Debye):
    X=             -0.3612    Y=              5.2953    Z=              0.0000  Tot=              5.3076
 Quadrupole moment (field-independent basis, Debye-Ang):
   XX=            -13.1949   YY=            -17.7889   ZZ=             -7.6571
   XY=             -0.7769   XZ=              0.0000   YZ=              0.0000

 4SDQ=-2.1955587\CCSD=-2.1965802\CCSD(T)=-2.1971787\RMSD=1.400e-09\PG=C
 Normal termination of Gaussian 16 at Tue Feb 13 12:22:04 2024.
