 Gaussian 16, Revision A.03,
 Gaussian 16:  ES64L-G16RevA.03 25-Dec-2016

 --------------------
 #p ROCCSD(T)/cc-pVTZ
 --------------------

 ---------
 H2_H2_235
 ---------
 Symbolic Z-matrix:
 Charge = -1 Multiplicity = 2

                         Standard orientation:
 ---------------------------------------------------------------------
 Center     Atomic      Atomic             Coordinates (Angstroms)
 Number     Number       Type             X           Y           Z
 ---------------------------------------------------------------------
      1          1           0       -0.219969   -2.657393   -0.000000
      2          1           0        0.268128   -2.101190   -0.000000
      3          1           0       -0.000000    2.010076    0.000000
      4          1           0       -0.048159    2.748507    0.000000
 ---------------------------------------------------------------------

 SCF Done:  E(ROHF) =  -2.12346120951     A.U. after   13 cycles
 E2 =    -0.7111797184D-01 EUMP2 =    -0.21945791813515D+01
 CCSD(T)
 CCSD(T)= -0.22111795919D+01

 The electronic state is 2-A'.
 Alpha  occ. eigenvalues --   -0.39620  -0.39312   0.13944
 Alpha virt. eigenvalues --    0.30864   0.45814   0.50582   0.81671   0.86650
 Alpha virt. eigenvalues --    0.89455   0.89461   0.89491   0.90071   1.29110
 Alpha virt. eigenvalues --    1.29668   1.31617   1.31719   1.31765   1.32008

 Mulliken charges and spin densities:
               1          2
     1  H   -0.199567   0.114599
     2  H   -0.295933   0.380886
     3  H   -0.278977   0.367413
     4  H   -0.225524   0.137103
 Sum of Mulliken charges =  -1.00000   1.00000

 Dipole moment (field-independent basis, Debye):
    X=             -0.3564    Y=             -0.1110    Z=              0.0000  Tot=              0.3733
 Quadrupole moment (field-independent basis, Debye-Ang):
   XX=             -8.8292   YY=            -34.3506   ZZ=             -7.7399
   XY=             -0.3244   XZ=              0.0000   YZ=             -0.0000

 MP2-0=-2.1945792\MP4SDQ=-2.2097083\CCSD=-2.2106132\CCSD(T)=-2.2111796\
 Normal termination of Gaussian 16 at Tue Feb 13 12:30:32 2024.
