 Gaussian 16, Revision A.03,
 Gaussian 16:  ES64L-G16RevA.03 25-Dec-2016

 --------------------
 #p ROCCSD(T)/cc-pVTZ
 --------------------

 ---------
 H2_H2_281
 ---------
 Symbolic Z-matrix:
 Charge = -1 Multiplicity = 2

                         Standard orientation:
 ---------------------------------------------------------------------
 Center     Atomic      Atomic             Coordinates (Angstroms)
 Number     Number       Type             X           Y           Z
 ---------------------------------------------------------------------
      1          1           0       -0.337311   -2.582880    0.000000
      2          1           0        0.400027   -2.520164    0.000000
      3          1           0       -0.000000    2.182854    0.000000
      4          1           0       -0.062716    2.920191    0.000000
 ---------------------------------------------------------------------

 SCF Done:  E(ROHF) =  -2.10354836820     A.U. after   26 cycles
 E2 =    -0.7222474048D-01 EUMP2 =    -0.21757731086869D+01
 CCSD(T)
 CCSD(T)= -0.21925258552D+01

 The electronic state is 2-A'.
 Alpha  occ. eigenvalues --   -0.41478  -0.38665   0.16011
 Alpha virt. eigenvalues --    0.27140   0.45490   0.49078   0.81552   0.83581
 Alpha virt. eigenvalues --    0.87455   0.87462   0.90373   0.90594   1.27274
 Alpha virt. eigenvalues --    1.29641   1.29651   1.29896   1.32238   1.32372

 Mulliken charges and spin densities:
               1          2
     1  H   -0.218394   0.194720
     2  H   -0.350779   0.374464
     3  H   -0.193205   0.241688
     4  H   -0.237622   0.189128
 Sum of Mulliken charges =  -1.00000   1.00000

 Dipole moment (field-independent basis, Debye):
    X=             -0.4916    Y=              1.6716    Z=              0.0000  Tot=              1.7424
 Quadrupole moment (field-independent basis, Debye-Ang):
   XX=            -10.9460   YY=            -41.1264   ZZ=             -7.6855
   XY=              1.2463   XZ=              0.0000   YZ=              0.0000

 P4SDQ=-2.1909813\CCSD=-2.1918726\CCSD(T)=-2.1925259\RMSD=2.025e-09\PG=
 Normal termination of Gaussian 16 at Tue Feb 13 12:33:23 2024.
