 Gaussian 16, Revision A.03,
 Gaussian 16:  ES64L-G16RevA.03 25-Dec-2016

 --------------------
 #p ROCCSD(T)/cc-pVTZ
 --------------------

 ---------
 H2_H2_117
 ---------
 Symbolic Z-matrix:
 Charge = -1 Multiplicity = 2

                         Standard orientation:
 ---------------------------------------------------------------------
 Center     Atomic      Atomic             Coordinates (Angstroms)
 Number     Number       Type             X           Y           Z
 ---------------------------------------------------------------------
      1          1           0        0.000000    0.000000    2.020000
      2          1           0        0.000000    0.000000    1.280000
      3          1           0        0.000000    0.000000   -1.280000
      4          1           0        0.000000    0.000000   -2.020000
 ---------------------------------------------------------------------

 SCF Done:  E(ROHF) =  -2.12376819695     A.U. after   10 cycles
 E2 =    -0.7340528144D-01 EUMP2 =    -0.21971734783994D+01
 CCSD(T)
 CCSD(T)= -0.22141157147D+01

 The electronic state is 2-SGG.
 Alpha  occ. eigenvalues --   -0.37296  -0.35232   0.13436
 Alpha virt. eigenvalues --    0.36560   0.48342   0.62301   0.87081   0.91406
 Alpha virt. eigenvalues --    0.92122   0.92122   0.93442   0.93442   1.21730
 Alpha virt. eigenvalues --    1.31299   1.31299   1.38727   1.38727   1.42927

 Mulliken charges and spin densities:
               1          2
     1  H   -0.269527   0.101953
     2  H   -0.230473   0.398047
     3  H   -0.230473   0.398047
     4  H   -0.269527   0.101953
 Sum of Mulliken charges =  -1.00000   1.00000

 Dipole moment (field-independent basis, Debye):
    X=             -0.0000    Y=              0.0000    Z=              0.0000  Tot=              0.0000
 Quadrupole moment (field-independent basis, Debye-Ang):
   XX=             -7.5815   YY=             -7.5815   ZZ=            -23.3815
   XY=             -0.0000   XZ=              0.0000   YZ=              0.0000

 P4SDQ=-2.2125644\CCSD=-2.2134035\CCSD(T)=-2.2141157\RMSD=4.731e-09\PG=
 Normal termination of Gaussian 16 at Tue Feb 13 12:22:57 2024.
