 Gaussian 16, Revision A.03,
 Gaussian 16:  ES64L-G16RevA.03 25-Dec-2016

 --------------------
 #p ROCCSD(T)/cc-pVTZ
 --------------------

 ---------
 H2_H2_158
 ---------
 Symbolic Z-matrix:
 Charge = -1 Multiplicity = 2

                         Standard orientation:
 ---------------------------------------------------------------------
 Center     Atomic      Atomic             Coordinates (Angstroms)
 Number     Number       Type             X           Y           Z
 ---------------------------------------------------------------------
      1          1           0       -0.316547   -1.784222    0.000000
      2          1           0        0.416651   -1.684118    0.000000
      3          1           0        0.000000    1.367571    0.000000
      4          1           0       -0.100105    2.100769    0.000000
 ---------------------------------------------------------------------

 SCF Done:  E(ROHF) =  -2.10723339887     A.U. after   22 cycles
 E2 =    -0.7173207898D-01 EUMP2 =    -0.21789654778468D+01
 CCSD(T)
 CCSD(T)= -0.21961275327D+01

 The electronic state is 2-A'.
 Alpha  occ. eigenvalues --   -0.42658  -0.33312   0.15405
 Alpha virt. eigenvalues --    0.32089   0.45656   0.55868   0.80598   0.85242
 Alpha virt. eigenvalues --    0.86033   0.89047   0.95980   1.02068   1.26212
 Alpha virt. eigenvalues --    1.28841   1.28894   1.36617   1.37450   1.38136

 Mulliken charges and spin densities:
               1          2
     1  H   -0.310020   0.281280
     2  H   -0.529114   0.558685
     3  H   -0.004625   0.109290
     4  H   -0.156241   0.050745
 Sum of Mulliken charges =  -1.00000   1.00000

 Dipole moment (field-independent basis, Debye):
    X=             -0.7500    Y=              5.3788    Z=              0.0000  Tot=              5.4308
 Quadrupole moment (field-independent basis, Debye-Ang):
   XX=            -12.6212   YY=            -22.9104   ZZ=             -7.6630
   XY=              0.0519   XZ=              0.0000   YZ=              0.0000

 P4SDQ=-2.1942682\CCSD=-2.1955111\CCSD(T)=-2.1961275\RMSD=3.033e-09\PG=
 Normal termination of Gaussian 16 at Tue Feb 13 12:25:34 2024.
