 Gaussian 16, Revision A.03,
 Gaussian 16:  ES64L-G16RevA.03 25-Dec-2016

 --------------------
 #p ROCCSD(T)/cc-pVTZ
 --------------------

 ---------
 H2_H2_285
 ---------
 Symbolic Z-matrix:
 Charge = -1 Multiplicity = 2

                         Standard orientation:
 ---------------------------------------------------------------------
 Center     Atomic      Atomic             Coordinates (Angstroms)
 Number     Number       Type             X           Y           Z
 ---------------------------------------------------------------------
      1          1           0        0.000000    0.000000    3.140000
      2          1           0        0.000000    0.000000    2.400000
      3          1           0        0.000000    0.000000   -2.400000
      4          1           0        0.000000    0.000000   -3.140000
 ---------------------------------------------------------------------

 SCF Done:  E(ROHF) =  -2.11741792366     A.U. after   10 cycles
 E2 =    -0.7148643179D-01 EUMP2 =    -0.21889043554461D+01
 CCSD(T)
 CCSD(T)= -0.22054555505D+01

 The electronic state is 2-SGG.
 Alpha  occ. eigenvalues --   -0.40508  -0.40314   0.14611
 Alpha virt. eigenvalues --    0.28585   0.45790   0.48181   0.80425   0.85260
 Alpha virt. eigenvalues --    0.88544   0.88544   0.88552   0.88552   1.28352
 Alpha virt. eigenvalues --    1.28432   1.30692   1.30692   1.30768   1.30768

 Mulliken charges and spin densities:
               1          2
     1  H   -0.236697   0.175210
     2  H   -0.263303   0.324790
     3  H   -0.263303   0.324790
     4  H   -0.236697   0.175210
 Sum of Mulliken charges =  -1.00000   1.00000

 Dipole moment (field-independent basis, Debye):
    X=             -0.0000    Y=              0.0000    Z=              0.0000  Tot=              0.0000
 Quadrupole moment (field-independent basis, Debye-Ang):
   XX=             -7.7422   YY=             -7.7422   ZZ=            -46.5859
   XY=              0.0000   XZ=              0.0000   YZ=             -0.0000

 P4SDQ=-2.2040055\CCSD=-2.2048629\CCSD(T)=-2.2054556\RMSD=1.227e-09\PG=
 Normal termination of Gaussian 16 at Tue Feb 13 12:33:39 2024.
