 Gaussian 16, Revision A.03,
 Gaussian 16:  ES64L-G16RevA.03 25-Dec-2016

 --------------------
 #p ROCCSD(T)/cc-pVTZ
 --------------------

 --------
 H2_H2_39
 --------
 Symbolic Z-matrix:
 Charge = -1 Multiplicity = 2

                         Standard orientation:
 ---------------------------------------------------------------------
 Center     Atomic      Atomic             Coordinates (Angstroms)
 Number     Number       Type             X           Y           Z
 ---------------------------------------------------------------------
      1          1           0        0.000000    0.000000    1.500000
      2          1           0        0.000000    0.000000    0.760000
      3          1           0        0.000000    0.000000   -0.760000
      4          1           0        0.000000    0.000000   -1.500000
 ---------------------------------------------------------------------

 SCF Done:  E(ROHF) =  -2.09637946831     A.U. after   12 cycles
 E2 =    -0.8057689821D-01 EUMP2 =    -0.21769563665242D+01
 CCSD(T)
 CCSD(T)= -0.21942795852D+01

 The electronic state is 2-SGG.
 Alpha  occ. eigenvalues --   -0.40758  -0.30580   0.15312
 Alpha virt. eigenvalues --    0.37563   0.52832   0.72334   0.76501   0.87425
 Alpha virt. eigenvalues --    0.87425   0.94307   0.98460   0.98460   1.25402
 Alpha virt. eigenvalues --    1.25402   1.35288   1.61319   1.61319   1.73430

 Mulliken charges and spin densities:
               1          2
     1  H   -0.396938   0.327702
     2  H   -0.103062   0.172298
     3  H   -0.103062   0.172298
     4  H   -0.396938   0.327702
 Sum of Mulliken charges =  -1.00000   1.00000

 Dipole moment (field-independent basis, Debye):
    X=             -0.0000    Y=             -0.0000    Z=              0.0000  Tot=              0.0000
 Quadrupole moment (field-independent basis, Debye-Ang):
   XX=             -7.4064   YY=             -7.4064   ZZ=            -24.4725
   XY=              0.0000   XZ=              0.0000   YZ=             -0.0000

 P4SDQ=-2.1925781\CCSD=-2.1930021\CCSD(T)=-2.1942796\RMSD=1.141e-09\PG=
 Normal termination of Gaussian 16 at Tue Feb 13 12:18:03 2024.
