 Gaussian 16, Revision A.03,
 Gaussian 16:  ES64L-G16RevA.03 25-Dec-2016

 --------------------
 #p ROCCSD(T)/cc-pVTZ
 --------------------

 --------
 H2_H2_86
 --------
 Symbolic Z-matrix:
 Charge = -1 Multiplicity = 2

                         Standard orientation:
 ---------------------------------------------------------------------
 Center     Atomic      Atomic             Coordinates (Angstroms)
 Number     Number       Type             X           Y           Z
 ---------------------------------------------------------------------
      1          1           0       -0.285461   -1.332877    0.000000
      2          1           0        0.438534   -1.179804    0.000000
      3          1           0       -0.000000    0.894343    0.000000
      4          1           0       -0.153073    1.618338    0.000000
 ---------------------------------------------------------------------

 SCF Done:  E(ROHF) =  -2.10802101069     A.U. after   14 cycles
 E2 =    -0.7288867731D-01 EUMP2 =    -0.21809096880060D+01
 CCSD(T)
 CCSD(T)= -0.21977991005D+01

 The electronic state is 2-A'.
 Alpha  occ. eigenvalues --   -0.40811  -0.31928   0.14871
 Alpha virt. eigenvalues --    0.35684   0.50573   0.55531   0.83967   0.86218
 Alpha virt. eigenvalues --    0.87479   0.91391   0.96933   1.01322   1.23319
 Alpha virt. eigenvalues --    1.31888   1.35771   1.39234   1.45361   1.50696

 Mulliken charges and spin densities:
               1          2
     1  H   -0.454964   0.464361
     2  H   -0.480016   0.477970
     3  H    0.124016   0.033109
     4  H   -0.189036   0.024559
 Sum of Mulliken charges =  -1.00000   1.00000

 Dipole moment (field-independent basis, Debye):
    X=             -0.2626    Y=              4.7888    Z=              0.0000  Tot=              4.7960
 Quadrupole moment (field-independent basis, Debye-Ang):
   XX=            -13.1641   YY=            -16.4531   ZZ=             -7.6453
   XY=             -0.9117   XZ=              0.0000   YZ=              0.0000

 DQ=-2.1961941\CCSD=-2.1971466\CCSD(T)=-2.1977991\RMSD=7.123e-09\PG=CS
 Normal termination of Gaussian 16 at Tue Feb 13 12:20:55 2024.
