 Gaussian 16, Revision A.03,
 Gaussian 16:  ES64L-G16RevA.03 25-Dec-2016

 --------------------
 #p ROCCSD(T)/cc-pVTZ
 --------------------

 ---------
 H2_H2_114
 ---------
 Symbolic Z-matrix:
 Charge = -1 Multiplicity = 2

                         Standard orientation:
 ---------------------------------------------------------------------
 Center     Atomic      Atomic             Coordinates (Angstroms)
 Number     Number       Type             X           Y           Z
 ---------------------------------------------------------------------
      1          1           0        0.000000    0.000000    2.000000
      2          1           0        0.000000    0.000000    1.260000
      3          1           0        0.000000    0.000000   -1.260000
      4          1           0        0.000000    0.000000   -2.000000
 ---------------------------------------------------------------------

 SCF Done:  E(ROHF) =  -2.12296646790     A.U. after   10 cycles
 E2 =    -0.7360724640D-01 EUMP2 =    -0.21965737142969D+01
 CCSD(T)
 CCSD(T)= -0.22135364732D+01

 The electronic state is 2-SGG.
 Alpha  occ. eigenvalues --   -0.37287  -0.35102   0.13507
 Alpha virt. eigenvalues --    0.36611   0.48455   0.62696   0.87025   0.91284
 Alpha virt. eigenvalues --    0.92116   0.92116   0.93589   0.93589   1.21049
 Alpha virt. eigenvalues --    1.31017   1.31017   1.39177   1.39177   1.43805

 Mulliken charges and spin densities:
               1          2
     1  H   -0.272990   0.105604
     2  H   -0.227010   0.394396
     3  H   -0.227010   0.394396
     4  H   -0.272990   0.105604
 Sum of Mulliken charges =  -1.00000   1.00000

 Dipole moment (field-independent basis, Debye):
    X=             -0.0000    Y=              0.0000    Z=              0.0000  Tot=              0.0000
 Quadrupole moment (field-independent basis, Debye-Ang):
   XX=             -7.5773   YY=             -7.5773   ZZ=            -23.3268
   XY=             -0.0000   XZ=              0.0000   YZ=              0.0000

 MP4SDQ=-2.2119831\CCSD=-2.2128108\CCSD(T)=-2.2135365\RMSD=5.752e-09\PG
 Normal termination of Gaussian 16 at Tue Feb 13 12:22:45 2024.
