 Gaussian 16, Revision A.03,
 Gaussian 16:  ES64L-G16RevA.03 25-Dec-2016

 --------------------
 #p ROCCSD(T)/cc-pVTZ
 --------------------

 ---------
 H2_H2_173
 ---------
 Symbolic Z-matrix:
 Charge = -1 Multiplicity = 2

                         Standard orientation:
 ---------------------------------------------------------------------
 Center     Atomic      Atomic             Coordinates (Angstroms)
 Number     Number       Type             X           Y           Z
 ---------------------------------------------------------------------
      1          1           0       -0.320376   -1.880428    0.000000
      2          1           0        0.413714   -1.787090    0.000000
      3          1           0       -0.000000    1.466714    0.000000
      4          1           0       -0.093338    2.200804    0.000000
 ---------------------------------------------------------------------

 SCF Done:  E(ROHF) =  -2.10720335527     A.U. after   22 cycles
 E2 =    -0.7195180782D-01 EUMP2 =    -0.21791551630844D+01
 CCSD(T)
 CCSD(T)= -0.21962836649D+01

 The electronic state is 2-A'.
 Alpha  occ. eigenvalues --   -0.41763  -0.34571   0.15484
 Alpha virt. eigenvalues --    0.31447   0.45555   0.54977   0.80962   0.85822
 Alpha virt. eigenvalues --    0.87010   0.88355   0.94621   0.99742   1.27035
 Alpha virt. eigenvalues --    1.29619   1.29736   1.35147   1.36216   1.36665

 Mulliken charges and spin densities:
               1          2
     1  H   -0.235371   0.194308
     2  H   -0.504529   0.545673
     3  H   -0.075463   0.173459
     4  H   -0.184637   0.086560
 Sum of Mulliken charges =  -1.00000   1.00000

 Dipole moment (field-independent basis, Debye):
    X=             -0.8850    Y=              4.0390    Z=              0.0000  Tot=              4.1348
 Quadrupole moment (field-independent basis, Debye-Ang):
   XX=            -11.9462   YY=            -24.7974   ZZ=             -7.6694
   XY=              0.5260   XZ=              0.0000   YZ=              0.0000

 P4SDQ=-2.1944908\CCSD=-2.1956413\CCSD(T)=-2.1962837\RMSD=3.981e-09\PG=
 Normal termination of Gaussian 16 at Tue Feb 13 12:26:31 2024.
