 Gaussian 16, Revision A.03,
 Gaussian 16:  ES64L-G16RevA.03 25-Dec-2016

 --------------------
 #p ROCCSD(T)/cc-pVTZ
 --------------------

 ---------
 H2_H2_134
 ---------
 Symbolic Z-matrix:
 Charge = -1 Multiplicity = 2

                         Standard orientation:
 ---------------------------------------------------------------------
 Center     Atomic      Atomic             Coordinates (Angstroms)
 Number     Number       Type             X           Y           Z
 ---------------------------------------------------------------------
      1          1           0       -0.309038   -1.631486    0.000000
      2          1           0        0.422250   -1.518274    0.000000
      3          1           0       -0.000000    1.209235    0.000000
      4          1           0       -0.113212    1.940524    0.000000
 ---------------------------------------------------------------------

 SCF Done:  E(ROHF) =  -2.10752619874     A.U. after   20 cycles
 E2 =    -0.7170683549D-01 EUMP2 =    -0.21792330342262D+01
 CCSD(T)
 CCSD(T)= -0.21962398710D+01

 The electronic state is 2-A'.
 Alpha  occ. eigenvalues --   -0.42540  -0.32557   0.15275
 Alpha virt. eigenvalues --    0.33231   0.46752   0.56326   0.81761   0.85029
 Alpha virt. eigenvalues --    0.86089   0.90076   0.96760   1.03150   1.26494
 Alpha virt. eigenvalues --    1.28485   1.29097   1.38206   1.38227   1.40315

 Mulliken charges and spin densities:
               1          2
     1  H   -0.380061   0.367253
     2  H   -0.525772   0.540788
     3  H    0.054395   0.062794
     4  H   -0.148562   0.029165
 Sum of Mulliken charges =  -1.00000   1.00000

 Dipole moment (field-independent basis, Debye):
    X=             -0.5465    Y=              5.7907    Z=              0.0000  Tot=              5.8164
 Quadrupole moment (field-independent basis, Debye-Ang):
   XX=            -13.0579   YY=            -20.4151   ZZ=             -7.6607
   XY=             -0.4376   XZ=              0.0000   YZ=              0.0000

 DQ=-2.1945081\CCSD=-2.1956605\CCSD(T)=-2.1962399\RMSD=9.299e-10\PG=CS
 Normal termination of Gaussian 16 at Tue Feb 13 12:24:01 2024.
