 Gaussian 16, Revision A.03,
 Gaussian 16:  ES64L-G16RevA.03 25-Dec-2016

 --------------------
 #p ROCCSD(T)/cc-pVTZ
 --------------------

 ---------
 H2_H2_295
 ---------
 Symbolic Z-matrix:
 Charge = -1 Multiplicity = 2

                         Standard orientation:
 ---------------------------------------------------------------------
 Center     Atomic      Atomic             Coordinates (Angstroms)
 Number     Number       Type             X           Y           Z
 ---------------------------------------------------------------------
      1          1           0       -0.226950   -3.054271    0.000000
      2          1           0        0.267127   -2.503374    0.000000
      3          1           0        0.000000    2.409368   -0.000000
      4          1           0       -0.040178    3.148277   -0.000000
 ---------------------------------------------------------------------

 SCF Done:  E(ROHF) =  -2.11265762888     A.U. after   13 cycles
 E2 =    -0.7176514492D-01 EUMP2 =    -0.21844227738048D+01
 CCSD(T)
 CCSD(T)= -0.22009977691D+01

 The electronic state is 2-A'.
 Alpha  occ. eigenvalues --   -0.40607  -0.40324   0.15103
 Alpha virt. eigenvalues --    0.27696   0.45848   0.47924   0.80749   0.84207
 Alpha virt. eigenvalues --    0.88382   0.88383   0.88624   0.88700   1.28110
 Alpha virt. eigenvalues --    1.28374   1.30522   1.30528   1.30715   1.30791

 Mulliken charges and spin densities:
               1          2
     1  H   -0.234855   0.185552
     2  H   -0.268340   0.317646
     3  H   -0.252470   0.305782
     4  H   -0.244335   0.191020
 Sum of Mulliken charges =  -1.00000   1.00000

 Dipole moment (field-independent basis, Debye):
    X=             -0.1803    Y=              0.0781    Z=             -0.0000  Tot=              0.1965
 Quadrupole moment (field-independent basis, Debye-Ang):
   XX=             -8.9785   YY=            -46.6314   ZZ=             -7.7233
   XY=             -0.6175   XZ=             -0.0000   YZ=              0.0000

 \PMP2-0=-2.1844228\MP4SDQ=-2.1995471\CCSD=-2.2003852\CCSD(T)=-2.200997
 Normal termination of Gaussian 16 at Tue Feb 13 12:34:16 2024.
