 Gaussian 16, Revision A.03,
 Gaussian 16:  ES64L-G16RevA.03 25-Dec-2016

 --------------------
 #p ROCCSD(T)/cc-pVTZ
 --------------------

 --------
 H2_H2_63
 --------
 Symbolic Z-matrix:
 Charge = -1 Multiplicity = 2

                         Standard orientation:
 ---------------------------------------------------------------------
 Center     Atomic      Atomic             Coordinates (Angstroms)
 Number     Number       Type             X           Y           Z
 ---------------------------------------------------------------------
      1          1           0        0.000000    0.000000    1.660000
      2          1           0        0.000000    0.000000    0.920000
      3          1           0        0.000000    0.000000   -0.920000
      4          1           0        0.000000    0.000000   -1.660000
 ---------------------------------------------------------------------

 SCF Done:  E(ROHF) =  -2.10643631096     A.U. after   11 cycles
 E2 =    -0.7804126981D-01 EUMP2 =    -0.21844775807641D+01
 CCSD(T)
 CCSD(T)= -0.22017497262D+01

 The electronic state is 2-SGG.
 Alpha  occ. eigenvalues --   -0.38599  -0.32496   0.14872
 Alpha virt. eigenvalues --    0.37178   0.51046   0.69519   0.81055   0.89704
 Alpha virt. eigenvalues --    0.89704   0.89763   0.96608   0.96608   1.25322
 Alpha virt. eigenvalues --    1.25322   1.26797   1.51739   1.51739   1.62081

 Mulliken charges and spin densities:
               1          2
     1  H   -0.341056   0.222946
     2  H   -0.158944   0.277054
     3  H   -0.158944   0.277054
     4  H   -0.341056   0.222946
 Sum of Mulliken charges =  -1.00000   1.00000

 Dipole moment (field-independent basis, Debye):
    X=             -0.0000    Y=             -0.0000    Z=             -0.0000  Tot=              0.0000
 Quadrupole moment (field-independent basis, Debye-Ang):
   XX=             -7.4695   YY=             -7.4695   ZZ=            -23.8649
   XY=              0.0000   XZ=              0.0000   YZ=             -0.0000

 P4SDQ=-2.2001355\CCSD=-2.2006931\CCSD(T)=-2.2017497\RMSD=4.989e-09\PG=
 Normal termination of Gaussian 16 at Tue Feb 13 12:19:30 2024.
