 Gaussian 16, Revision A.03,
 Gaussian 16:  ES64L-G16RevA.03 25-Dec-2016

 --------------------
 #p ROCCSD(T)/cc-pVTZ
 --------------------

 --------
 H2_H2_93
 --------
 Symbolic Z-matrix:
 Charge = -1 Multiplicity = 2

                         Standard orientation:
 ---------------------------------------------------------------------
 Center     Atomic      Atomic             Coordinates (Angstroms)
 Number     Number       Type             X           Y           Z
 ---------------------------------------------------------------------
      1          1           0        0.000000    0.000000    1.860000
      2          1           0        0.000000    0.000000    1.120000
      3          1           0        0.000000    0.000000   -1.120000
      4          1           0        0.000000    0.000000   -1.860000
 ---------------------------------------------------------------------

 SCF Done:  E(ROHF) =  -2.11676894550     A.U. after   11 cycles
 E2 =    -0.7522633084D-01 EUMP2 =    -0.21919952763447D+01
 CCSD(T)
 CCSD(T)= -0.22091020078D+01

 The electronic state is 2-SGG.
 Alpha  occ. eigenvalues --   -0.37442  -0.34150   0.14057
 Alpha virt. eigenvalues --    0.36887   0.49347   0.65525   0.87202   0.88107
 Alpha virt. eigenvalues --    0.91695   0.91695   0.94706   0.94706   1.19849
 Alpha virt. eigenvalues --    1.28561   1.28561   1.43159   1.43159   1.50544

 Mulliken charges and spin densities:
               1          2
     1  H   -0.297976   0.139662
     2  H   -0.202024   0.360338
     3  H   -0.202024   0.360338
     4  H   -0.297976   0.139662
 Sum of Mulliken charges =  -1.00000   1.00000

 Dipole moment (field-independent basis, Debye):
    X=             -0.0000    Y=              0.0000    Z=             -0.0000  Tot=              0.0000
 Quadrupole moment (field-independent basis, Debye-Ang):
   XX=             -7.5430   YY=             -7.5430   ZZ=            -23.2467
   XY=             -0.0000   XZ=              0.0000   YZ=              0.0000

 P4SDQ=-2.2075331\CCSD=-2.2082634\CCSD(T)=-2.209102\RMSD=2.151e-09\PG=D
 Normal termination of Gaussian 16 at Tue Feb 13 12:21:22 2024.
