 Gaussian 16, Revision A.03,
 Gaussian 16:  ES64L-G16RevA.03 25-Dec-2016

 --------------------
 #p ROCCSD(T)/cc-pVTZ
 --------------------

 ---------
 H2_H2_129
 ---------
 Symbolic Z-matrix:
 Charge = -1 Multiplicity = 2

                         Standard orientation:
 ---------------------------------------------------------------------
 Center     Atomic      Atomic             Coordinates (Angstroms)
 Number     Number       Type             X           Y           Z
 ---------------------------------------------------------------------
      1          1           0        0.000000    0.000000    2.100000
      2          1           0        0.000000    0.000000    1.360000
      3          1           0        0.000000    0.000000   -1.360000
      4          1           0        0.000000    0.000000   -2.100000
 ---------------------------------------------------------------------

 SCF Done:  E(ROHF) =  -2.12673682141     A.U. after   10 cycles
 E2 =    -0.7267558769D-01 EUMP2 =    -0.21994124090968D+01
 CCSD(T)
 CCSD(T)= -0.22162757203D+01

 The electronic state is 2-SGG.
 Alpha  occ. eigenvalues --   -0.37392  -0.35742   0.13179
 Alpha virt. eigenvalues --    0.36326   0.47912   0.60752   0.87458   0.91127
 Alpha virt. eigenvalues --    0.92044   0.92044   0.92883   0.92883   1.25083
 Alpha virt. eigenvalues --    1.32206   1.32206   1.37180   1.37180   1.39647

 Mulliken charges and spin densities:
               1          2
     1  H   -0.256098   0.089942
     2  H   -0.243902   0.410058
     3  H   -0.243902   0.410058
     4  H   -0.256098   0.089942
 Sum of Mulliken charges =  -1.00000   1.00000

 Dipole moment (field-independent basis, Debye):
    X=             -0.0000    Y=              0.0000    Z=              0.0000  Tot=              0.0000
 Quadrupole moment (field-independent basis, Debye-Ang):
   XX=             -7.5982   YY=             -7.5982   ZZ=            -23.7141
   XY=             -0.0000   XZ=              0.0000   YZ=              0.0000

 MP4SDQ=-2.214733\CCSD=-2.2156116\CCSD(T)=-2.2162757\RMSD=3.913e-09\PG=
 Normal termination of Gaussian 16 at Tue Feb 13 12:23:43 2024.
