 Gaussian 16, Revision A.03,
 Gaussian 16:  ES64L-G16RevA.03 25-Dec-2016

 --------------------
 #p ROCCSD(T)/cc-pVTZ
 --------------------

 --------
 H2_H2_60
 --------
 Symbolic Z-matrix:
 Charge = -1 Multiplicity = 2

                         Standard orientation:
 ---------------------------------------------------------------------
 Center     Atomic      Atomic             Coordinates (Angstroms)
 Number     Number       Type             X           Y           Z
 ---------------------------------------------------------------------
      1          1           0        0.000000    0.000000    1.640000
      2          1           0        0.000000    0.000000    0.900000
      3          1           0        0.000000    0.000000   -0.900000
      4          1           0        0.000000    0.000000   -1.640000
 ---------------------------------------------------------------------

 SCF Done:  E(ROHF) =  -2.10530535858     A.U. after   11 cycles
 E2 =    -0.7834517002D-01 EUMP2 =    -0.21836505285987D+01
 CCSD(T)
 CCSD(T)= -0.22009343544D+01

 The electronic state is 2-SGG.
 Alpha  occ. eigenvalues --   -0.38797  -0.32296   0.14943
 Alpha virt. eigenvalues --    0.37211   0.51250   0.69897   0.80406   0.89429
 Alpha virt. eigenvalues --    0.89429   0.90200   0.96821   0.96821   1.25159
 Alpha virt. eigenvalues --    1.25159   1.27771   1.52800   1.52800   1.63384

 Mulliken charges and spin densities:
               1          2
     1  H   -0.346593   0.234095
     2  H   -0.153407   0.265905
     3  H   -0.153407   0.265905
     4  H   -0.346593   0.234095
 Sum of Mulliken charges =  -1.00000   1.00000

 Dipole moment (field-independent basis, Debye):
    X=             -0.0000    Y=              0.0000    Z=             -0.0000  Tot=              0.0000
 Quadrupole moment (field-independent basis, Debye-Ang):
   XX=             -7.4614   YY=             -7.4614   ZZ=            -23.9508
   XY=              0.0000   XZ=              0.0000   YZ=             -0.0000

 4SDQ=-2.1993122\CCSD=-2.1998523\CCSD(T)=-2.2009344\RMSD=7.300e-09\PG=D
 Normal termination of Gaussian 16 at Tue Feb 13 12:19:20 2024.
