 Gaussian 16, Revision A.03,
 Gaussian 16:  ES64L-G16RevA.03 25-Dec-2016

 --------------------
 #p ROCCSD(T)/cc-pVTZ
 --------------------

 ---------
 H2_H2_111
 ---------
 Symbolic Z-matrix:
 Charge = -1 Multiplicity = 2

                         Standard orientation:
 ---------------------------------------------------------------------
 Center     Atomic      Atomic             Coordinates (Angstroms)
 Number     Number       Type             X           Y           Z
 ---------------------------------------------------------------------
      1          1           0        0.000000    0.000000    1.980000
      2          1           0        0.000000    0.000000    1.240000
      3          1           0        0.000000    0.000000   -1.240000
      4          1           0        0.000000    0.000000   -1.980000
 ---------------------------------------------------------------------

 SCF Done:  E(ROHF) =  -2.12214244826     A.U. after   10 cycles
 E2 =    -0.7381685094D-01 EUMP2 =    -0.21959592991996D+01
 CCSD(T)
 CCSD(T)= -0.22129427616D+01

 The electronic state is 2-SGG.
 Alpha  occ. eigenvalues --   -0.37285  -0.34971   0.13580
 Alpha virt. eigenvalues --    0.36658   0.48572   0.63095   0.86988   0.91072
 Alpha virt. eigenvalues --    0.92098   0.92098   0.93739   0.93739   1.20476
 Alpha virt. eigenvalues --    1.30714   1.30714   1.39655   1.39655   1.44704

 Mulliken charges and spin densities:
               1          2
     1  H   -0.276482   0.109532
     2  H   -0.223518   0.390468
     3  H   -0.223518   0.390468
     4  H   -0.276482   0.109532
 Sum of Mulliken charges =  -1.00000   1.00000

 Dipole moment (field-independent basis, Debye):
    X=             -0.0000    Y=              0.0000    Z=             -0.0000  Tot=              0.0000
 Quadrupole moment (field-independent basis, Debye-Ang):
   XX=             -7.5731   YY=             -7.5731   ZZ=            -23.2833
   XY=             -0.0000   XZ=              0.0000   YZ=              0.0000

 MP4SDQ=-2.2113873\CCSD=-2.2122029\CCSD(T)=-2.2129428\RMSD=7.163e-09\PG
 Normal termination of Gaussian 16 at Tue Feb 13 12:22:32 2024.
