 Gaussian 16, Revision A.03,
 Gaussian 16:  ES64L-G16RevA.03 25-Dec-2016

 --------------------
 #p ROCCSD(T)/cc-pVTZ
 --------------------

 ---------
 H2_H2_145
 ---------
 Symbolic Z-matrix:
 Charge = -1 Multiplicity = 2

                         Standard orientation:
 ---------------------------------------------------------------------
 Center     Atomic      Atomic             Coordinates (Angstroms)
 Number     Number       Type             X           Y           Z
 ---------------------------------------------------------------------
      1          1           0       -0.201982   -2.065041   -0.000000
      2          1           0        0.270545   -1.495552   -0.000000
      3          1           0        0.000000    1.411888    0.000000
      4          1           0       -0.068563    2.148705    0.000000
 ---------------------------------------------------------------------

 SCF Done:  E(ROHF) =  -2.12320870636     A.U. after   13 cycles
 E2 =    -0.7225956512D-01 EUMP2 =    -0.21954682714866D+01
 CCSD(T)
 CCSD(T)= -0.22123106262D+01

 The electronic state is 2-A'.
 Alpha  occ. eigenvalues --   -0.37733  -0.36260   0.13677
 Alpha virt. eigenvalues --    0.34820   0.47408   0.57281   0.83925   0.88442
 Alpha virt. eigenvalues --    0.91545   0.91804   0.92458   0.96820   1.28704
 Alpha virt. eigenvalues --    1.31587   1.32812   1.34585   1.35541   1.39434

 Mulliken charges and spin densities:
               1          2
     1  H   -0.216620   0.086574
     2  H   -0.305506   0.435029
     3  H   -0.234074   0.383628
     4  H   -0.243799   0.094768
 Sum of Mulliken charges =  -1.00000   1.00000

 Dipole moment (field-independent basis, Debye):
    X=             -0.3857    Y=              0.2922    Z=              0.0000  Tot=              0.4839
 Quadrupole moment (field-independent basis, Debye-Ang):
   XX=             -8.5070   YY=            -23.7391   ZZ=             -7.6176
   XY=             -0.5435   XZ=              0.0000   YZ=             -0.0000

 \PMP2-0=-2.1954683\MP4SDQ=-2.2107799\CCSD=-2.2116723\CCSD(T)=-2.212310
 Normal termination of Gaussian 16 at Tue Feb 13 12:24:46 2024.
