 Gaussian 16, Revision A.03,
 Gaussian 16:  ES64L-G16RevA.03 25-Dec-2016

 --------------------
 #p ROCCSD(T)/cc-pVTZ
 --------------------

 ---------
 H2_H2_186
 ---------
 Symbolic Z-matrix:
 Charge = -1 Multiplicity = 2

                         Standard orientation:
 ---------------------------------------------------------------------
 Center     Atomic      Atomic             Coordinates (Angstroms)
 Number     Number       Type             X           Y           Z
 ---------------------------------------------------------------------
      1          1           0        0.000000    0.000000    2.480000
      2          1           0        0.000000    0.000000    1.740000
      3          1           0        0.000000    0.000000   -1.740000
      4          1           0        0.000000    0.000000   -2.480000
 ---------------------------------------------------------------------

 SCF Done:  E(ROHF) =  -2.13394188705     A.U. after   10 cycles
 E2 =    -0.7082752020D-01 EUMP2 =    -0.22047694072482D+01
 CCSD(T)
 CCSD(T)= -0.22213784379D+01

 The electronic state is 2-SGG.
 Alpha  occ. eigenvalues --   -0.38592  -0.37958   0.12695
 Alpha virt. eigenvalues --    0.34369   0.46372   0.54387   0.84737   0.89912
 Alpha virt. eigenvalues --    0.90620   0.90620   0.90703   0.90703   1.30360
 Alpha virt. eigenvalues --    1.31968   1.32761   1.32761   1.33306   1.33306

 Mulliken charges and spin densities:
               1          2
     1  H   -0.213428   0.080464
     2  H   -0.286572   0.419536
     3  H   -0.286572   0.419536
     4  H   -0.213428   0.080464
 Sum of Mulliken charges =  -1.00000   1.00000

 Dipole moment (field-independent basis, Debye):
    X=             -0.0000    Y=             -0.0000    Z=              0.0000  Tot=              0.0000
 Quadrupole moment (field-independent basis, Debye-Ang):
   XX=             -7.6970   YY=             -7.6970   ZZ=            -28.0390
   XY=              0.0000   XZ=              0.0000   YZ=             -0.0000

 MP4SDQ=-2.2198834\CCSD=-2.2208335\CCSD(T)=-2.2213784\RMSD=5.321e-09\PG
 Normal termination of Gaussian 16 at Tue Feb 13 12:27:23 2024.
