 Gaussian 16, Revision A.03,
 Gaussian 16:  ES64L-G16RevA.03 25-Dec-2016

 --------------------
 #p ROCCSD(T)/cc-pVTZ
 --------------------

 ---------
 H2_H2_115
 ---------
 Symbolic Z-matrix:
 Charge = -1 Multiplicity = 2

                         Standard orientation:
 ---------------------------------------------------------------------
 Center     Atomic      Atomic             Coordinates (Angstroms)
 Number     Number       Type             X           Y           Z
 ---------------------------------------------------------------------
      1          1           0       -0.191980   -1.869053   -0.000000
      2          1           0        0.271792   -1.292410   -0.000000
      3          1           0        0.000000    1.212890    0.000000
      4          1           0       -0.079812    1.948573    0.000000
 ---------------------------------------------------------------------

 SCF Done:  E(ROHF) =  -2.11743626398     A.U. after   13 cycles
 E2 =    -0.7372314968D-01 EUMP2 =    -0.21911594136587D+01
 CCSD(T)
 CCSD(T)= -0.22081610249D+01

 The electronic state is 2-A'.
 Alpha  occ. eigenvalues --   -0.37647  -0.34941   0.14164
 Alpha virt. eigenvalues --    0.35551   0.48538   0.59190   0.83612   0.89487
 Alpha virt. eigenvalues --    0.91602   0.92476   0.93855   0.98338   1.22144
 Alpha virt. eigenvalues --    1.30629   1.31144   1.37285   1.38699   1.47334

 Mulliken charges and spin densities:
               1          2
     1  H   -0.258509   0.138286
     2  H   -0.307385   0.427375
     3  H   -0.172222   0.330385
     4  H   -0.261885   0.103954
 Sum of Mulliken charges =  -1.00000   1.00000

 Dipole moment (field-independent basis, Debye):
    X=             -0.3021    Y=              0.8465    Z=              0.0000  Tot=              0.8988
 Quadrupole moment (field-independent basis, Debye-Ang):
   XX=             -8.5778   YY=            -22.6147   ZZ=             -7.5878
   XY=             -0.8120   XZ=              0.0000   YZ=             -0.0000

 \PMP2-0=-2.1911594\MP4SDQ=-2.2066082\CCSD=-2.2074248\CCSD(T)=-2.208161
 Normal termination of Gaussian 16 at Tue Feb 13 12:22:48 2024.
