 Gaussian 16, Revision A.03,
 Gaussian 16:  ES64L-G16RevA.03 25-Dec-2016

 --------------------
 #p ROCCSD(T)/cc-pVTZ
 --------------------

 ---------
 H2_H2_300
 ---------
 Symbolic Z-matrix:
 Charge = -1 Multiplicity = 2

                         Standard orientation:
 ---------------------------------------------------------------------
 Center     Atomic      Atomic             Coordinates (Angstroms)
 Number     Number       Type             X           Y           Z
 ---------------------------------------------------------------------
      1          1           0        0.000000    0.000000    3.240000
      2          1           0        0.000000    0.000000    2.500000
      3          1           0        0.000000    0.000000   -2.500000
      4          1           0        0.000000    0.000000   -3.240000
 ---------------------------------------------------------------------

 SCF Done:  E(ROHF) =  -2.11415416639     A.U. after   10 cycles
 E2 =    -0.7169130186D-01 EUMP2 =    -0.21858454682546D+01
 CCSD(T)
 CCSD(T)= -0.22023979886D+01

 The electronic state is 2-SGG.
 Alpha  occ. eigenvalues --   -0.40678  -0.40509   0.14949
 Alpha virt. eigenvalues --    0.27793   0.45814   0.47711   0.80474   0.84438
 Alpha virt. eigenvalues --    0.88371   0.88371   0.88378   0.88378   1.28083
 Alpha virt. eigenvalues --    1.28240   1.30490   1.30490   1.30557   1.30557

 Mulliken charges and spin densities:
               1          2
     1  H   -0.243323   0.189445
     2  H   -0.256677   0.310555
     3  H   -0.256677   0.310555
     4  H   -0.243323   0.189445
 Sum of Mulliken charges =  -1.00000   1.00000

 Dipole moment (field-independent basis, Debye):
    X=             -0.0000    Y=              0.0000    Z=             -0.0000  Tot=              0.0000
 Quadrupole moment (field-independent basis, Debye-Ang):
   XX=             -7.7308   YY=             -7.7308   ZZ=            -50.0693
   XY=              0.0000   XZ=              0.0000   YZ=             -0.0000

 4SDQ=-2.2009506\CCSD=-2.2017909\CCSD(T)=-2.202398\RMSD=1.066e-09\PG=D*
 Normal termination of Gaussian 16 at Tue Feb 13 12:34:35 2024.
