 Gaussian 16, Revision A.03,
 Gaussian 16:  ES64L-G16RevA.03 25-Dec-2016

 --------------------
 #p ROCCSD(T)/cc-pVTZ
 --------------------

 --------
 H2_H2_19
 --------
 Symbolic Z-matrix:
 Charge = -1 Multiplicity = 2

                         Standard orientation:
 ---------------------------------------------------------------------
 Center     Atomic      Atomic             Coordinates (Angstroms)
 Number     Number       Type             X           Y           Z
 ---------------------------------------------------------------------
      1          1           0       -0.112628   -1.255070   -0.000000
      2          1           0        0.279317   -0.627391   -0.000000
      3          1           0        0.000000    0.580740    0.000000
      4          1           0       -0.166689    1.301721    0.000000
 ---------------------------------------------------------------------

 SCF Done:  E(ROHF) =  -2.08552779387     A.U. after   15 cycles
 E2 =    -0.8069804950D-01 EUMP2 =    -0.21662258433711D+01
 CCSD(T)
 CCSD(T)= -0.21836920372D+01

 The electronic state is 2-A'.
 Alpha  occ. eigenvalues --   -0.44233  -0.27308   0.14708
 Alpha virt. eigenvalues --    0.38729   0.53689   0.59298   0.76077   0.85375
 Alpha virt. eigenvalues --    0.91955   0.98188   1.01200   1.10201   1.28681
 Alpha virt. eigenvalues --    1.30499   1.49818   1.60266   1.64319   1.80441

 Mulliken charges and spin densities:
               1          2
     1  H   -0.632745   0.693392
     2  H   -0.102144   0.063396
     3  H    0.079778   0.057527
     4  H   -0.344889   0.185686
 Sum of Mulliken charges =  -1.00000   1.00000

 Dipole moment (field-independent basis, Debye):
    X=              0.8566    Y=              2.4156    Z=              0.0000  Tot=              2.5629
 Quadrupole moment (field-independent basis, Debye-Ang):
   XX=             -9.1395   YY=            -20.6910   ZZ=             -7.4076
   XY=             -1.2127   XZ=              0.0000   YZ=             -0.0000

 PMP2-0=-2.1662258\MP4SDQ=-2.1815785\CCSD=-2.1823282\CCSD(T)=-2.183692\
 Normal termination of Gaussian 16 at Tue Feb 13 12:16:48 2024.
