 Gaussian 16, Revision A.03,
 Gaussian 16:  ES64L-G16RevA.03 25-Dec-2016

 --------------------
 #p ROCCSD(T)/cc-pVTZ
 --------------------

 --------
 H2_H2_14
 --------
 Symbolic Z-matrix:
 Charge = -1 Multiplicity = 2

                         Standard orientation:
 ---------------------------------------------------------------------
 Center     Atomic      Atomic             Coordinates (Angstroms)
 Number     Number       Type             X           Y           Z
 ---------------------------------------------------------------------
      1          1           0       -0.178139   -0.928179    0.000000
      2          1           0        0.492003   -0.614315    0.000000
      3          1           0       -0.000000    0.436177    0.000000
      4          1           0       -0.313864    1.106318    0.000000
 ---------------------------------------------------------------------

 SCF Done:  E(ROHF) =  -2.07430474647     A.U. after   13 cycles
 E2 =    -0.8081358462D-01 EUMP2 =    -0.21551183310851D+01
 CCSD(T)
 CCSD(T)= -0.21719048221D+01

 The electronic state is 2-A'.
 Alpha  occ. eigenvalues --   -0.46933  -0.22777   0.13045
 Alpha virt. eigenvalues --    0.39849   0.51759   0.59573   0.80833   0.84380
 Alpha virt. eigenvalues --    0.91803   0.96466   1.05707   1.26778   1.33176
 Alpha virt. eigenvalues --    1.34758   1.40695   1.54585   1.75516   1.77538

 Mulliken charges and spin densities:
               1          2
     1  H   -0.574706   0.662762
     2  H   -0.256893   0.238152
     3  H    0.151032   0.017921
     4  H   -0.319433   0.081165
 Sum of Mulliken charges =  -1.00000   1.00000

 Dipole moment (field-independent basis, Debye):
    X=              0.5750    Y=              2.0777    Z=              0.0000  Tot=              2.1558
 Quadrupole moment (field-independent basis, Debye-Ang):
   XX=            -12.0782   YY=            -13.6459   ZZ=             -7.3765
   XY=             -1.0530   XZ=              0.0000   YZ=              0.0000

 SDQ=-2.17007\CCSD=-2.1705877\CCSD(T)=-2.1719048\RMSD=5.261e-09\PG=CS [
 Normal termination of Gaussian 16 at Tue Feb 13 12:16:30 2024.
