 Gaussian 16, Revision A.03,
 Gaussian 16:  ES64L-G16RevA.03 25-Dec-2016

 --------------------
 #p ROCCSD(T)/cc-pVTZ
 --------------------

 ---------
 H2_H2_245
 ---------
 Symbolic Z-matrix:
 Charge = -1 Multiplicity = 2

                         Standard orientation:
 ---------------------------------------------------------------------
 Center     Atomic      Atomic             Coordinates (Angstroms)
 Number     Number       Type             X           Y           Z
 ---------------------------------------------------------------------
      1          1           0       -0.333106   -2.347358    0.000000
      2          1           0        0.403535   -2.276930    0.000000
      3          1           0       -0.000000    1.943824    0.000000
      4          1           0       -0.070428    2.680464    0.000000
 ---------------------------------------------------------------------

 SCF Done:  E(ROHF) =  -2.10630058812     A.U. after   18 cycles
 E2 =    -0.7115318860D-01 EUMP2 =    -0.21774537767232D+01
 CCSD(T)
 CCSD(T)= -0.21945315107D+01

 The electronic state is 2-A'.
 Alpha  occ. eigenvalues --   -0.45203  -0.33356   0.15596
 Alpha virt. eigenvalues --    0.28777   0.43634   0.52904   0.78058   0.83267
 Alpha virt. eigenvalues --    0.83515   0.89560   0.95953   0.95956   1.23989
 Alpha virt. eigenvalues --    1.25974   1.26360   1.34915   1.37455   1.37463

 Mulliken charges and spin densities:
               1          2
     1  H   -0.010230  -0.014139
     2  H   -0.116353   0.140466
     3  H   -0.448437   0.481481
     4  H   -0.424980   0.392192
 Sum of Mulliken charges =  -1.00000   1.00000

 Dipole moment (field-independent basis, Debye):
    X=             -0.2671    Y=             -8.1195    Z=              0.0000  Tot=              8.1239
 Quadrupole moment (field-independent basis, Debye-Ang):
   XX=             -7.8234   YY=            -37.7378   ZZ=             -7.7068
   XY=              1.4493   XZ=              0.0000   YZ=              0.0000

 P4SDQ=-2.1926475\CCSD=-2.193952\CCSD(T)=-2.1945315\RMSD=1.339e-09\PG=C
 Normal termination of Gaussian 16 at Tue Feb 13 12:31:10 2024.
