 Gaussian 16, Revision A.03,
 Gaussian 16:  ES64L-G16RevA.03 25-Dec-2016

 --------------------
 #p ROCCSD(T)/cc-pVTZ
 --------------------

 --------
 H2_H2_70
 --------
 Symbolic Z-matrix:
 Charge = -1 Multiplicity = 2

                         Standard orientation:
 ---------------------------------------------------------------------
 Center     Atomic      Atomic             Coordinates (Angstroms)
 Number     Number       Type             X           Y           Z
 ---------------------------------------------------------------------
      1          1           0       -0.168662   -1.577752    0.000000
      2          1           0        0.274433   -0.985074    0.000000
      3          1           0       -0.000000    0.915212   -0.000000
      4          1           0       -0.105771    1.647614   -0.000000
 ---------------------------------------------------------------------

 SCF Done:  E(ROHF) =  -2.10693782164     A.U. after   15 cycles
 E2 =    -0.7637840970D-01 EUMP2 =    -0.21833162313389D+01
 CCSD(T)
 CCSD(T)= -0.22006391974D+01

 The electronic state is 2-A'.
 Alpha  occ. eigenvalues --   -0.38918  -0.32600   0.14925
 Alpha virt. eigenvalues --    0.36504   0.50954   0.60201   0.81878   0.86942
 Alpha virt. eigenvalues --    0.89424   0.92616   0.96426   1.01786   1.23862
 Alpha virt. eigenvalues --    1.26869   1.30685   1.44820   1.47763   1.64390

 Mulliken charges and spin densities:
               1          2
     1  H   -0.390775   0.338233
     2  H   -0.295832   0.354351
     3  H   -0.035511   0.187160
     4  H   -0.277883   0.120256
 Sum of Mulliken charges =  -1.00000   1.00000

 Dipole moment (field-independent basis, Debye):
    X=              0.0266    Y=              2.1369    Z=             -0.0000  Tot=              2.1370
 Quadrupole moment (field-independent basis, Debye-Ang):
   XX=             -8.9247   YY=            -21.9403   ZZ=             -7.5415
   XY=             -1.3589   XZ=             -0.0000   YZ=              0.0000

 PMP2-0=-2.1833162\MP4SDQ=-2.1988962\CCSD=-2.1996846\CCSD(T)=-2.2006392
 Normal termination of Gaussian 16 at Tue Feb 13 12:19:55 2024.
