 Gaussian 16, Revision A.03,
 Gaussian 16:  ES64L-G16RevA.03 25-Dec-2016

 --------------------
 #p ROCCSD(T)/cc-pVTZ
 --------------------

 ---------
 H2_H2_153
 ---------
 Symbolic Z-matrix:
 Charge = -1 Multiplicity = 2

                         Standard orientation:
 ---------------------------------------------------------------------
 Center     Atomic      Atomic             Coordinates (Angstroms)
 Number     Number       Type             X           Y           Z
 ---------------------------------------------------------------------
      1          1           0        0.000000    0.000000    2.260000
      2          1           0        0.000000    0.000000    1.520000
      3          1           0        0.000000    0.000000   -1.520000
      4          1           0        0.000000    0.000000   -2.260000
 ---------------------------------------------------------------------

 SCF Done:  E(ROHF) =  -2.13133723812     A.U. after   10 cycles
 E2 =    -0.7159123918D-01 EUMP2 =    -0.22029284773017D+01
 CCSD(T)
 CCSD(T)= -0.22196579363D+01

 The electronic state is 2-SGG.
 Alpha  occ. eigenvalues --   -0.37802  -0.36723   0.12812
 Alpha virt. eigenvalues --    0.35681   0.47159   0.57850   0.88616   0.88665
 Alpha virt. eigenvalues --    0.91561   0.91561   0.91880   0.91880   1.30606
 Alpha virt. eigenvalues --    1.33021   1.33021   1.34365   1.35041   1.35041

 Mulliken charges and spin densities:
               1          2
     1  H   -0.232858   0.077084
     2  H   -0.267142   0.422916
     3  H   -0.267142   0.422916
     4  H   -0.232858   0.077084
 Sum of Mulliken charges =  -1.00000   1.00000

 Dipole moment (field-independent basis, Debye):
    X=             -0.0000    Y=             -0.0000    Z=              0.0000  Tot=              0.0000
 Quadrupole moment (field-independent basis, Debye-Ang):
   XX=             -7.6366   YY=             -7.6366   ZZ=            -24.9539
   XY=              0.0000   XZ=              0.0000   YZ=             -0.0000

 MP4SDQ=-2.2181349\CCSD=-2.2190637\CCSD(T)=-2.2196579\RMSD=5.309e-09\PG
 Normal termination of Gaussian 16 at Tue Feb 13 12:25:17 2024.
