 Gaussian 16, Revision A.03,
 Gaussian 16:  ES64L-G16RevA.03 25-Dec-2016

 --------------------
 #p ROCCSD(T)/cc-pVTZ
 --------------------

 ---------
 H2_H2_267
 ---------
 Symbolic Z-matrix:
 Charge = -1 Multiplicity = 2

                         Standard orientation:
 ---------------------------------------------------------------------
 Center     Atomic      Atomic             Coordinates (Angstroms)
 Number     Number       Type             X           Y           Z
 ---------------------------------------------------------------------
      1          1           0        0.000000    0.000000    3.020000
      2          1           0        0.000000    0.000000    2.280000
      3          1           0        0.000000    0.000000   -2.280000
      4          1           0        0.000000    0.000000   -3.020000
 ---------------------------------------------------------------------

 SCF Done:  E(ROHF) =  -2.12164447165     A.U. after   10 cycles
 E2 =    -0.7122759885D-01 EUMP2 =    -0.21928720705063D+01
 CCSD(T)
 CCSD(T)= -0.22094206756D+01

 The electronic state is 2-SGG.
 Alpha  occ. eigenvalues --   -0.40269  -0.40037   0.14167
 Alpha virt. eigenvalues --    0.29629   0.45767   0.48875   0.80496   0.86362
 Alpha virt. eigenvalues --    0.88788   0.88788   0.88800   0.88800   1.28655
 Alpha virt. eigenvalues --    1.28773   1.30975   1.30975   1.31065   1.31065

 Mulliken charges and spin densities:
               1          2
     1  H   -0.228105   0.155954
     2  H   -0.271895   0.344046
     3  H   -0.271895   0.344046
     4  H   -0.228105   0.155954
 Sum of Mulliken charges =  -1.00000   1.00000

 Dipole moment (field-independent basis, Debye):
    X=             -0.0000    Y=              0.0000    Z=              0.0000  Tot=              0.0000
 Quadrupole moment (field-independent basis, Debye-Ang):
   XX=             -7.7530   YY=             -7.7530   ZZ=            -42.4951
   XY=              0.0000   XZ=              0.0000   YZ=             -0.0000

 P4SDQ=-2.2079664\CCSD=-2.2088463\CCSD(T)=-2.2094207\RMSD=1.896e-09\PG=
 Normal termination of Gaussian 16 at Tue Feb 13 12:32:32 2024.
