 Gaussian 16, Revision A.03,
 Gaussian 16:  ES64L-G16RevA.03 25-Dec-2016

 --------------------
 #p ROCCSD(T)/cc-pVTZ
 --------------------

 --------
 H2_H2_61
 --------
 Symbolic Z-matrix:
 Charge = -1 Multiplicity = 2

                         Standard orientation:
 ---------------------------------------------------------------------
 Center     Atomic      Atomic             Coordinates (Angstroms)
 Number     Number       Type             X           Y           Z
 ---------------------------------------------------------------------
      1          1           0       -0.162015   -1.520067    0.000000
      2          1           0        0.275119   -0.922979    0.000000
      3          1           0       -0.000000    0.855871    0.000000
      4          1           0       -0.113105    1.587176    0.000000
 ---------------------------------------------------------------------

 SCF Done:  E(ROHF) =  -2.10456716949     A.U. after   15 cycles
 E2 =    -0.7692492226D-01 EUMP2 =    -0.21814920917558D+01
 CCSD(T)
 CCSD(T)= -0.21988884660D+01

 The electronic state is 2-A'.
 Alpha  occ. eigenvalues --   -0.39426  -0.31992   0.15009
 Alpha virt. eigenvalues --    0.36763   0.51576   0.60087   0.80421   0.88018
 Alpha virt. eigenvalues --    0.88674   0.92865   0.97054   1.02892   1.24210
 Alpha virt. eigenvalues --    1.26557   1.33225   1.46931   1.50269   1.68323

 Mulliken charges and spin densities:
               1          2
     1  H   -0.429586   0.397569
     2  H   -0.282578   0.323110
     3  H   -0.006122   0.155022
     4  H   -0.281713   0.124299
 Sum of Mulliken charges =  -1.00000   1.00000

 Dipole moment (field-independent basis, Debye):
    X=              0.1397    Y=              2.3640    Z=             -0.0000  Tot=              2.3681
 Quadrupole moment (field-independent basis, Debye-Ang):
   XX=             -9.0006   YY=            -21.7911   ZZ=             -7.5230
   XY=             -1.4451   XZ=             -0.0000   YZ=             -0.0000

 PMP2-0=-2.1814921\MP4SDQ=-2.1970689\CCSD=-2.1978795\CCSD(T)=-2.1988885
 Normal termination of Gaussian 16 at Tue Feb 13 12:19:23 2024.
