 Gaussian 16, Revision A.03,
 Gaussian 16:  ES64L-G16RevA.03 25-Dec-2016

 --------------------
 #p ROCCSD(T)/cc-pVTZ
 --------------------

 --------
 H2_H2_18
 --------
 Symbolic Z-matrix:
 Charge = -1 Multiplicity = 2

                         Standard orientation:
 ---------------------------------------------------------------------
 Center     Atomic      Atomic             Coordinates (Angstroms)
 Number     Number       Type             X           Y           Z
 ---------------------------------------------------------------------
      1          1           0        0.000000    0.000000    1.360000
      2          1           0        0.000000    0.000000    0.620000
      3          1           0        0.000000    0.000000   -0.620000
      4          1           0        0.000000    0.000000   -1.360000
 ---------------------------------------------------------------------

 SCF Done:  E(ROHF) =  -2.08333636939     A.U. after   12 cycles
 E2 =    -0.8314136576D-01 EUMP2 =    -0.21664777351532D+01
 CCSD(T)
 CCSD(T)= -0.21837220066D+01

 The electronic state is 2-SGG.
 Alpha  occ. eigenvalues --   -0.44094  -0.28069   0.15318
 Alpha virt. eigenvalues --    0.38321   0.54546   0.73921   0.73962   0.85622
 Alpha virt. eigenvalues --    0.85622   1.00415   1.00415   1.00494   1.28363
 Alpha virt. eigenvalues --    1.28363   1.43711   1.71613   1.71613   1.85018

 Mulliken charges and spin densities:
               1          2
     1  H   -0.482283   0.446633
     2  H   -0.017717   0.053367
     3  H   -0.017717   0.053367
     4  H   -0.482283   0.446633
 Sum of Mulliken charges =  -1.00000   1.00000

 Dipole moment (field-independent basis, Debye):
    X=             -0.0000    Y=              0.0000    Z=             -0.0000  Tot=              0.0000
 Quadrupole moment (field-independent basis, Debye-Ang):
   XX=             -7.3694   YY=             -7.3694   ZZ=            -24.5845
   XY=              0.0000   XZ=              0.0000   YZ=             -0.0000

 P4SDQ=-2.1819123\CCSD=-2.1822224\CCSD(T)=-2.183722\RMSD=1.935e-09\PG=D
 Normal termination of Gaussian 16 at Tue Feb 13 12:16:45 2024.
