 Gaussian 16, Revision A.03,
 Gaussian 16:  ES64L-G16RevA.03 25-Dec-2016

 --------------------
 #p ROCCSD(T)/cc-pVTZ
 --------------------

 --------
 H2_H2_67
 --------
 Symbolic Z-matrix:
 Charge = -1 Multiplicity = 2

                         Standard orientation:
 ---------------------------------------------------------------------
 Center     Atomic      Atomic             Coordinates (Angstroms)
 Number     Number       Type             X           Y           Z
 ---------------------------------------------------------------------
      1          1           0       -0.166546   -1.558497    0.000000
      2          1           0        0.274655   -0.964408   -0.000000
      3          1           0       -0.000000    0.895422    0.000000
      4          1           0       -0.108109    1.627482    0.000000
 ---------------------------------------------------------------------

 SCF Done:  E(ROHF) =  -2.10616733797     A.U. after   15 cycles
 E2 =    -0.7655804314D-01 EUMP2 =    -0.21827253811188D+01
 CCSD(T)
 CCSD(T)= -0.22000732384D+01

 The electronic state is 2-A'.
 Alpha  occ. eigenvalues --   -0.39076  -0.32406   0.14957
 Alpha virt. eigenvalues --    0.36585   0.51157   0.60174   0.81367   0.87291
 Alpha virt. eigenvalues --    0.89180   0.92681   0.96629   1.02147   1.23986
 Alpha virt. eigenvalues --    1.26724   1.31441   1.45498   1.48573   1.65701

 Mulliken charges and spin densities:
               1          2
     1  H   -0.403325   0.357476
     2  H   -0.292095   0.344728
     3  H   -0.025557   0.176331
     4  H   -0.279023   0.121466
 Sum of Mulliken charges =  -1.00000   1.00000

 Dipole moment (field-independent basis, Debye):
    X=              0.0625    Y=              2.2177    Z=             -0.0000  Tot=              2.2186
 Quadrupole moment (field-independent basis, Debye-Ang):
   XX=             -8.9506   YY=            -21.8942   ZZ=             -7.5357
   XY=             -1.3905   XZ=              0.0000   YZ=              0.0000

 P2-0=-2.1827254\MP4SDQ=-2.1983056\CCSD=-2.199101\CCSD(T)=-2.2000732\RM
 Normal termination of Gaussian 16 at Tue Feb 13 12:19:44 2024.
