 Gaussian 16, Revision A.03,
 Gaussian 16:  ES64L-G16RevA.03 25-Dec-2016

 --------------------
 #p ROCCSD(T)/cc-pVTZ
 --------------------

 ---------
 H2_H2_196
 ---------
 Symbolic Z-matrix:
 Charge = -1 Multiplicity = 2

                         Standard orientation:
 ---------------------------------------------------------------------
 Center     Atomic      Atomic             Coordinates (Angstroms)
 Number     Number       Type             X           Y           Z
 ---------------------------------------------------------------------
      1          1           0       -0.213702   -2.400122   -0.000000
      2          1           0        0.268996   -1.839227   -0.000000
      3          1           0        0.000000    1.750709    0.000000
      4          1           0       -0.055294    2.488640    0.000000
 ---------------------------------------------------------------------

 SCF Done:  E(ROHF) =  -2.12707322084     A.U. after   13 cycles
 E2 =    -0.7109544568D-01 EUMP2 =    -0.21981686665270D+01
 CCSD(T)
 CCSD(T)= -0.22148273547D+01

 The electronic state is 2-A'.
 Alpha  occ. eigenvalues --   -0.38756  -0.38201   0.13471
 Alpha virt. eigenvalues --    0.32894   0.46171   0.53265   0.83844   0.86509
 Alpha virt. eigenvalues --    0.90388   0.90409   0.90534   0.92493   1.29698
 Alpha virt. eigenvalues --    1.31373   1.32527   1.32732   1.32902   1.33598

 Mulliken charges and spin densities:
               1          2
     1  H   -0.191312   0.080419
     2  H   -0.305882   0.416654
     3  H   -0.280142   0.397233
     4  H   -0.222665   0.105694
 Sum of Mulliken charges =  -1.00000   1.00000

 Dipole moment (field-independent basis, Debye):
    X=             -0.4184    Y=             -0.0784    Z=              0.0000  Tot=              0.4257
 Quadrupole moment (field-independent basis, Debye-Ang):
   XX=             -8.6583   YY=            -28.2947   ZZ=             -7.7019
   XY=             -0.3115   XZ=              0.0000   YZ=             -0.0000

 \PMP2-0=-2.1981687\MP4SDQ=-2.2133324\CCSD=-2.2142641\CCSD(T)=-2.214827
 Normal termination of Gaussian 16 at Tue Feb 13 12:28:01 2024.
