 Gaussian 16, Revision A.03,
 Gaussian 16:  ES64L-G16RevA.03 25-Dec-2016

 --------------------
 #p ROCCSD(T)/cc-pVTZ
 --------------------

 ---------
 H2_H2_101
 ---------
 Symbolic Z-matrix:
 Charge = -1 Multiplicity = 2

                         Standard orientation:
 ---------------------------------------------------------------------
 Center     Atomic      Atomic             Coordinates (Angstroms)
 Number     Number       Type             X           Y           Z
 ---------------------------------------------------------------------
      1          1           0       -0.294540   -1.424885    0.000000
      2          1           0        0.432489   -1.286936    0.000000
      3          1           0       -0.000000    0.992396    0.000000
      4          1           0       -0.137949    1.719424    0.000000
 ---------------------------------------------------------------------

 SCF Done:  E(ROHF) =  -2.10809560419     A.U. after   16 cycles
 E2 =    -0.7230799425D-01 EUMP2 =    -0.21804035984411D+01
 CCSD(T)
 CCSD(T)= -0.21972959008D+01

 The electronic state is 2-A'.
 Alpha  occ. eigenvalues --   -0.41346  -0.32196   0.15029
 Alpha virt. eigenvalues --    0.34903   0.49265   0.55867   0.84652   0.85343
 Alpha virt. eigenvalues --    0.87155   0.91123   0.96858   1.00216   1.24275
 Alpha virt. eigenvalues --    1.30772   1.33339   1.38720   1.41811   1.46377

 Mulliken charges and spin densities:
               1          2
     1  H   -0.435173   0.438083
     2  H   -0.498273   0.500467
     3  H    0.103971   0.038520
     4  H   -0.170524   0.022930
 Sum of Mulliken charges =  -1.00000   1.00000

 Dipole moment (field-independent basis, Debye):
    X=             -0.3451    Y=              5.2180    Z=              0.0000  Tot=              5.2294
 Quadrupole moment (field-independent basis, Debye-Ang):
   XX=            -13.1948   YY=            -17.5532   ZZ=             -7.6559
   XY=             -0.8016   XZ=              0.0000   YZ=              0.0000

 P4SDQ=-2.1956808\CCSD=-2.1966908\CCSD(T)=-2.1972959\RMSD=4.885e-10\PG=
 Normal termination of Gaussian 16 at Tue Feb 13 12:21:52 2024.
