 Gaussian 16, Revision A.03,
 Gaussian 16:  ES64L-G16RevA.03 25-Dec-2016

 --------------------
 #p ROCCSD(T)/cc-pVTZ
 --------------------

 ---------
 H2_H2_259
 ---------
 Symbolic Z-matrix:
 Charge = -1 Multiplicity = 2

                         Standard orientation:
 ---------------------------------------------------------------------
 Center     Atomic      Atomic             Coordinates (Angstroms)
 Number     Number       Type             X           Y           Z
 ---------------------------------------------------------------------
      1          1           0       -0.223073   -2.816016    0.000000
      2          1           0        0.267687   -2.262161    0.000000
      3          1           0        0.000000    2.169762    0.000000
      4          1           0       -0.044615    2.908416    0.000000
 ---------------------------------------------------------------------

 SCF Done:  E(ROHF) =  -2.11931812691     A.U. after   13 cycles
 E2 =    -0.7134620021D-01 EUMP2 =    -0.21906643271270D+01
 CCSD(T)
 CCSD(T)= -0.22072505324D+01

 The electronic state is 2-A'.
 Alpha  occ. eigenvalues --   -0.40054  -0.39819   0.14402
 Alpha virt. eigenvalues --    0.29533   0.45786   0.49308   0.81016   0.85828
 Alpha virt. eigenvalues --    0.88982   0.88984   0.89044   0.89264   1.28836
 Alpha virt. eigenvalues --    1.28892   1.31141   1.31192   1.31239   1.31366

 Mulliken charges and spin densities:
               1          2
     1  H   -0.212415   0.143239
     2  H   -0.284916   0.354092
     3  H   -0.269796   0.342263
     4  H   -0.232873   0.160406
 Sum of Mulliken charges =  -1.00000   1.00000

 Dipole moment (field-independent basis, Debye):
    X=             -0.2895    Y=             -0.0715    Z=              0.0000  Tot=              0.2982
 Quadrupole moment (field-independent basis, Debye-Ang):
   XX=             -8.9077   YY=            -38.9803   ZZ=             -7.7414
   XY=             -0.4135   XZ=              0.0000   YZ=              0.0000

 \PMP2-0=-2.1906643\MP4SDQ=-2.2057896\CCSD=-2.2066677\CCSD(T)=-2.207250
 Normal termination of Gaussian 16 at Tue Feb 13 12:32:02 2024.
