 Gaussian 16, Revision A.03,
 Gaussian 16:  ES64L-G16RevA.03 25-Dec-2016

 --------------------
 #p ROCCSD(T)/cc-pVTZ
 --------------------

 ---------
 H2_H2_163
 ---------
 Symbolic Z-matrix:
 Charge = -1 Multiplicity = 2

                         Standard orientation:
 ---------------------------------------------------------------------
 Center     Atomic      Atomic             Coordinates (Angstroms)
 Number     Number       Type             X           Y           Z
 ---------------------------------------------------------------------
      1          1           0       -0.206719   -2.183081    0.000000
      2          1           0        0.269930   -1.617038    0.000000
      3          1           0        0.000000    1.531412   -0.000000
      4          1           0       -0.063212    2.268707   -0.000000
 ---------------------------------------------------------------------

 SCF Done:  E(ROHF) =  -2.12564111530     A.U. after   13 cycles
 E2 =    -0.7165863158D-01 EUMP2 =    -0.21972997468819D+01
 CCSD(T)
 CCSD(T)= -0.22140629087D+01

 The electronic state is 2-A'.
 Alpha  occ. eigenvalues --   -0.38022  -0.36997   0.13496
 Alpha virt. eigenvalues --    0.34248   0.46870   0.55888   0.84702   0.86925
 Alpha virt. eigenvalues --    0.91207   0.91312   0.91713   0.95273   1.30764
 Alpha virt. eigenvalues --    1.31513   1.33003   1.33733   1.34357   1.36326

 Mulliken charges and spin densities:
               1          2
     1  H   -0.202263   0.075428
     2  H   -0.306074   0.432542
     3  H   -0.258113   0.397901
     4  H   -0.233551   0.094129
 Sum of Mulliken charges =  -1.00000   1.00000

 Dipole moment (field-independent basis, Debye):
    X=             -0.4116    Y=              0.0978    Z=             -0.0000  Tot=              0.4231
 Quadrupole moment (field-independent basis, Debye-Ang):
   XX=             -8.5334   YY=            -24.9199   ZZ=             -7.6463
   XY=             -0.4312   XZ=             -0.0000   YZ=              0.0000

 \PMP2-0=-2.1972997\MP4SDQ=-2.212544\CCSD=-2.2134634\CCSD(T)=-2.2140629
 Normal termination of Gaussian 16 at Tue Feb 13 12:25:54 2024.
