 Gaussian 16, Revision A.03,
 Gaussian 16:  ES64L-G16RevA.03 25-Dec-2016

 --------------------
 #p ROCCSD(T)/cc-pVTZ
 --------------------

 ---------
 H2_H2_170
 ---------
 Symbolic Z-matrix:
 Charge = -1 Multiplicity = 2

                         Standard orientation:
 ---------------------------------------------------------------------
 Center     Atomic      Atomic             Coordinates (Angstroms)
 Number     Number       Type             X           Y           Z
 ---------------------------------------------------------------------
      1          1           0       -0.319654   -1.861148    0.000000
      2          1           0        0.414272   -1.766530    0.000000
      3          1           0       -0.000000    1.446876    0.000000
      4          1           0       -0.094618    2.180802    0.000000
 ---------------------------------------------------------------------

 SCF Done:  E(ROHF) =  -2.10719932771     A.U. after   21 cycles
 E2 =    -0.7189326122D-01 EUMP2 =    -0.21790925889312D+01
 CCSD(T)
 CCSD(T)= -0.21962483947D+01

 The electronic state is 2-A'.
 Alpha  occ. eigenvalues --   -0.42059  -0.34220   0.15467
 Alpha virt. eigenvalues --    0.31568   0.45520   0.55207   0.80799   0.85708
 Alpha virt. eigenvalues --    0.86692   0.88449   0.95000   1.00299   1.26771
 Alpha virt. eigenvalues --    1.29352   1.29475   1.35520   1.36559   1.37028

 Mulliken charges and spin densities:
               1          2
     1  H   -0.253818   0.215360
     2  H   -0.513097   0.551790
     3  H   -0.057013   0.156356
     4  H   -0.176072   0.076495
 Sum of Mulliken charges =  -1.00000   1.00000

 Dipole moment (field-independent basis, Debye):
    X=             -0.8599    Y=              4.4427    Z=              0.0000  Tot=              4.5251
 Quadrupole moment (field-independent basis, Debye-Ang):
   XX=            -12.1312   YY=            -24.3827   ZZ=             -7.6676
   XY=              0.4165   XZ=              0.0000   YZ=              0.0000

 P4SDQ=-2.1944206\CCSD=-2.1956102\CCSD(T)=-2.1962484\RMSD=8.092e-09\PG=
 Normal termination of Gaussian 16 at Tue Feb 13 12:26:19 2024.
