 Gaussian 16, Revision A.03,
 Gaussian 16:  ES64L-G16RevA.03 25-Dec-2016

 --------------------
 #p ROCCSD(T)/cc-pVTZ
 --------------------

 ---------
 H2_H2_246
 ---------
 Symbolic Z-matrix:
 Charge = -1 Multiplicity = 2

                         Standard orientation:
 ---------------------------------------------------------------------
 Center     Atomic      Atomic             Coordinates (Angstroms)
 Number     Number       Type             X           Y           Z
 ---------------------------------------------------------------------
      1          1           0        0.000000    0.000000    2.880000
      2          1           0        0.000000    0.000000    2.140000
      3          1           0        0.000000    0.000000   -2.140000
      4          1           0        0.000000    0.000000   -2.880000
 ---------------------------------------------------------------------

 SCF Done:  E(ROHF) =  -2.12652826707     A.U. after   10 cycles
 E2 =    -0.7094601620D-01 EUMP2 =    -0.21974742832689D+01
 CCSD(T)
 CCSD(T)= -0.22140213298D+01

 The electronic state is 2-SGG.
 Alpha  occ. eigenvalues --   -0.39930  -0.39640   0.13640
 Alpha virt. eigenvalues --    0.30927   0.45777   0.49899   0.80873   0.87724
 Alpha virt. eigenvalues --    0.89142   0.89142   0.89158   0.89158   1.28884
 Alpha virt. eigenvalues --    1.29439   1.31372   1.31372   1.31489   1.31489

 Mulliken charges and spin densities:
               1          2
     1  H   -0.218613   0.132125
     2  H   -0.281387   0.367875
     3  H   -0.281387   0.367875
     4  H   -0.218613   0.132125
 Sum of Mulliken charges =  -1.00000   1.00000

 Dipole moment (field-independent basis, Debye):
    X=             -0.0000    Y=             -0.0000    Z=             -0.0000  Tot=              0.0000
 Quadrupole moment (field-independent basis, Debye-Ang):
   XX=             -7.7572   YY=             -7.7572   ZZ=            -37.9769
   XY=              0.0000   XZ=              0.0000   YZ=             -0.0000

 MP4SDQ=-2.2125604\CCSD=-2.2134668\CCSD(T)=-2.2140213\RMSD=3.069e-09\PG
 Normal termination of Gaussian 16 at Tue Feb 13 12:31:15 2024.
