 Gaussian 16, Revision A.03,
 Gaussian 16:  ES64L-G16RevA.03 25-Dec-2016

 --------------------
 #p ROCCSD(T)/cc-pVTZ
 --------------------

 --------
 H2_H2_34
 --------
 Symbolic Z-matrix:
 Charge = -1 Multiplicity = 2

                         Standard orientation:
 ---------------------------------------------------------------------
 Center     Atomic      Atomic             Coordinates (Angstroms)
 Number     Number       Type             X           Y           Z
 ---------------------------------------------------------------------
      1          1           0       -0.134951   -1.348763   -0.000000
      2          1           0        0.277614   -0.734443   -0.000000
      3          1           0       -0.000000    0.678544    0.000000
      4          1           0       -0.142663    1.404662    0.000000
 ---------------------------------------------------------------------

 SCF Done:  E(ROHF) =  -2.09501389447     A.U. after   15 cycles
 E2 =    -0.7897280061D-01 EUMP2 =    -0.21739866950770D+01
 CCSD(T)
 CCSD(T)= -0.21915078299D+01

 The electronic state is 2-A'.
 Alpha  occ. eigenvalues --   -0.41861  -0.29450   0.14975
 Alpha virt. eigenvalues --    0.37868   0.53368   0.59405   0.77238   0.86438
 Alpha virt. eigenvalues --    0.90934   0.95346   0.99436   1.06937   1.26400
 Alpha virt. eigenvalues --    1.28098   1.43551   1.54768   1.58999   1.78468

 Mulliken charges and spin densities:
               1          2
     1  H   -0.558552   0.589528
     2  H   -0.195389   0.181552
     3  H    0.061140   0.077302
     4  H   -0.307200   0.151617
 Sum of Mulliken charges =  -1.00000   1.00000

 Dipole moment (field-independent basis, Debye):
    X=              0.5665    Y=              2.6198    Z=              0.0000  Tot=              2.6803
 Quadrupole moment (field-independent basis, Debye-Ang):
   XX=             -9.1474   YY=            -21.1360   ZZ=             -7.4521
   XY=             -1.4551   XZ=             -0.0000   YZ=             -0.0000

 PMP2-0=-2.1739867\MP4SDQ=-2.1894682\CCSD=-2.1902953\CCSD(T)=-2.1915078
 Normal termination of Gaussian 16 at Tue Feb 13 12:17:43 2024.
