 Gaussian 16, Revision A.03,
 Gaussian 16:  ES64L-G16RevA.03 25-Dec-2016

 --------------------
 #p ROCCSD(T)/cc-pVTZ
 --------------------

 --------
 H2_H2_90
 --------
 Symbolic Z-matrix:
 Charge = -1 Multiplicity = 2

                         Standard orientation:
 ---------------------------------------------------------------------
 Center     Atomic      Atomic             Coordinates (Angstroms)
 Number     Number       Type             X           Y           Z
 ---------------------------------------------------------------------
      1          1           0        0.000000    0.000000    1.840000
      2          1           0        0.000000    0.000000    1.100000
      3          1           0        0.000000    0.000000   -1.100000
      4          1           0        0.000000    0.000000   -1.840000
 ---------------------------------------------------------------------

 SCF Done:  E(ROHF) =  -2.11580821325     A.U. after   11 cycles
 E2 =    -0.7548469008D-01 EUMP2 =    -0.21912929033273D+01
 CCSD(T)
 CCSD(T)= -0.22084191979D+01

 The electronic state is 2-SGG.
 Alpha  occ. eigenvalues --   -0.37501  -0.34004   0.14141
 Alpha virt. eigenvalues --    0.36918   0.49492   0.65933   0.87322   0.87421
 Alpha virt. eigenvalues --    0.91572   0.91572   0.94880   0.94880   1.20196
 Alpha virt. eigenvalues --    1.28174   1.28174   1.43857   1.43857   1.51591

 Mulliken charges and spin densities:
               1          2
     1  H   -0.301689   0.145930
     2  H   -0.198311   0.354070
     3  H   -0.198311   0.354070
     4  H   -0.301689   0.145930
 Sum of Mulliken charges =  -1.00000   1.00000

 Dipole moment (field-independent basis, Debye):
    X=             -0.0000    Y=             -0.0000    Z=              0.0000  Tot=              0.0000
 Quadrupole moment (field-independent basis, Debye-Ang):
   XX=             -7.5369   YY=             -7.5369   ZZ=            -23.2758
   XY=              0.0000   XZ=              0.0000   YZ=             -0.0000

 4SDQ=-2.2068476\CCSD=-2.2075618\CCSD(T)=-2.2084192\RMSD=2.159e-09\PG=D
 Normal termination of Gaussian 16 at Tue Feb 13 12:21:11 2024.
