 Gaussian 16, Revision A.03,
 Gaussian 16:  ES64L-G16RevA.03 25-Dec-2016

 --------------------
 #p ROCCSD(T)/cc-pVTZ
 --------------------

 ---------
 H2_H2_195
 ---------
 Symbolic Z-matrix:
 Charge = -1 Multiplicity = 2

                         Standard orientation:
 ---------------------------------------------------------------------
 Center     Atomic      Atomic             Coordinates (Angstroms)
 Number     Number       Type             X           Y           Z
 ---------------------------------------------------------------------
      1          1           0        0.000000    0.000000    2.540000
      2          1           0        0.000000    0.000000    1.800000
      3          1           0        0.000000    0.000000   -1.800000
      4          1           0        0.000000    0.000000   -2.540000
 ---------------------------------------------------------------------

 SCF Done:  E(ROHF) =  -2.13378679633     A.U. after   10 cycles
 E2 =    -0.7074132345D-01 EUMP2 =    -0.22045281197763D+01
 CCSD(T)
 CCSD(T)= -0.22211168810D+01

 The electronic state is 2-SGG.
 Alpha  occ. eigenvalues --   -0.38817  -0.38262   0.12749
 Alpha virt. eigenvalues --    0.33926   0.46215   0.53560   0.83861   0.89935
 Alpha virt. eigenvalues --    0.90361   0.90361   0.90421   0.90421   1.29853
 Alpha virt. eigenvalues --    1.31683   1.32566   1.32566   1.32959   1.32959

 Mulliken charges and spin densities:
               1          2
     1  H   -0.211067   0.085081
     2  H   -0.288933   0.414919
     3  H   -0.288933   0.414919
     4  H   -0.211067   0.085081
 Sum of Mulliken charges =  -1.00000   1.00000

 Dipole moment (field-independent basis, Debye):
    X=             -0.0000    Y=             -0.0000    Z=             -0.0000  Tot=              0.0000
 Quadrupole moment (field-independent basis, Debye-Ang):
   XX=             -7.7121   YY=             -7.7121   ZZ=            -29.1797
   XY=              0.0000   XZ=              0.0000   YZ=             -0.0000

 P4SDQ=-2.2196286\CCSD=-2.2205775\CCSD(T)=-2.2211169\RMSD=5.257e-09\PG=
 Normal termination of Gaussian 16 at Tue Feb 13 12:27:58 2024.
