 Gaussian 16, Revision A.03,
 Gaussian 16:  ES64L-G16RevA.03 25-Dec-2016

 --------------------
 #p ROCCSD(T)/cc-pVTZ
 --------------------

 ---------
 H2_H2_263
 ---------
 Symbolic Z-matrix:
 Charge = -1 Multiplicity = 2

                         Standard orientation:
 ---------------------------------------------------------------------
 Center     Atomic      Atomic             Coordinates (Angstroms)
 Number     Number       Type             X           Y           Z
 ---------------------------------------------------------------------
      1          1           0       -0.335335   -2.464995    0.000000
      2          1           0        0.401685   -2.398645    0.000000
      3          1           0       -0.000000    2.063310    0.000000
      4          1           0       -0.066350    2.800330    0.000000
 ---------------------------------------------------------------------

 SCF Done:  E(ROHF) =  -2.10531866526     A.U. after   20 cycles
 E2 =    -0.7102010939D-01 EUMP2 =    -0.21763387746432D+01
 CCSD(T)
 CCSD(T)= -0.21934821653D+01

 The electronic state is 2-A'.
 Alpha  occ. eigenvalues --   -0.46405  -0.32821   0.15678
 Alpha virt. eigenvalues --    0.28082   0.42808   0.52939   0.76982   0.82299
 Alpha virt. eigenvalues --    0.82421   0.89246   0.96528   0.96529   1.22720
 Alpha virt. eigenvalues --    1.24820   1.25152   1.35383   1.37954   1.37956

 Mulliken charges and spin densities:
               1          2
     1  H   -0.009806  -0.008668
     2  H   -0.081908   0.100241
     3  H   -0.463043   0.485509
     4  H   -0.445243   0.422918
 Sum of Mulliken charges =  -1.00000   1.00000

 Dipole moment (field-independent basis, Debye):
    X=             -0.1514    Y=             -9.3866    Z=              0.0000  Tot=              9.3878
 Quadrupole moment (field-independent basis, Debye-Ang):
   XX=             -7.6275   YY=            -41.0341   ZZ=             -7.6982
   XY=              1.3494   XZ=              0.0000   YZ=              0.0000

 P4SDQ=-2.1915163\CCSD=-2.1929007\CCSD(T)=-2.1934822\RMSD=2.086e-09\PG=
 Normal termination of Gaussian 16 at Tue Feb 13 12:32:16 2024.
