 Gaussian 16, Revision A.03,
 Gaussian 16:  ES64L-G16RevA.03 25-Dec-2016

 --------------------
 #p ROCCSD(T)/cc-pVTZ
 --------------------

 ---------
 H2_H2_174
 ---------
 Symbolic Z-matrix:
 Charge = -1 Multiplicity = 2

                         Standard orientation:
 ---------------------------------------------------------------------
 Center     Atomic      Atomic             Coordinates (Angstroms)
 Number     Number       Type             X           Y           Z
 ---------------------------------------------------------------------
      1          1           0        0.000000    0.000000    2.400000
      2          1           0        0.000000    0.000000    1.660000
      3          1           0        0.000000    0.000000   -1.660000
      4          1           0        0.000000    0.000000   -2.400000
 ---------------------------------------------------------------------

 SCF Done:  E(ROHF) =  -2.13355611584     A.U. after   10 cycles
 E2 =    -0.7101862126D-01 EUMP2 =    -0.22045747371057D+01
 CCSD(T)
 CCSD(T)= -0.22212189283D+01

 The electronic state is 2-SGG.
 Alpha  occ. eigenvalues --   -0.38292  -0.37528   0.12682
 Alpha virt. eigenvalues --    0.34904   0.46622   0.55570   0.86052   0.89637
 Alpha virt. eigenvalues --    0.90971   0.90971   0.91106   0.91106   1.31385
 Alpha virt. eigenvalues --    1.32057   1.32965   1.32965   1.33836   1.33836

 Mulliken charges and spin densities:
               1          2
     1  H   -0.218568   0.076653
     2  H   -0.281432   0.423347
     3  H   -0.281432   0.423347
     4  H   -0.218568   0.076653
 Sum of Mulliken charges =  -1.00000   1.00000

 Dipole moment (field-independent basis, Debye):
    X=             -0.0000    Y=             -0.0000    Z=             -0.0000  Tot=              0.0000
 Quadrupole moment (field-independent basis, Debye-Ang):
   XX=             -7.6753   YY=             -7.6753   ZZ=            -26.7210
   XY=              0.0000   XZ=              0.0000   YZ=             -0.0000

 MP4SDQ=-2.2197142\CCSD=-2.2206616\CCSD(T)=-2.2212189\RMSD=5.385e-09\PG
 Normal termination of Gaussian 16 at Tue Feb 13 12:26:36 2024.
