 Gaussian 16, Revision A.03,
 Gaussian 16:  ES64L-G16RevA.03 25-Dec-2016

 --------------------
 #p ROCCSD(T)/cc-pVTZ
 --------------------

 ---------
 H2_H2_272
 ---------
 Symbolic Z-matrix:
 Charge = -1 Multiplicity = 2

                         Standard orientation:
 ---------------------------------------------------------------------
 Center     Atomic      Atomic             Coordinates (Angstroms)
 Number     Number       Type             X           Y           Z
 ---------------------------------------------------------------------
      1          1           0       -0.336352   -2.523909    0.000000
      2          1           0        0.400834   -2.459427    0.000000
      3          1           0       -0.000000    2.123076    0.000000
      4          1           0       -0.064482    2.860261    0.000000
 ---------------------------------------------------------------------

 SCF Done:  E(ROHF) =  -2.10484491894     A.U. after   23 cycles
 E2 =    -0.7095823390D-01 EUMP2 =    -0.21758031528342D+01
 CCSD(T)
 CCSD(T)= -0.21929800725D+01

 The electronic state is 2-A'.
 Alpha  occ. eigenvalues --   -0.46964  -0.32565   0.15716
 Alpha virt. eigenvalues --    0.27757   0.42400   0.53006   0.76478   0.81733
 Alpha virt. eigenvalues --    0.81928   0.89243   0.96803   0.96803   1.22135
 Alpha virt. eigenvalues --    1.24282   1.24590   1.35611   1.38196   1.38196

 Mulliken charges and spin densities:
               1          2
     1  H   -0.009405  -0.006494
     2  H   -0.066643   0.082439
     3  H   -0.469366   0.487334
     4  H   -0.454586   0.436721
 Sum of Mulliken charges =  -1.00000   1.00000

 Dipole moment (field-independent basis, Debye):
    X=             -0.0996    Y=            -10.0096    Z=              0.0000  Tot=             10.0101
 Quadrupole moment (field-independent basis, Debye-Ang):
   XX=             -7.5380   YY=            -42.7172   ZZ=             -7.6928
   XY=              1.2895   XZ=              0.0000   YZ=              0.0000

 4SDQ=-2.1909751\CCSD=-2.1923953\CCSD(T)=-2.1929801\RMSD=3.245e-09\PG=C
 Normal termination of Gaussian 16 at Tue Feb 13 12:32:49 2024.
