 Gaussian 16, Revision A.03,
 Gaussian 16:  ES64L-G16RevA.03 25-Dec-2016

 --------------------
 #p ROCCSD(T)/cc-pVTZ
 --------------------

 ---------
 H2_H2_256
 ---------
 Symbolic Z-matrix:
 Charge = -1 Multiplicity = 2

                         Standard orientation:
 ---------------------------------------------------------------------
 Center     Atomic      Atomic             Coordinates (Angstroms)
 Number     Number       Type             X           Y           Z
 ---------------------------------------------------------------------
      1          1           0       -0.222710   -2.796178    0.000000
      2          1           0        0.267739   -2.242048    0.000000
      3          1           0        0.000000    2.149799   -0.000000
      4          1           0       -0.045029    2.888427   -0.000000
 ---------------------------------------------------------------------

 SCF Done:  E(ROHF) =  -2.11987507604     A.U. after   13 cycles
 E2 =    -0.7131308504D-01 EUMP2 =    -0.21911881610805D+01
 CCSD(T)
 CCSD(T)= -0.22077756556D+01

 The electronic state is 2-A'.
 Alpha  occ. eigenvalues --   -0.40004  -0.39762   0.14342
 Alpha virt. eigenvalues --    0.29698   0.45784   0.49451   0.81072   0.85955
 Alpha virt. eigenvalues --    0.89037   0.89039   0.89092   0.89339   1.28873
 Alpha virt. eigenvalues --    1.28975   1.31195   1.31253   1.31298   1.31433

 Mulliken charges and spin densities:
               1          2
     1  H   -0.210626   0.139560
     2  H   -0.286391   0.357456
     3  H   -0.271129   0.345472
     4  H   -0.231854   0.157513
 Sum of Mulliken charges =  -1.00000   1.00000

 Dipole moment (field-independent basis, Debye):
    X=             -0.2985    Y=             -0.0787    Z=             -0.0000  Tot=              0.3087
 Quadrupole moment (field-independent basis, Debye-Ang):
   XX=             -8.8994   YY=            -38.3739   ZZ=             -7.7420
   XY=             -0.3996   XZ=             -0.0000   YZ=              0.0000

 MP2-0=-2.1911882\MP4SDQ=-2.2063136\CCSD=-2.2071952\CCSD(T)=-2.2077757\
 Normal termination of Gaussian 16 at Tue Feb 13 12:31:51 2024.
