 Gaussian 16, Revision A.03,
 Gaussian 16:  ES64L-G16RevA.03 25-Dec-2016

 --------------------
 #p ROCCSD(T)/cc-pVTZ
 --------------------

 ---------
 H2_H2_136
 ---------
 Symbolic Z-matrix:
 Charge = -1 Multiplicity = 2

                         Standard orientation:
 ---------------------------------------------------------------------
 Center     Atomic      Atomic             Coordinates (Angstroms)
 Number     Number       Type             X           Y           Z
 ---------------------------------------------------------------------
      1          1           0       -0.199295   -2.006136   -0.000000
      2          1           0        0.270887   -1.434708   -0.000000
      3          1           0        0.000000    1.352157    0.000000
      4          1           0       -0.071591    2.088686    0.000000
 ---------------------------------------------------------------------

 SCF Done:  E(ROHF) =  -2.12165561972     A.U. after   13 cycles
 E2 =    -0.7264268609D-01 EUMP2 =    -0.21942983058056D+01
 CCSD(T)
 CCSD(T)= -0.22111851626D+01

 The electronic state is 2-A'.
 Alpha  occ. eigenvalues --   -0.37645  -0.35875   0.13804
 Alpha virt. eigenvalues --    0.35066   0.47717   0.57925   0.83658   0.89086
 Alpha virt. eigenvalues --    0.91648   0.92046   0.92856   0.97475   1.26732
 Alpha virt. eigenvalues --    1.31553   1.32511   1.35213   1.36303   1.41477

 Mulliken charges and spin densities:
               1          2
     1  H   -0.226498   0.097066
     2  H   -0.305639   0.434515
     3  H   -0.218421   0.371717
     4  H   -0.249441   0.096702
 Sum of Mulliken charges =  -1.00000   1.00000

 Dipole moment (field-independent basis, Debye):
    X=             -0.3667    Y=              0.4254    Z=              0.0000  Tot=              0.5616
 Quadrupole moment (field-independent basis, Debye-Ang):
   XX=             -8.5115   YY=            -23.3027   ZZ=             -7.6060
   XY=             -0.6127   XZ=              0.0000   YZ=             -0.0000

 \PMP2-0=-2.1942983\MP4SDQ=-2.209649\CCSD=-2.2105218\CCSD(T)=-2.2111852
 Normal termination of Gaussian 16 at Tue Feb 13 12:24:09 2024.
