 Gaussian 16, Revision A.03,
 Gaussian 16:  ES64L-G16RevA.03 25-Dec-2016

 --------------------
 #p ROCCSD(T)/cc-pVTZ
 --------------------

 ---------
 H2_H2_224
 ---------
 Symbolic Z-matrix:
 Charge = -1 Multiplicity = 2

                         Standard orientation:
 ---------------------------------------------------------------------
 Center     Atomic      Atomic             Coordinates (Angstroms)
 Number     Number       Type             X           Y           Z
 ---------------------------------------------------------------------
      1          1           0       -0.330118   -2.210491    0.000000
      2          1           0        0.405983   -2.134626    0.000000
      3          1           0       -0.000000    1.804508    0.000000
      4          1           0       -0.075866    2.540609    0.000000
 ---------------------------------------------------------------------

 SCF Done:  E(ROHF) =  -2.10723763274     A.U. after   17 cycles
 E2 =    -0.7135840294D-01 EUMP2 =    -0.21785960356778D+01
 CCSD(T)
 CCSD(T)= -0.21956279221D+01

 The electronic state is 2-A'.
 Alpha  occ. eigenvalues --   -0.43639  -0.34037   0.15514
 Alpha virt. eigenvalues --    0.29633   0.44589   0.53057   0.79441   0.83754
 Alpha virt. eigenvalues --    0.85106   0.90762   0.95217   0.95231   1.25634
 Alpha virt. eigenvalues --    1.27476   1.27931   1.34343   1.36821   1.36848

 Mulliken charges and spin densities:
               1          2
     1  H   -0.011472  -0.020995
     2  H   -0.164597   0.196570
     3  H   -0.424768   0.472450
     4  H   -0.399162   0.351975
 Sum of Mulliken charges =  -1.00000   1.00000

 Dipole moment (field-independent basis, Debye):
    X=             -0.4195    Y=             -6.5777    Z=              0.0000  Tot=              6.5911
 Quadrupole moment (field-independent basis, Debye-Ang):
   XX=             -8.1077   YY=            -34.0793   ZZ=             -7.7091
   XY=              1.5087   XZ=              0.0000   YZ=              0.0000

 DQ=-2.1938222\CCSD=-2.1950391\CCSD(T)=-2.1956279\RMSD=2.806e-09\PG=CS
 Normal termination of Gaussian 16 at Tue Feb 13 12:29:49 2024.
