 Gaussian 16, Revision A.03,
 Gaussian 16:  ES64L-G16RevA.03 25-Dec-2016

 --------------------
 #p ROCCSD(T)/cc-pVTZ
 --------------------

 ---------
 H2_H2_262
 ---------
 Symbolic Z-matrix:
 Charge = -1 Multiplicity = 2

                         Standard orientation:
 ---------------------------------------------------------------------
 Center     Atomic      Atomic             Coordinates (Angstroms)
 Number     Number       Type             X           Y           Z
 ---------------------------------------------------------------------
      1          1           0       -0.223429   -2.835857   -0.000000
      2          1           0        0.267636   -2.282273   -0.000000
      3          1           0        0.000000    2.189725    0.000000
      4          1           0       -0.044208    2.928404    0.000000
 ---------------------------------------------------------------------

 SCF Done:  E(ROHF) =  -2.11875562671     A.U. after   13 cycles
 E2 =    -0.7138010556D-01 EUMP2 =    -0.21901357322742D+01
 CCSD(T)
 CCSD(T)= -0.22067207422D+01

 The electronic state is 2-A'.
 Alpha  occ. eigenvalues --   -0.40103  -0.39873   0.14462
 Alpha virt. eigenvalues --    0.29370   0.45788   0.49170   0.80967   0.85698
 Alpha virt. eigenvalues --    0.88928   0.88930   0.88998   0.89194   1.28797
 Alpha virt. eigenvalues --    1.28812   1.31087   1.31131   1.31181   1.31302

 Mulliken charges and spin densities:
               1          2
     1  H   -0.214235   0.146920
     2  H   -0.283433   0.350749
     3  H   -0.268428   0.339061
     4  H   -0.233904   0.163270
 Sum of Mulliken charges =  -1.00000   1.00000

 Dipole moment (field-independent basis, Debye):
    X=             -0.2803    Y=             -0.0636    Z=             -0.0000  Tot=              0.2875
 Quadrupole moment (field-independent basis, Debye-Ang):
   XX=             -8.9156   YY=            -39.5932   ZZ=             -7.7406
   XY=             -0.4280   XZ=             -0.0000   YZ=             -0.0000

 PMP2-0=-2.1901357\MP4SDQ=-2.2052608\CCSD=-2.2061355\CCSD(T)=-2.2067207
 Normal termination of Gaussian 16 at Tue Feb 13 12:32:13 2024.
