 Gaussian 16, Revision A.03,
 Gaussian 16:  ES64L-G16RevA.03 25-Dec-2016

 --------------------
 #p ROCCSD(T)/cc-pVTZ
 --------------------

 --------
 H2_H2_26
 --------
 Symbolic Z-matrix:
 Charge = -1 Multiplicity = 2

                         Standard orientation:
 ---------------------------------------------------------------------
 Center     Atomic      Atomic             Coordinates (Angstroms)
 Number     Number       Type             X           Y           Z
 ---------------------------------------------------------------------
      1          1           0       -0.210493   -0.988809    0.000000
      2          1           0        0.479054   -0.720248    0.000000
      3          1           0       -0.000000    0.509755    0.000000
      4          1           0       -0.268560    1.199302    0.000000
 ---------------------------------------------------------------------

 SCF Done:  E(ROHF) =  -2.08909757459     A.U. after   13 cycles
 E2 =    -0.7866742606D-01 EUMP2 =    -0.21677650006542D+01
 CCSD(T)
 CCSD(T)= -0.21846249468D+01

 The electronic state is 2-A'.
 Alpha  occ. eigenvalues --   -0.44201  -0.25565   0.13577
 Alpha virt. eigenvalues --    0.39201   0.51974   0.58571   0.81348   0.85062
 Alpha virt. eigenvalues --    0.90322   0.94387   1.03195   1.22142   1.30728
 Alpha virt. eigenvalues --    1.34927   1.39465   1.50325   1.70395   1.73598

 Mulliken charges and spin densities:
               1          2
     1  H   -0.549077   0.611676
     2  H   -0.326148   0.307507
     3  H    0.159821   0.018496
     4  H   -0.284596   0.062320
 Sum of Mulliken charges =  -1.00000   1.00000

 Dipole moment (field-independent basis, Debye):
    X=              0.3225    Y=              2.5907    Z=              0.0000  Tot=              2.6107
 Quadrupole moment (field-independent basis, Debye-Ang):
   XX=            -12.4134   YY=            -13.7244   ZZ=             -7.4494
   XY=             -1.1295   XZ=              0.0000   YZ=              0.0000

 Q=-2.1828643\CCSD=-2.183481\CCSD(T)=-2.1846249\RMSD=5.959e-09\PG=CS [S
 Normal termination of Gaussian 16 at Tue Feb 13 12:17:12 2024.
