 Gaussian 16, Revision A.03,
 Gaussian 16:  ES64L-G16RevA.03 25-Dec-2016

 --------------------
 #p ROCCSD(T)/cc-pVTZ
 --------------------

 ---------
 H2_H2_302
 ---------
 Symbolic Z-matrix:
 Charge = -1 Multiplicity = 2

                         Standard orientation:
 ---------------------------------------------------------------------
 Center     Atomic      Atomic             Coordinates (Angstroms)
 Number     Number       Type             X           Y           Z
 ---------------------------------------------------------------------
      1          1           0       -0.339350   -2.720678    0.000000
      2          1           0        0.398298   -2.661730    0.000000
      3          1           0       -0.000000    2.322380    0.000000
      4          1           0       -0.058948    3.060029    0.000000
 ---------------------------------------------------------------------

 SCF Done:  E(ROHF) =  -2.10263359109     A.U. after   21 cycles
 E2 =    -0.7233933925D-01 EUMP2 =    -0.21749729303393D+01
 CCSD(T)
 CCSD(T)= -0.21916248276D+01

 The electronic state is 2-A'.
 Alpha  occ. eigenvalues --   -0.40609  -0.40033   0.16115
 Alpha virt. eigenvalues --    0.26500   0.45938   0.48037   0.82018   0.82471
 Alpha virt. eigenvalues --    0.88378   0.88382   0.88958   0.89115   1.27992
 Alpha virt. eigenvalues --    1.28553   1.30454   1.30462   1.30917   1.31040

 Mulliken charges and spin densities:
               1          2
     1  H   -0.206520   0.188560
     2  H   -0.301012   0.318973
     3  H   -0.226712   0.267457
     4  H   -0.265756   0.225010
 Sum of Mulliken charges =  -1.00000   1.00000

 Dipole moment (field-independent basis, Debye):
    X=             -0.3476    Y=              0.1825    Z=              0.0000  Tot=              0.3926
 Quadrupole moment (field-independent basis, Debye-Ang):
   XX=            -10.5424   YY=            -45.2218   ZZ=             -7.6789
   XY=              1.1316   XZ=              0.0000   YZ=              0.0000

 SDQ=-2.1901612\CCSD=-2.190969\CCSD(T)=-2.1916248\RMSD=1.354e-09\PG=CS
 Normal termination of Gaussian 16 at Tue Feb 13 12:34:41 2024.
