 Gaussian 16, Revision A.03,
 Gaussian 16:  ES64L-G16RevA.03 25-Dec-2016

 --------------------
 #p ROCCSD(T)/cc-pVTZ
 --------------------

 --------
 H2_H2_55
 --------
 Symbolic Z-matrix:
 Charge = -1 Multiplicity = 2

                         Standard orientation:
 ---------------------------------------------------------------------
 Center     Atomic      Atomic             Coordinates (Angstroms)
 Number     Number       Type             X           Y           Z
 ---------------------------------------------------------------------
      1          1           0       -0.157036   -1.481755   -0.000000
      2          1           0        0.275614   -0.881410   -0.000000
      3          1           0       -0.000000    0.816364    0.000000
      4          1           0       -0.118578    1.546802    0.000000
 ---------------------------------------------------------------------

 SCF Done:  E(ROHF) =  -2.10285521924     A.U. after   15 cycles
 E2 =    -0.7730951236D-01 EUMP2 =    -0.21801647316042D+01
 CCSD(T)
 CCSD(T)= -0.21976056077D+01

 The electronic state is 2-A'.
 Alpha  occ. eigenvalues --   -0.39830  -0.31535   0.15041
 Alpha virt. eigenvalues --    0.36962   0.52006   0.59962   0.79571   0.88157
 Alpha virt. eigenvalues --    0.88757   0.93145   0.97510   1.03674   1.24482
 Alpha virt. eigenvalues --    1.26570   1.35271   1.48468   1.52061   1.70894

 Mulliken charges and spin densities:
               1          2
     1  H   -0.457113   0.439300
     2  H   -0.269986   0.298166
     3  H    0.012198   0.134610
     4  H   -0.285099   0.127924
 Sum of Mulliken charges =  -1.00000   1.00000

 Dipole moment (field-independent basis, Debye):
    X=              0.2238    Y=              2.4837    Z=              0.0000  Tot=              2.4938
 Quadrupole moment (field-independent basis, Debye-Ang):
   XX=             -9.0464   YY=            -21.6719   ZZ=             -7.5091
   XY=             -1.4850   XZ=              0.0000   YZ=             -0.0000

 PMP2-0=-2.1801647\MP4SDQ=-2.1957323\CCSD=-2.1965574\CCSD(T)=-2.1976056
 Normal termination of Gaussian 16 at Tue Feb 13 12:19:01 2024.
