 Gaussian 16, Revision A.03,
 Gaussian 16:  ES64L-G16RevA.03 25-Dec-2016

 --------------------
 #p ROCCSD(T)/cc-pVTZ
 --------------------

 ---------
 H2_H2_191
 ---------
 Symbolic Z-matrix:
 Charge = -1 Multiplicity = 2

                         Standard orientation:
 ---------------------------------------------------------------------
 Center     Atomic      Atomic             Coordinates (Angstroms)
 Number     Number       Type             X           Y           Z
 ---------------------------------------------------------------------
      1          1           0       -0.324310   -1.996465    0.000000
      2          1           0        0.410637   -1.910138    0.000000
      3          1           0        0.000000    1.585828    0.000000
      4          1           0       -0.086327    2.320775    0.000000
 ---------------------------------------------------------------------

 SCF Done:  E(ROHF) =  -2.10740116332     A.U. after   18 cycles
 E2 =    -0.7208534398D-01 EUMP2 =    -0.21794865073003D+01
 CCSD(T)
 CCSD(T)= -0.21964019807D+01

 The electronic state is 2-A'.
 Alpha  occ. eigenvalues --   -0.39491  -0.36843   0.15529
 Alpha virt. eigenvalues --    0.30885   0.46142   0.53427   0.82863   0.83286
 Alpha virt. eigenvalues --    0.89428   0.92182   0.92293   0.95029   1.29216
 Alpha virt. eigenvalues --    1.31482   1.31726   1.32675   1.34166   1.34366

 Mulliken charges and spin densities:
               1          2
     1  H   -0.057997   0.008523
     2  H   -0.327364   0.375877
     3  H   -0.299277   0.379789
     4  H   -0.315363   0.235811
 Sum of Mulliken charges =  -1.00000   1.00000

 Dipole moment (field-independent basis, Debye):
    X=             -0.7977    Y=             -2.0986    Z=              0.0000  Tot=              2.2451
 Quadrupole moment (field-independent basis, Debye-Ang):
   XX=             -9.4947   YY=            -28.4145   ZZ=             -7.6881
   XY=              1.3184   XZ=              0.0000   YZ=              0.0000

 4SDQ=-2.1948276\CCSD=-2.1957637\CCSD(T)=-2.196402\RMSD=3.821e-09\PG=CS
 Normal termination of Gaussian 16 at Tue Feb 13 12:27:41 2024.
