 Gaussian 16, Revision A.03,
 Gaussian 16:  ES64L-G16RevA.03 25-Dec-2016

 --------------------
 #p ROCCSD(T)/cc-pVTZ
 --------------------

 --------
 H2_H2_79
 --------
 Symbolic Z-matrix:
 Charge = -1 Multiplicity = 2

                         Standard orientation:
 ---------------------------------------------------------------------
 Center     Atomic      Atomic             Coordinates (Angstroms)
 Number     Number       Type             X           Y           Z
 ---------------------------------------------------------------------
      1          1           0       -0.174485   -1.635664    0.000000
      2          1           0        0.273808   -1.046908    0.000000
      3          1           0       -0.000000    0.974634    0.000000
      4          1           0       -0.099322    1.707938    0.000000
 ---------------------------------------------------------------------

 SCF Done:  E(ROHF) =  -2.10917018659     A.U. after   15 cycles
 E2 =    -0.7584519452D-01 EUMP2 =    -0.21850153811098D+01
 CCSD(T)
 CCSD(T)= -0.22022643230D+01

 The electronic state is 2-A'.
 Alpha  occ. eigenvalues --   -0.38508  -0.33140   0.14806
 Alpha virt. eigenvalues --    0.36283   0.50376   0.60212   0.83535   0.85999
 Alpha virt. eigenvalues --    0.90101   0.92498   0.95849   1.00754   1.23251
 Alpha virt. eigenvalues --    1.27510   1.29168   1.42929   1.45483   1.60528

 Mulliken charges and spin densities:
               1          2
     1  H   -0.355827   0.284466
     2  H   -0.303609   0.378822
     3  H   -0.065546   0.219628
     4  H   -0.275019   0.117084
 Sum of Mulliken charges =  -1.00000   1.00000

 Dipole moment (field-independent basis, Debye):
    X=             -0.0695    Y=              1.8741    Z=              0.0000  Tot=              1.8754
 Quadrupole moment (field-independent basis, Debye-Ang):
   XX=             -8.8452   YY=            -22.0623   ZZ=             -7.5567
   XY=             -1.2530   XZ=              0.0000   YZ=              0.0000

 PMP2-0=-2.1850154\MP4SDQ=-2.200587\CCSD=-2.2013599\CCSD(T)=-2.2022643\
 Normal termination of Gaussian 16 at Tue Feb 13 12:20:28 2024.
