 Gaussian 16, Revision A.03,
 Gaussian 16:  ES64L-G16RevA.03 25-Dec-2016

 --------------------
 #p ROCCSD(T)/cc-pVTZ
 --------------------

 ---------
 H2_H2_274
 ---------
 Symbolic Z-matrix:
 Charge = -1 Multiplicity = 2

                         Standard orientation:
 ---------------------------------------------------------------------
 Center     Atomic      Atomic             Coordinates (Angstroms)
 Number     Number       Type             X           Y           Z
 ---------------------------------------------------------------------
      1          1           0       -0.224789   -2.915247   -0.000000
      2          1           0        0.267441   -2.362698   -0.000000
      3          1           0        0.000000    2.269588    0.000000
      4          1           0       -0.042652    3.008357    0.000000
 ---------------------------------------------------------------------

 SCF Done:  E(ROHF) =  -2.11648468868     A.U. after   13 cycles
 E2 =    -0.7152055221D-01 EUMP2 =    -0.21880052408858D+01
 CCSD(T)
 CCSD(T)= -0.22045861610D+01

 The electronic state is 2-A'.
 Alpha  occ. eigenvalues --   -0.40291  -0.40068   0.14704
 Alpha virt. eigenvalues --    0.28732   0.45807   0.48660   0.80826   0.85154
 Alpha virt. eigenvalues --    0.88721   0.88723   0.88834   0.88965   1.28522
 Alpha virt. eigenvalues --    1.28642   1.30880   1.30901   1.30976   1.31078

 Mulliken charges and spin densities:
               1          2
     1  H   -0.221719   0.161500
     2  H   -0.277539   0.337760
     3  H   -0.262728   0.326440
     4  H   -0.238014   0.174299
 Sum of Mulliken charges =  -1.00000   1.00000

 Dipole moment (field-independent basis, Debye):
    X=             -0.2432    Y=             -0.0252    Z=              0.0000  Tot=              0.2445
 Quadrupole moment (field-independent basis, Debye-Ang):
   XX=             -8.9430   YY=            -42.0996   ZZ=             -7.7358
   XY=             -0.4918   XZ=              0.0000   YZ=             -0.0000

 \PMP2-0=-2.1880052\MP4SDQ=-2.2031302\CCSD=-2.2039909\CCSD(T)=-2.204586
 Normal termination of Gaussian 16 at Tue Feb 13 12:32:57 2024.
