 Gaussian 16, Revision A.03,
 Gaussian 16:  ES64L-G16RevA.03 25-Dec-2016

 --------------------
 #p ROCCSD(T)/cc-pVTZ
 --------------------

 ---------
 H2_H2_200
 ---------
 Symbolic Z-matrix:
 Charge = -1 Multiplicity = 2

                         Standard orientation:
 ---------------------------------------------------------------------
 Center     Atomic      Atomic             Coordinates (Angstroms)
 Number     Number       Type             X           Y           Z
 ---------------------------------------------------------------------
      1          1           0       -0.326054   -2.054687    0.000000
      2          1           0        0.409254   -1.971487    0.000000
      3          1           0       -0.000000    1.645433    0.000000
      4          1           0       -0.083200    2.380741    0.000000
 ---------------------------------------------------------------------

 SCF Done:  E(ROHF) =  -2.10753910815     A.U. after   15 cycles
 E2 =    -0.7180662136D-01 EUMP2 =    -0.21793457295032D+01
 CCSD(T)
 CCSD(T)= -0.21963346751D+01

 The electronic state is 2-A'.
 Alpha  occ. eigenvalues --   -0.41193  -0.35425   0.15500
 Alpha virt. eigenvalues --    0.30581   0.45728   0.53340   0.81533   0.83585
 Alpha virt. eigenvalues --    0.87627   0.93463   0.93719   0.93779   1.27978
 Alpha virt. eigenvalues --    1.29829   1.30317   1.33327   1.35516   1.35619

 Mulliken charges and spin densities:
               1          2
     1  H   -0.026979  -0.017203
     2  H   -0.254644   0.297910
     3  H   -0.363168   0.432064
     4  H   -0.355210   0.287229
 Sum of Mulliken charges =  -1.00000   1.00000

 Dipole moment (field-independent basis, Debye):
    X=             -0.6538    Y=             -4.0982    Z=              0.0000  Tot=              4.1500
 Quadrupole moment (field-independent basis, Debye-Ang):
   XX=             -8.7858   YY=            -30.0945   ZZ=             -7.6967
   XY=              1.4470   XZ=              0.0000   YZ=              0.0000

 P4SDQ=-2.1946437\CCSD=-2.1957132\CCSD(T)=-2.1963347\RMSD=5.882e-09\PG=
 Normal termination of Gaussian 16 at Tue Feb 13 12:28:16 2024.
