 Gaussian 16, Revision A.03,
 Gaussian 16:  ES64L-G16RevA.03 25-Dec-2016

 --------------------
 #p ROCCSD(T)/cc-pVTZ
 --------------------

 ---------
 H2_H2_172
 ---------
 Symbolic Z-matrix:
 Charge = -1 Multiplicity = 2

                         Standard orientation:
 ---------------------------------------------------------------------
 Center     Atomic      Atomic             Coordinates (Angstroms)
 Number     Number       Type             X           Y           Z
 ---------------------------------------------------------------------
      1          1           0       -0.208817   -2.242201   -0.000000
      2          1           0        0.269653   -1.677696    0.000000
      3          1           0        0.000000    1.591201    0.000000
      4          1           0       -0.060836    2.328696   -0.000000
 ---------------------------------------------------------------------

 SCF Done:  E(ROHF) =  -2.12645018141     A.U. after   13 cycles
 E2 =    -0.7143959554D-01 EUMP2 =    -0.21978897769580D+01
 CCSD(T)
 CCSD(T)= -0.22146189350D+01

 The electronic state is 2-A'.
 Alpha  occ. eigenvalues --   -0.38206  -0.37347   0.13448
 Alpha virt. eigenvalues --    0.33919   0.46642   0.55167   0.85023   0.86266
 Alpha virt. eigenvalues --    0.90997   0.91064   0.91367   0.94477   1.30524
 Alpha virt. eigenvalues --    1.31832   1.32946   1.33430   1.33890   1.35265

 Mulliken charges and spin densities:
               1          2
     1  H   -0.197432   0.073924
     2  H   -0.306432   0.429654
     3  H   -0.266744   0.400791
     4  H   -0.229393   0.095631
 Sum of Mulliken charges =  -1.00000   1.00000

 Dipole moment (field-independent basis, Debye):
    X=             -0.4188    Y=              0.0304    Z=             -0.0000  Tot=              0.4199
 Quadrupole moment (field-independent basis, Debye-Ang):
   XX=             -8.5604   YY=            -25.6791   ZZ=             -7.6620
   XY=             -0.3875   XZ=             -0.0000   YZ=             -0.0000

 MP2-0=-2.1978898\MP4SDQ=-2.2131065\CCSD=-2.2140336\CCSD(T)=-2.2146189\
 Normal termination of Gaussian 16 at Tue Feb 13 12:26:28 2024.
