 Gaussian 16, Revision A.03,
 Gaussian 16:  ES64L-G16RevA.03 25-Dec-2016

 --------------------
 #p ROCCSD(T)/cc-pVTZ
 --------------------

 ---------
 H2_H2_182
 ---------
 Symbolic Z-matrix:
 Charge = -1 Multiplicity = 2

                         Standard orientation:
 ---------------------------------------------------------------------
 Center     Atomic      Atomic             Coordinates (Angstroms)
 Number     Number       Type             X           Y           Z
 ---------------------------------------------------------------------
      1          1           0       -0.322423   -1.938374    0.000000
      2          1           0        0.412120   -1.848677    0.000000
      3          1           0        0.000000    1.526254    0.000000
      4          1           0       -0.089697    2.260797    0.000000
 ---------------------------------------------------------------------

 SCF Done:  E(ROHF) =  -2.10725436096     A.U. after   24 cycles
 E2 =    -0.7216254023D-01 EUMP2 =    -0.21794169011862D+01
 CCSD(T)
 CCSD(T)= -0.21963740032D+01

 The electronic state is 2-A'.
 Alpha  occ. eigenvalues --   -0.40041  -0.36342   0.15533
 Alpha virt. eigenvalues --    0.31125   0.45927   0.54068   0.81901   0.85309
 Alpha virt. eigenvalues --    0.88851   0.89218   0.92708   0.97604   1.28445
 Alpha virt. eigenvalues --    1.31214   1.31228   1.33528   1.34483   1.34970

 Mulliken charges and spin densities:
               1          2
     1  H   -0.156181   0.107228
     2  H   -0.449680   0.498172
     3  H   -0.162488   0.255323
     4  H   -0.231651   0.139277
 Sum of Mulliken charges =  -1.00000   1.00000

 Dipole moment (field-independent basis, Debye):
    X=             -0.9280    Y=              1.8334    Z=              0.0000  Tot=              2.0549
 Quadrupole moment (field-independent basis, Debye-Ang):
   XX=            -11.0219   YY=            -26.3143   ZZ=             -7.6773
   XY=              0.9284   XZ=              0.0000   YZ=              0.0000

 4SDQ=-2.1947763\CCSD=-2.1957258\CCSD(T)=-2.196374\RMSD=3.950e-11\PG=CS
 Normal termination of Gaussian 16 at Tue Feb 13 12:27:06 2024.
