 Gaussian 16, Revision A.03,
 Gaussian 16:  ES64L-G16RevA.03 25-Dec-2016

 --------------------
 #p ROCCSD(T)/cc-pVTZ
 --------------------

 ---------
 H2_H2_248
 ---------
 Symbolic Z-matrix:
 Charge = -1 Multiplicity = 2

                         Standard orientation:
 ---------------------------------------------------------------------
 Center     Atomic      Atomic             Coordinates (Angstroms)
 Number     Number       Type             X           Y           Z
 ---------------------------------------------------------------------
      1          1           0       -0.333497   -2.366945    0.000000
      2          1           0        0.403211   -2.297231    0.000000
      3          1           0        0.000000    1.963734    0.000000
      4          1           0       -0.069714    2.700443    0.000000
 ---------------------------------------------------------------------

 SCF Done:  E(ROHF) =  -2.10614028607     A.U. after   18 cycles
 E2 =    -0.7112960605D-01 EUMP2 =    -0.21772698921264D+01
 CCSD(T)
 CCSD(T)= -0.21943574635D+01

 The electronic state is 2-A'.
 Alpha  occ. eigenvalues --   -0.45410  -0.33265   0.15609
 Alpha virt. eigenvalues --    0.28658   0.43496   0.52899   0.77873   0.83147
 Alpha virt. eigenvalues --    0.83305   0.89469   0.96051   0.96053   1.23769
 Alpha virt. eigenvalues --    1.25775   1.26151   1.34993   1.37539   1.37546

 Mulliken charges and spin densities:
               1          2
     1  H   -0.010176  -0.013145
     2  H   -0.110261   0.133351
     3  H   -0.451097   0.482244
     4  H   -0.428466   0.397550
 Sum of Mulliken charges =  -1.00000   1.00000

 Dipole moment (field-independent basis, Debye):
    X=             -0.2469    Y=             -8.3319    Z=              0.0000  Tot=              8.3356
 Quadrupole moment (field-independent basis, Debye-Ang):
   XX=             -7.7889   YY=            -38.2786   ZZ=             -7.7057
   XY=              1.4352   XZ=              0.0000   YZ=              0.0000

 P4SDQ=-2.1924603\CCSD=-2.1937781\CCSD(T)=-2.1943575\RMSD=2.676e-09\PG=
 Normal termination of Gaussian 16 at Tue Feb 13 12:31:21 2024.
