 Gaussian 16, Revision A.03,
 Gaussian 16:  ES64L-G16RevA.03 25-Dec-2016

 --------------------
 #p ROCCSD(T)/cc-pVTZ
 --------------------

 ---------
 H2_H2_169
 ---------
 Symbolic Z-matrix:
 Charge = -1 Multiplicity = 2

                         Standard orientation:
 ---------------------------------------------------------------------
 Center     Atomic      Atomic             Coordinates (Angstroms)
 Number     Number       Type             X           Y           Z
 ---------------------------------------------------------------------
      1          1           0       -0.208135   -2.222488    0.000000
      2          1           0        0.269744   -1.657482    0.000000
      3          1           0        0.000000    1.571270   -0.000000
      4          1           0       -0.061608    2.308701   -0.000000
 ---------------------------------------------------------------------

 SCF Done:  E(ROHF) =  -2.12621353148     A.U. after   13 cycles
 E2 =    -0.7150678727D-01 EUMP2 =    -0.21977203187514D+01
 CCSD(T)
 CCSD(T)= -0.22144603670D+01

 The electronic state is 2-A'.
 Alpha  occ. eigenvalues --   -0.38143  -0.37232   0.13461
 Alpha virt. eigenvalues --    0.34032   0.46715   0.55408   0.84942   0.86457
 Alpha virt. eigenvalues --    0.91069   0.91147   0.91481   0.94741   1.30632
 Alpha virt. eigenvalues --    1.31750   1.32974   1.33526   1.34038   1.35584

 Mulliken charges and spin densities:
               1          2
     1  H   -0.198880   0.074158
     2  H   -0.306326   0.430737
     3  H   -0.264103   0.400115
     4  H   -0.230690   0.094990
 Sum of Mulliken charges =  -1.00000   1.00000

 Dipole moment (field-independent basis, Debye):
    X=             -0.4168    Y=              0.0509    Z=             -0.0000  Tot=              0.4199
 Quadrupole moment (field-independent basis, Debye-Ang):
   XX=             -8.5506   YY=            -25.4130   ZZ=             -7.6567
   XY=             -0.4012   XZ=             -0.0000   YZ=              0.0000

 \PMP2-0=-2.1977203\MP4SDQ=-2.2129457\CCSD=-2.2138707\CCSD(T)=-2.214460
 Normal termination of Gaussian 16 at Tue Feb 13 12:26:16 2024.
