 Gaussian 16, Revision A.03,
 Gaussian 16:  ES64L-G16RevA.03 25-Dec-2016

 --------------------
 #p ROCCSD(T)/cc-pVTZ
 --------------------

 --------
 H2_H2_46
 --------
 Symbolic Z-matrix:
 Charge = -1 Multiplicity = 2

                         Standard orientation:
 ---------------------------------------------------------------------
 Center     Atomic      Atomic             Coordinates (Angstroms)
 Number     Number       Type             X           Y           Z
 ---------------------------------------------------------------------
      1          1           0       -0.148575   -1.424532   -0.000000
      2          1           0        0.276418   -0.818742   -0.000000
      3          1           0       -0.000000    0.757200    0.000000
      4          1           0       -0.127843    1.486073    0.000000
 ---------------------------------------------------------------------

 SCF Done:  E(ROHF) =  -2.09995440954     A.U. after   15 cycles
 E2 =    -0.7794484390D-01 EUMP2 =    -0.21778992534447D+01
 CCSD(T)
 CCSD(T)= -0.21953925484D+01

 The electronic state is 2-A'.
 Alpha  occ. eigenvalues --   -0.40564  -0.30748   0.15050
 Alpha virt. eigenvalues --    0.37309   0.52644   0.59724   0.78460   0.87392
 Alpha virt. eigenvalues --    0.89806   0.93821   0.98266   1.04944   1.25104
 Alpha virt. eigenvalues --    1.26944   1.38664   1.50984   1.54920   1.74512

 Mulliken charges and spin densities:
               1          2
     1  H   -0.499982   0.503587
     2  H   -0.244426   0.254090
     3  H    0.036429   0.106783
     4  H   -0.292021   0.135540
 Sum of Mulliken charges =  -1.00000   1.00000

 Dipole moment (field-independent basis, Debye):
    X=              0.3619    Y=              2.6007    Z=              0.0000  Tot=              2.6257
 Quadrupole moment (field-independent basis, Debye-Ang):
   XX=             -9.1032   YY=            -21.4624   ZZ=             -7.4861
   XY=             -1.5091   XZ=             -0.0000   YZ=             -0.0000

 P2-0=-2.1778993\MP4SDQ=-2.1934412\CCSD=-2.1942798\CCSD(T)=-2.1953925\R
 Normal termination of Gaussian 16 at Tue Feb 13 12:18:29 2024.
