 Gaussian 16, Revision A.03,
 Gaussian 16:  ES64L-G16RevA.03 25-Dec-2016

 --------------------
 #p ROCCSD(T)/cc-pVTZ
 --------------------

 ---------
 H2_H2_206
 ---------
 Symbolic Z-matrix:
 Charge = -1 Multiplicity = 2

                         Standard orientation:
 ---------------------------------------------------------------------
 Center     Atomic      Atomic             Coordinates (Angstroms)
 Number     Number       Type             X           Y           Z
 ---------------------------------------------------------------------
      1          1           0       -0.327145   -2.093568    0.000000
      2          1           0        0.408382   -2.012330    0.000000
      3          1           0        0.000000    1.685185    0.000000
      4          1           0       -0.081237    2.420713    0.000000
 ---------------------------------------------------------------------

 SCF Done:  E(ROHF) =  -2.10756168208     A.U. after   16 cycles
 E2 =    -0.7165836982D-01 EUMP2 =    -0.21792200518951D+01
 CCSD(T)
 CCSD(T)= -0.21962295796D+01

 The electronic state is 2-A'.
 Alpha  occ. eigenvalues --   -0.41952  -0.34918   0.15491
 Alpha virt. eigenvalues --    0.30355   0.45432   0.53280   0.80895   0.83693
 Alpha virt. eigenvalues --    0.86838   0.92646   0.94266   0.94307   1.27297
 Alpha virt. eigenvalues --    1.29097   1.29595   1.33676   1.35995   1.36069

 Mulliken charges and spin densities:
               1          2
     1  H   -0.019135  -0.021749
     2  H   -0.224361   0.264438
     3  H   -0.386342   0.449099
     4  H   -0.370162   0.308213
 Sum of Mulliken charges =  -1.00000   1.00000

 Dipole moment (field-independent basis, Debye):
    X=             -0.5823    Y=             -4.9075    Z=              0.0000  Tot=              4.9419
 Quadrupole moment (field-independent basis, Debye-Ang):
   XX=             -8.5321   YY=            -31.1003   ZZ=             -7.7013
   XY=              1.4838   XZ=              0.0000   YZ=              0.0000

 P4SDQ=-2.1944948\CCSD=-2.1956186\CCSD(T)=-2.1962296\RMSD=3.366e-10\PG=
 Normal termination of Gaussian 16 at Tue Feb 13 12:28:39 2024.
