 Gaussian 16, Revision A.03,
 Gaussian 16:  ES64L-G16RevA.03 25-Dec-2016

 --------------------
 #p ROCCSD(T)/cc-pVTZ
 --------------------

 ---------
 H2_H2_154
 ---------
 Symbolic Z-matrix:
 Charge = -1 Multiplicity = 2

                         Standard orientation:
 ---------------------------------------------------------------------
 Center     Atomic      Atomic             Coordinates (Angstroms)
 Number     Number       Type             X           Y           Z
 ---------------------------------------------------------------------
      1          1           0       -0.204448   -2.124026   -0.000000
      2          1           0        0.270227   -1.556326   -0.000000
      3          1           0       -0.000000    1.471641    0.000000
      4          1           0       -0.065779    2.208711    0.000000
 ---------------------------------------------------------------------

 SCF Done:  E(ROHF) =  -2.12454989455     A.U. after   13 cycles
 E2 =    -0.7193141667D-01 EUMP2 =    -0.21964813112259D+01
 CCSD(T)
 CCSD(T)= -0.22132823423D+01

 The electronic state is 2-A'.
 Alpha  occ. eigenvalues --   -0.37861  -0.36634   0.13574
 Alpha virt. eigenvalues --    0.34549   0.47126   0.56597   0.84293   0.87693
 Alpha virt. eigenvalues --    0.91394   0.91559   0.92077   0.96067   1.30170
 Alpha virt. eigenvalues --    1.31458   1.32967   1.34103   1.34900   1.37713

 Mulliken charges and spin densities:
               1          2
     1  H   -0.208611   0.079518
     2  H   -0.305702   0.434343
     3  H   -0.247269   0.392273
     4  H   -0.238417   0.093866
 Sum of Mulliken charges =  -1.00000   1.00000

 Dipole moment (field-independent basis, Debye):
    X=             -0.4006    Y=              0.1840    Z=              0.0000  Tot=              0.4409
 Quadrupole moment (field-independent basis, Debye-Ang):
   XX=             -8.5149   YY=            -24.2754   ZZ=             -7.6312
   XY=             -0.4831   XZ=              0.0000   YZ=             -0.0000

 \PMP2-0=-2.1964813\MP4SDQ=-2.2117573\CCSD=-2.2126652\CCSD(T)=-2.213282
 Normal termination of Gaussian 16 at Tue Feb 13 12:25:20 2024.
