 Gaussian 16, Revision A.03,
 Gaussian 16:  ES64L-G16RevA.03 25-Dec-2016

 --------------------
 #p ROCCSD(T)/cc-pVTZ
 --------------------

 ---------
 H2_H2_150
 ---------
 Symbolic Z-matrix:
 Charge = -1 Multiplicity = 2

                         Standard orientation:
 ---------------------------------------------------------------------
 Center     Atomic      Atomic             Coordinates (Angstroms)
 Number     Number       Type             X           Y           Z
 ---------------------------------------------------------------------
      1          1           0        0.000000    0.000000    2.240000
      2          1           0        0.000000    0.000000    1.500000
      3          1           0        0.000000    0.000000   -1.500000
      4          1           0        0.000000    0.000000   -2.240000
 ---------------------------------------------------------------------

 SCF Done:  E(ROHF) =  -2.13087294182     A.U. after   10 cycles
 E2 =    -0.7170037165D-01 EUMP2 =    -0.22025733134712D+01
 CCSD(T)
 CCSD(T)= -0.22193174461D+01

 The electronic state is 2-SGG.
 Alpha  occ. eigenvalues --   -0.37739  -0.36603   0.12846
 Alpha virt. eigenvalues --    0.35775   0.47245   0.58197   0.88502   0.88986
 Alpha virt. eigenvalues --    0.91637   0.91637   0.91998   0.91998   1.30151
 Alpha virt. eigenvalues --    1.32981   1.32981   1.34921   1.35255   1.35255

 Mulliken charges and spin densities:
               1          2
     1  H   -0.235406   0.077937
     2  H   -0.264594   0.422063
     3  H   -0.264594   0.422063
     4  H   -0.235406   0.077937
 Sum of Mulliken charges =  -1.00000   1.00000

 Dipole moment (field-independent basis, Debye):
    X=             -0.0000    Y=              0.0000    Z=              0.0000  Tot=              0.0000
 Quadrupole moment (field-independent basis, Debye-Ang):
   XX=             -7.6314   YY=             -7.6314   ZZ=            -24.7551
   XY=              0.0000   XZ=              0.0000   YZ=             -0.0000

 4SDQ=-2.2177918\CCSD=-2.2187162\CCSD(T)=-2.2193174\RMSD=5.228e-09\PG=D
 Normal termination of Gaussian 16 at Tue Feb 13 12:25:05 2024.
