 Gaussian 16, Revision A.03,
 Gaussian 16:  ES64L-G16RevA.03 25-Dec-2016

 --------------------
 #p ROCCSD(T)/cc-pVTZ
 --------------------

 ---------
 H2_H2_255
 ---------
 Symbolic Z-matrix:
 Charge = -1 Multiplicity = 2

                         Standard orientation:
 ---------------------------------------------------------------------
 Center     Atomic      Atomic             Coordinates (Angstroms)
 Number     Number       Type             X           Y           Z
 ---------------------------------------------------------------------
      1          1           0        0.000000    0.000000    2.940000
      2          1           0        0.000000    0.000000    2.200000
      3          1           0        0.000000    0.000000   -2.200000
      4          1           0        0.000000    0.000000   -2.940000
 ---------------------------------------------------------------------

 SCF Done:  E(ROHF) =  -2.12448360005     A.U. after   10 cycles
 E2 =    -0.7106056201D-01 EUMP2 =    -0.21955441620545D+01
 CCSD(T)
 CCSD(T)= -0.22120913957D+01

 The electronic state is 2-SGG.
 Alpha  occ. eigenvalues --   -0.40084  -0.39821   0.13863
 Alpha virt. eigenvalues --    0.30364   0.45765   0.49429   0.80664   0.87140
 Alpha virt. eigenvalues --    0.88980   0.88980   0.88994   0.88994   1.28790
 Alpha virt. eigenvalues --    1.29128   1.31193   1.31193   1.31296   1.31296

 Mulliken charges and spin densities:
               1          2
     1  H   -0.222485   0.142365
     2  H   -0.277515   0.357635
     3  H   -0.277515   0.357635
     4  H   -0.222485   0.142365
 Sum of Mulliken charges =  -1.00000   1.00000

 Dipole moment (field-independent basis, Debye):
    X=             -0.0000    Y=             -0.0000    Z=             -0.0000  Tot=              0.0000
 Quadrupole moment (field-independent basis, Debye-Ang):
   XX=             -7.7567   YY=             -7.7567   ZZ=            -39.8689
   XY=              0.0000   XZ=              0.0000   YZ=             -0.0000

 P4SDQ=-2.2106336\CCSD=-2.2115288\CCSD(T)=-2.2120914\RMSD=2.529e-09\PG=
 Normal termination of Gaussian 16 at Tue Feb 13 12:31:48 2024.
