 Gaussian 16, Revision A.03,
 Gaussian 16:  ES64L-G16RevA.03 25-Dec-2016

 --------------------
 #p ROCCSD(T)/cc-pVTZ
 --------------------

 ---------
 H2_H2_266
 ---------
 Symbolic Z-matrix:
 Charge = -1 Multiplicity = 2

                         Standard orientation:
 ---------------------------------------------------------------------
 Center     Atomic      Atomic             Coordinates (Angstroms)
 Number     Number       Type             X           Y           Z
 ---------------------------------------------------------------------
      1          1           0       -0.335681   -2.484626    0.000000
      2          1           0        0.401396   -2.418911    0.000000
      3          1           0       -0.000000    2.083231    0.000000
      4          1           0       -0.065715    2.820307    0.000000
 ---------------------------------------------------------------------

 SCF Done:  E(ROHF) =  -2.10515746320     A.U. after   20 cycles
 E2 =    -0.7099923625D-01 EUMP2 =    -0.21761566994502D+01
 CCSD(T)
 CCSD(T)= -0.21933116060D+01

 The electronic state is 2-A'.
 Alpha  occ. eigenvalues --   -0.46594  -0.32735   0.15691
 Alpha virt. eigenvalues --    0.27972   0.42671   0.52959   0.76811   0.82107
 Alpha virt. eigenvalues --    0.82259   0.89237   0.96621   0.96621   1.22521
 Alpha virt. eigenvalues --    1.24637   1.24961   1.35460   1.38036   1.38037

 Mulliken charges and spin densities:
               1          2
     1  H   -0.009689  -0.007897
     2  H   -0.076663   0.094123
     3  H   -0.465216   0.486119
     4  H   -0.448432   0.427655
 Sum of Mulliken charges =  -1.00000   1.00000

 Dipole moment (field-independent basis, Debye):
    X=             -0.1336    Y=             -9.5955    Z=              0.0000  Tot=              9.5964
 Quadrupole moment (field-independent basis, Debye-Ang):
   XX=             -7.5970   YY=            -41.5933   ZZ=             -7.6964
   XY=              1.3299   XZ=              0.0000   YZ=              0.0000

 P4SDQ=-2.1913322\CCSD=-2.1927292\CCSD(T)=-2.1933116\RMSD=3.522e-10\PG=
 Normal termination of Gaussian 16 at Tue Feb 13 12:32:27 2024.
