 Gaussian 16, Revision A.03,
 Gaussian 16:  ES64L-G16RevA.03 25-Dec-2016

 --------------------
 #p ROCCSD(T)/cc-pVTZ
 --------------------

 ---------
 H2_H2_215
 ---------
 Symbolic Z-matrix:
 Charge = -1 Multiplicity = 2

                         Standard orientation:
 ---------------------------------------------------------------------
 Center     Atomic      Atomic             Coordinates (Angstroms)
 Number     Number       Type             X           Y           Z
 ---------------------------------------------------------------------
      1          1           0       -0.328684   -2.151980    0.000000
      2          1           0        0.407144   -2.073520    0.000000
      3          1           0        0.000000    1.744835    0.000000
      4          1           0       -0.078460    2.480664    0.000000
 ---------------------------------------------------------------------

 SCF Done:  E(ROHF) =  -2.10747048334     A.U. after   16 cycles
 E2 =    -0.7148659170D-01 EUMP2 =    -0.21789570750391D+01
 CCSD(T)
 CCSD(T)= -0.21959796123D+01

 The electronic state is 2-A'.
 Alpha  occ. eigenvalues --   -0.42865  -0.34408   0.15495
 Alpha virt. eigenvalues --    0.29999   0.45003   0.53168   0.80114   0.83772
 Alpha virt. eigenvalues --    0.85897   0.91605   0.94817   0.94841   1.26419
 Alpha virt. eigenvalues --    1.28219   1.28702   1.34053   1.36475   1.36520

 Mulliken charges and spin densities:
               1          2
     1  H   -0.013680  -0.022766
     2  H   -0.190746   0.226552
     3  H   -0.409256   0.464049
     4  H   -0.386317   0.332165
 Sum of Mulliken charges =  -1.00000   1.00000

 Dipole moment (field-independent basis, Debye):
    X=             -0.4945    Y=             -5.8253    Z=              0.0000  Tot=              5.8463
 Quadrupole moment (field-independent basis, Debye-Ang):
   XX=             -8.2811   YY=            -32.5802   ZZ=             -7.7064
   XY=              1.5079   XZ=              0.0000   YZ=              0.0000

 P4SDQ=-2.1942043\CCSD=-2.1953815\CCSD(T)=-2.1959796\RMSD=1.979e-09\PG=
 Normal termination of Gaussian 16 at Tue Feb 13 12:29:14 2024.
