 Gaussian 16, Revision A.03,
 Gaussian 16:  ES64L-G16RevA.03 25-Dec-2016

 --------------------
 #p ROCCSD(T)/cc-pVTZ
 --------------------

 ---------
 H2_H2_192
 ---------
 Symbolic Z-matrix:
 Charge = -1 Multiplicity = 2

                         Standard orientation:
 ---------------------------------------------------------------------
 Center     Atomic      Atomic             Coordinates (Angstroms)
 Number     Number       Type             X           Y           Z
 ---------------------------------------------------------------------
      1          1           0        0.000000    0.000000    2.520000
      2          1           0        0.000000    0.000000    1.780000
      3          1           0        0.000000    0.000000   -1.780000
      4          1           0        0.000000    0.000000   -2.520000
 ---------------------------------------------------------------------

 SCF Done:  E(ROHF) =  -2.13388100618     A.U. after   10 cycles
 E2 =    -0.7076493301D-01 EUMP2 =    -0.22046459391871D+01
 CCSD(T)
 CCSD(T)= -0.22212409020D+01

 The electronic state is 2-SGG.
 Alpha  occ. eigenvalues --   -0.38743  -0.38162   0.12727
 Alpha virt. eigenvalues --    0.34078   0.46264   0.53830   0.84141   0.89945
 Alpha virt. eigenvalues --    0.90446   0.90446   0.90513   0.90513   1.30000
 Alpha virt. eigenvalues --    1.31792   1.32634   1.32634   1.33071   1.33071

 Mulliken charges and spin densities:
               1          2
     1  H   -0.211713   0.083383
     2  H   -0.288287   0.416617
     3  H   -0.288287   0.416617
     4  H   -0.211713   0.083383
 Sum of Mulliken charges =  -1.00000   1.00000

 Dipole moment (field-independent basis, Debye):
    X=             -0.0000    Y=              0.0000    Z=              0.0000  Tot=              0.0000
 Quadrupole moment (field-independent basis, Debye-Ang):
   XX=             -7.7072   YY=             -7.7072   ZZ=            -28.7849
   XY=              0.0000   XZ=              0.0000   YZ=             -0.0000

 SDQ=-2.2197505\CCSD=-2.2207\CCSD(T)=-2.2212409\RMSD=5.283e-09\PG=D*H [
 Normal termination of Gaussian 16 at Tue Feb 13 12:27:46 2024.
