 Gaussian 16, Revision A.03,
 Gaussian 16:  ES64L-G16RevA.03 25-Dec-2016

 --------------------
 #p ROCCSD(T)/cc-pVTZ
 --------------------

 ---------
 H2_H2_120
 ---------
 Symbolic Z-matrix:
 Charge = -1 Multiplicity = 2

                         Standard orientation:
 ---------------------------------------------------------------------
 Center     Atomic      Atomic             Coordinates (Angstroms)
 Number     Number       Type             X           Y           Z
 ---------------------------------------------------------------------
      1          1           0        0.000000    0.000000    2.040000
      2          1           0        0.000000    0.000000    1.300000
      3          1           0        0.000000    0.000000   -1.300000
      4          1           0        0.000000    0.000000   -2.040000
 ---------------------------------------------------------------------

 SCF Done:  E(ROHF) =  -2.12454689902     A.U. after   10 cycles
 E2 =    -0.7321106263D-01 EUMP2 =    -0.21977579616453D+01
 CCSD(T)
 CCSD(T)= -0.22146799299D+01

 The electronic state is 2-SGG.
 Alpha  occ. eigenvalues --   -0.37311  -0.35361   0.13368
 Alpha virt. eigenvalues --    0.36507   0.48231   0.61908   0.87153   0.91444
 Alpha virt. eigenvalues --    0.92117   0.92117   0.93298   0.93298   1.22498
 Alpha virt. eigenvalues --    1.31560   1.31560   1.38304   1.38304   1.42072

 Mulliken charges and spin densities:
               1          2
     1  H   -0.266099   0.098569
     2  H   -0.233901   0.401431
     3  H   -0.233901   0.401431
     4  H   -0.266099   0.098569
 Sum of Mulliken charges =  -1.00000   1.00000

 Dipole moment (field-independent basis, Debye):
    X=             -0.0000    Y=              0.0000    Z=             -0.0000  Tot=              0.0000
 Quadrupole moment (field-independent basis, Debye-Ang):
   XX=             -7.5856   YY=             -7.5856   ZZ=            -23.4474
   XY=             -0.0000   XZ=              0.0000   YZ=              0.0000

 SDQ=-2.2131307\CCSD=-2.2139807\CCSD(T)=-2.2146799\RMSD=4.100e-09\PG=D*
 Normal termination of Gaussian 16 at Tue Feb 13 12:23:09 2024.
