 Gaussian 16, Revision A.03,
 Gaussian 16:  ES64L-G16RevA.03 25-Dec-2016

 --------------------
 #p ROCCSD(T)/cc-pVTZ
 --------------------

 ---------
 H2_H2_226
 ---------
 Symbolic Z-matrix:
 Charge = -1 Multiplicity = 2

                         Standard orientation:
 ---------------------------------------------------------------------
 Center     Atomic      Atomic             Coordinates (Angstroms)
 Number     Number       Type             X           Y           Z
 ---------------------------------------------------------------------
      1          1           0       -0.218672   -2.597963   -0.000000
      2          1           0        0.268309   -2.040784   -0.000000
      3          1           0       -0.000000    1.950207    0.000000
      4          1           0       -0.049637    2.688540    0.000000
 ---------------------------------------------------------------------

 SCF Done:  E(ROHF) =  -2.12472701736     A.U. after   13 cycles
 E2 =    -0.7106417452D-01 EUMP2 =    -0.21957911918803D+01
 CCSD(T)
 CCSD(T)= -0.22124001645D+01

 The electronic state is 2-A'.
 Alpha  occ. eigenvalues --   -0.39435  -0.39087   0.13796
 Alpha virt. eigenvalues --    0.31359   0.45856   0.51138   0.82050   0.86800
 Alpha virt. eigenvalues --    0.89654   0.89661   0.89696   0.90513   1.29206
 Alpha virt. eigenvalues --    1.30025   1.31819   1.31937   1.31992   1.32316

 Mulliken charges and spin densities:
               1          2
     1  H   -0.195970   0.104848
     2  H   -0.299296   0.390392
     3  H   -0.281156   0.376044
     4  H   -0.223578   0.128717
 Sum of Mulliken charges =  -1.00000   1.00000

 Dipole moment (field-independent basis, Debye):
    X=             -0.3769    Y=             -0.1152    Z=              0.0000  Tot=              0.3941
 Quadrupole moment (field-independent basis, Debye-Ang):
   XX=             -8.7930   YY=            -32.7709   ZZ=             -7.7351
   XY=             -0.3060   XZ=              0.0000   YZ=             -0.0000

 MP2-0=-2.1957912\MP4SDQ=-2.2109241\CCSD=-2.2118378\CCSD(T)=-2.2124002\
 Normal termination of Gaussian 16 at Tue Feb 13 12:29:58 2024.
