 Gaussian 16, Revision A.03,
 Gaussian 16:  ES64L-G16RevA.03 25-Dec-2016

 --------------------
 #p ROCCSD(T)/cc-pVTZ
 --------------------

 --------
 H2_H2_40
 --------
 Symbolic Z-matrix:
 Charge = -1 Multiplicity = 2

                         Standard orientation:
 ---------------------------------------------------------------------
 Center     Atomic      Atomic             Coordinates (Angstroms)
 Number     Number       Type             X           Y           Z
 ---------------------------------------------------------------------
      1          1           0       -0.142143   -1.386566   -0.000000
      2          1           0        0.276997   -0.776712   -0.000000
      3          1           0       -0.000000    0.717835    0.000000
      4          1           0       -0.134854    1.445443    0.000000
 ---------------------------------------------------------------------

 SCF Done:  E(ROHF) =  -2.09768271498     A.U. after   15 cycles
 E2 =    -0.7842705940D-01 EUMP2 =    -0.21761097743764D+01
 CCSD(T)
 CCSD(T)= -0.21936240572D+01

 The electronic state is 2-A'.
 Alpha  occ. eigenvalues --   -0.41159  -0.30139   0.15026
 Alpha virt. eigenvalues --    0.37574   0.53036   0.59555   0.77814   0.86904
 Alpha virt. eigenvalues --    0.90414   0.94489   0.98826   1.05887   1.25686
 Alpha virt. eigenvalues --    1.27431   1.41071   1.52811   1.56927   1.76656

 Mulliken charges and spin densities:
               1          2
     1  H   -0.529151   0.546720
     2  H   -0.222277   0.219926
     3  H    0.049909   0.090779
     4  H   -0.298482   0.142575
 Sum of Mulliken charges =  -1.00000   1.00000

 Dipole moment (field-independent basis, Debye):
    X=              0.4613    Y=              2.6307    Z=              0.0000  Tot=              2.6709
 Quadrupole moment (field-independent basis, Debye-Ang):
   XX=             -9.1304   YY=            -21.3047   ZZ=             -7.4695
   XY=             -1.4958   XZ=             -0.0000   YZ=             -0.0000

 PMP2-0=-2.1761098\MP4SDQ=-2.1916256\CCSD=-2.1924636\CCSD(T)=-2.1936241
 Normal termination of Gaussian 16 at Tue Feb 13 12:18:06 2024.
