 Gaussian 16, Revision A.03,
 Gaussian 16:  ES64L-G16RevA.03 25-Dec-2016

 --------------------
 #p ROCCSD(T)/cc-pVTZ
 --------------------

 ---------
 H2_H2_141
 ---------
 Symbolic Z-matrix:
 Charge = -1 Multiplicity = 2

                         Standard orientation:
 ---------------------------------------------------------------------
 Center     Atomic      Atomic             Coordinates (Angstroms)
 Number     Number       Type             X           Y           Z
 ---------------------------------------------------------------------
      1          1           0        0.000000    0.000000    2.180000
      2          1           0        0.000000    0.000000    1.440000
      3          1           0        0.000000    0.000000   -1.440000
      4          1           0        0.000000    0.000000   -2.180000
 ---------------------------------------------------------------------

 SCF Done:  E(ROHF) =  -2.12928155133     A.U. after   10 cycles
 E2 =    -0.7207212826D-01 EUMP2 =    -0.22013536795860D+01
 CCSD(T)
 CCSD(T)= -0.22181454742D+01

 The electronic state is 2-SGG.
 Alpha  occ. eigenvalues --   -0.37568  -0.36239   0.12969
 Alpha virt. eigenvalues --    0.36034   0.47518   0.59265   0.88019   0.90040
 Alpha virt. eigenvalues --    0.91843   0.91843   0.92364   0.92364   1.28344
 Alpha virt. eigenvalues --    1.32764   1.32764   1.35978   1.35978   1.36774

 Mulliken charges and spin densities:
               1          2
     1  H   -0.243715   0.081757
     2  H   -0.256285   0.418243
     3  H   -0.256285   0.418243
     4  H   -0.243715   0.081757
 Sum of Mulliken charges =  -1.00000   1.00000

 Dipole moment (field-independent basis, Debye):
    X=             -0.0000    Y=             -0.0000    Z=              0.0000  Tot=              0.0000
 Quadrupole moment (field-independent basis, Debye-Ang):
   XX=             -7.6163   YY=             -7.6163   ZZ=            -24.2351
   XY=             -0.0000   XZ=              0.0000   YZ=              0.0000

 MP4SDQ=-2.2166123\CCSD=-2.2175204\CCSD(T)=-2.2181455\RMSD=4.802e-09\PG
 Normal termination of Gaussian 16 at Tue Feb 13 12:24:30 2024.
