 Gaussian 16, Revision A.03,
 Gaussian 16:  ES64L-G16RevA.03 25-Dec-2016

 --------------------
 #p ROCCSD(T)/cc-pVTZ
 --------------------

 ---------
 H2_H2_230
 ---------
 Symbolic Z-matrix:
 Charge = -1 Multiplicity = 2

                         Standard orientation:
 ---------------------------------------------------------------------
 Center     Atomic      Atomic             Coordinates (Angstroms)
 Number     Number       Type             X           Y           Z
 ---------------------------------------------------------------------
      1          1           0       -0.331020   -2.249550    0.000000
      2          1           0        0.405248   -2.175322    0.000000
      3          1           0       -0.000000    1.844302    0.000000
      4          1           0       -0.074229    2.580570    0.000000
 ---------------------------------------------------------------------

 SCF Done:  E(ROHF) =  -2.10701591060     A.U. after   18 cycles
 E2 =    -0.7128967836D-01 EUMP2 =    -0.21783055889588D+01
 CCSD(T)
 CCSD(T)= -0.21953463730D+01

 The electronic state is 2-A'.
 Alpha  occ. eigenvalues --   -0.44111  -0.33828   0.15533
 Alpha virt. eigenvalues --    0.29387   0.44316   0.52994   0.79026   0.83681
 Alpha virt. eigenvalues --    0.84625   0.90310   0.95444   0.95453   1.25143
 Alpha virt. eigenvalues --    1.27023   1.27458   1.34515   1.37016   1.37036

 Mulliken charges and spin densities:
               1          2
     1  H   -0.010810  -0.019195
     2  H   -0.149504   0.179097
     3  H   -0.432791   0.476042
     4  H   -0.406896   0.364055
 Sum of Mulliken charges =  -1.00000   1.00000

 Dipole moment (field-independent basis, Debye):
    X=             -0.3736    Y=             -7.0356    Z=              0.0000  Tot=              7.0455
 Quadrupole moment (field-independent basis, Debye-Ang):
   XX=             -8.0150   YY=            -35.1006   ZZ=             -7.7096
   XY=              1.4995   XZ=              0.0000   YZ=              0.0000

 P4SDQ=-2.1935205\CCSD=-2.1947618\CCSD(T)=-2.1953464\RMSD=3.821e-10\PG=
 Normal termination of Gaussian 16 at Tue Feb 13 12:30:12 2024.
