 Gaussian 16, Revision A.03,
 Gaussian 16:  ES64L-G16RevA.03 25-Dec-2016

 --------------------
 #p ROCCSD(T)/cc-pVTZ
 --------------------

 ---------
 H2_H2_205
 ---------
 Symbolic Z-matrix:
 Charge = -1 Multiplicity = 2

                         Standard orientation:
 ---------------------------------------------------------------------
 Center     Atomic      Atomic             Coordinates (Angstroms)
 Number     Number       Type             X           Y           Z
 ---------------------------------------------------------------------
      1          1           0       -0.215310   -2.459428    0.000000
      2          1           0        0.268776   -1.899731    0.000000
      3          1           0       -0.000000    1.810547   -0.000000
      4          1           0       -0.053466    2.548613   -0.000000
 ---------------------------------------------------------------------

 SCF Done:  E(ROHF) =  -2.12671433856     A.U. after   13 cycles
 E2 =    -0.7104572871D-01 EUMP2 =    -0.21977600672711D+01
 CCSD(T)
 CCSD(T)= -0.22143998015D+01

 The electronic state is 2-A'.
 Alpha  occ. eigenvalues --   -0.38967  -0.38489   0.13537
 Alpha virt. eigenvalues --    0.32459   0.46046   0.52588   0.83229   0.86720
 Alpha virt. eigenvalues --    0.90159   0.90174   0.90258   0.91829   1.29499
 Alpha virt. eigenvalues --    1.30964   1.32319   1.32485   1.32600   1.33172

 Mulliken charges and spin densities:
               1          2
     1  H   -0.191378   0.086146
     2  H   -0.304688   0.409839
     3  H   -0.282030   0.392448
     4  H   -0.221903   0.111566
 Sum of Mulliken charges =  -1.00000   1.00000

 Dipole moment (field-independent basis, Debye):
    X=             -0.4107    Y=             -0.0988    Z=             -0.0000  Tot=              0.4224
 Quadrupole moment (field-independent basis, Debye-Ang):
   XX=             -8.6995   YY=            -29.5008   ZZ=             -7.7144
   XY=             -0.2990   XZ=             -0.0000   YZ=              0.0000

 \PMP2-0=-2.1977601\MP4SDQ=-2.212911\CCSD=-2.2138395\CCSD(T)=-2.2143998
 Normal termination of Gaussian 16 at Tue Feb 13 12:28:36 2024.
