 Gaussian 16, Revision A.03,
 Gaussian 16:  ES64L-G16RevA.03 25-Dec-2016

 --------------------
 #p ROCCSD(T)/cc-pVTZ
 --------------------

 ---------
 H2_H2_135
 ---------
 Symbolic Z-matrix:
 Charge = -1 Multiplicity = 2

                         Standard orientation:
 ---------------------------------------------------------------------
 Center     Atomic      Atomic             Coordinates (Angstroms)
 Number     Number       Type             X           Y           Z
 ---------------------------------------------------------------------
      1          1           0        0.000000    0.000000    2.140000
      2          1           0        0.000000    0.000000    1.400000
      3          1           0        0.000000    0.000000   -1.400000
      4          1           0        0.000000    0.000000   -2.140000
 ---------------------------------------------------------------------

 SCF Done:  E(ROHF) =  -2.12806605641     A.U. after   10 cycles
 E2 =    -0.7235816739D-01 EUMP2 =    -0.22004242237963D+01
 CCSD(T)
 CCSD(T)= -0.22172507058D+01

 The electronic state is 2-SGG.
 Alpha  occ. eigenvalues --   -0.37472  -0.35992   0.13068
 Alpha virt. eigenvalues --    0.36188   0.47711   0.60000   0.87721   0.90650
 Alpha virt. eigenvalues --    0.91956   0.91956   0.92619   0.92619   1.26802
 Alpha virt. eigenvalues --    1.32527   1.32527   1.36541   1.36541   1.38156

 Mulliken charges and spin densities:
               1          2
     1  H   -0.249744   0.085393
     2  H   -0.250256   0.414607
     3  H   -0.250256   0.414607
     4  H   -0.249744   0.085393
 Sum of Mulliken charges =  -1.00000   1.00000

 Dipole moment (field-independent basis, Debye):
    X=             -0.0000    Y=             -0.0000    Z=             -0.0000  Tot=              0.0000
 Quadrupole moment (field-independent basis, Debye-Ang):
   XX=             -7.6070   YY=             -7.6070   ZZ=            -23.9505
   XY=             -0.0000   XZ=              0.0000   YZ=              0.0000

 4SDQ=-2.2157127\CCSD=-2.2166072\CCSD(T)=-2.2172507\RMSD=4.367e-09\PG=D
 Normal termination of Gaussian 16 at Tue Feb 13 12:24:06 2024.
