 Gaussian 16, Revision A.03,
 Gaussian 16:  ES64L-G16RevA.03 25-Dec-2016

 --------------------
 #p ROCCSD(T)/cc-pVTZ
 --------------------

 ---------
 H2_H2_276
 ---------
 Symbolic Z-matrix:
 Charge = -1 Multiplicity = 2

                         Standard orientation:
 ---------------------------------------------------------------------
 Center     Atomic      Atomic             Coordinates (Angstroms)
 Number     Number       Type             X           Y           Z
 ---------------------------------------------------------------------
      1          1           0        0.000000    0.000000    3.080000
      2          1           0        0.000000    0.000000    2.340000
      3          1           0        0.000000    0.000000   -2.340000
      4          1           0        0.000000    0.000000   -3.080000
 ---------------------------------------------------------------------

 SCF Done:  E(ROHF) =  -2.11950650370     A.U. after   10 cycles
 E2 =    -0.7135737648D-01 EUMP2 =    -0.21908638801789D+01
 CCSD(T)
 CCSD(T)= -0.22074138222D+01

 The electronic state is 2-SGG.
 Alpha  occ. eigenvalues --   -0.40394  -0.40182   0.14393
 Alpha virt. eigenvalues --    0.29096   0.45777   0.48509   0.80438   0.85798
 Alpha virt. eigenvalues --    0.88660   0.88660   0.88670   0.88670   1.28546
 Alpha virt. eigenvalues --    1.28547   1.30827   1.30827   1.30910   1.30910

 Mulliken charges and spin densities:
               1          2
     1  H   -0.232435   0.165821
     2  H   -0.267565   0.334179
     3  H   -0.267565   0.334179
     4  H   -0.232435   0.165821
 Sum of Mulliken charges =  -1.00000   1.00000

 Dipole moment (field-independent basis, Debye):
    X=             -0.0000    Y=             -0.0000    Z=              0.0000  Tot=              0.0000
 Quadrupole moment (field-independent basis, Debye-Ang):
   XX=             -7.7482   YY=             -7.7482   ZZ=            -44.5232
   XY=              0.0000   XZ=              0.0000   YZ=             -0.0000

 MP4SDQ=-2.2059618\CCSD=-2.2068303\CCSD(T)=-2.2074138\RMSD=1.510e-09\PG
 Normal termination of Gaussian 16 at Tue Feb 13 12:33:05 2024.
