 Gaussian 16, Revision A.03,
 Gaussian 16:  ES64L-G16RevA.03 25-Dec-2016

 --------------------
 #p ROCCSD(T)/cc-pVTZ
 --------------------

 ---------
 H2_H2_257
 ---------
 Symbolic Z-matrix:
 Charge = -1 Multiplicity = 2

                         Standard orientation:
 ---------------------------------------------------------------------
 Center     Atomic      Atomic             Coordinates (Angstroms)
 Number     Number       Type             X           Y           Z
 ---------------------------------------------------------------------
      1          1           0       -0.334622   -2.425753    0.000000
      2          1           0        0.402278   -2.358097    0.000000
      3          1           0        0.000000    2.023475    0.000000
      4          1           0       -0.067656    2.760375    0.000000
 ---------------------------------------------------------------------

 SCF Done:  E(ROHF) =  -2.10564702890     A.U. after   20 cycles
 E2 =    -0.7106268454D-01 EUMP2 =    -0.21767097134389D+01
 CCSD(T)
 CCSD(T)= -0.21938299409D+01

 The electronic state is 2-A'.
 Alpha  occ. eigenvalues --   -0.46016  -0.32997   0.15651
 Alpha virt. eigenvalues --    0.28308   0.43083   0.52911   0.77331   0.82692
 Alpha virt. eigenvalues --    0.82732   0.89296   0.96339   0.96340   1.23129
 Alpha virt. eigenvalues --    1.25193   1.25542   1.35228   1.37790   1.37793

 Mulliken charges and spin densities:
               1          2
     1  H   -0.009990  -0.010343
     2  H   -0.092833   0.112994
     3  H   -0.458497   0.484267
     4  H   -0.438680   0.413082
 Sum of Mulliken charges =  -1.00000   1.00000

 Dipole moment (field-independent basis, Debye):
    X=             -0.1884    Y=             -8.9663    Z=              0.0000  Tot=              8.9683
 Quadrupole moment (field-independent basis, Debye-Ang):
   XX=             -7.6902   YY=            -39.9229   ZZ=             -7.7015
   XY=              1.3864   XZ=              0.0000   YZ=              0.0000

 DQ=-2.1918917\CCSD=-2.1932499\CCSD(T)=-2.1938299\RMSD=9.292e-10\PG=CS
 Normal termination of Gaussian 16 at Tue Feb 13 12:31:54 2024.
