 Gaussian 16, Revision A.03,
 Gaussian 16:  ES64L-G16RevA.03 25-Dec-2016

 --------------------
 #p ROCCSD(T)/cc-pVTZ
 --------------------

 --------
 H2_H2_53
 --------
 Symbolic Z-matrix:
 Charge = -1 Multiplicity = 2

                         Standard orientation:
 ---------------------------------------------------------------------
 Center     Atomic      Atomic             Coordinates (Angstroms)
 Number     Number       Type             X           Y           Z
 ---------------------------------------------------------------------
      1          1           0       -0.255501   -1.137264    0.000000
      2          1           0        0.456639   -0.936125    0.000000
      3          1           0        0.000000    0.680625    0.000000
      4          1           0       -0.201139    1.392765    0.000000
 ---------------------------------------------------------------------

 SCF Done:  E(ROHF) =  -2.10411005478     A.U. after   14 cycles
 E2 =    -0.7519223202D-01 EUMP2 =    -0.21793022868043D+01
 CCSD(T)
 CCSD(T)= -0.21962148770D+01

 The electronic state is 2-A'.
 Alpha  occ. eigenvalues --   -0.41032  -0.29868   0.14347
 Alpha virt. eigenvalues --    0.37541   0.52425   0.56078   0.81796   0.86603
 Alpha virt. eigenvalues --    0.88518   0.91677   0.98964   1.11192   1.25518
 Alpha virt. eigenvalues --    1.34290   1.38094   1.42967   1.58206   1.62705

 Mulliken charges and spin densities:
               1          2
     1  H   -0.501068   0.530838
     2  H   -0.419265   0.407519
     3  H    0.157721   0.024392
     4  H   -0.237388   0.037251
 Sum of Mulliken charges =  -1.00000   1.00000

 Dipole moment (field-independent basis, Debye):
    X=             -0.0227    Y=              3.6659    Z=              0.0000  Tot=              3.6660
 Quadrupole moment (field-independent basis, Debye-Ang):
   XX=            -12.9055   YY=            -14.5568   ZZ=             -7.5762
   XY=             -1.0937   XZ=              0.0000   YZ=              0.0000

 4SDQ=-2.194563\CCSD=-2.195363\CCSD(T)=-2.1962149\RMSD=4.091e-09\PG=CS
 Normal termination of Gaussian 16 at Tue Feb 13 12:18:54 2024.
