 Gaussian 16, Revision A.03,
 Gaussian 16:  ES64L-G16RevA.03 25-Dec-2016

 --------------------
 #p ROCCSD(T)/cc-pVTZ
 --------------------

 ---------
 H2_H2_278
 ---------
 Symbolic Z-matrix:
 Charge = -1 Multiplicity = 2

                         Standard orientation:
 ---------------------------------------------------------------------
 Center     Atomic      Atomic             Coordinates (Angstroms)
 Number     Number       Type             X           Y           Z
 ---------------------------------------------------------------------
      1          1           0       -0.336997   -2.563217    0.000000
      2          1           0        0.400291   -2.499923    0.000000
      3          1           0        0.000000    2.162926    0.000000
      4          1           0       -0.063294    2.900214    0.000000
 ---------------------------------------------------------------------

 SCF Done:  E(ROHF) =  -2.10369313447     A.U. after   28 cycles
 E2 =    -0.7219784525D-01 EUMP2 =    -0.21758909797172D+01
 CCSD(T)
 CCSD(T)= -0.21926747772D+01

 The electronic state is 2-A'.
 Alpha  occ. eigenvalues --   -0.41691  -0.38382   0.15993
 Alpha virt. eigenvalues --    0.27237   0.45373   0.49287   0.81409   0.83823
 Alpha virt. eigenvalues --    0.87231   0.87239   0.90667   0.90899   1.27087
 Alpha virt. eigenvalues --    1.29453   1.29454   1.30164   1.32512   1.32645

 Mulliken charges and spin densities:
               1          2
     1  H   -0.222658   0.198179
     2  H   -0.360647   0.385140
     3  H   -0.185382   0.235194
     4  H   -0.231313   0.181487
 Sum of Mulliken charges =  -1.00000   1.00000

 Dipole moment (field-independent basis, Debye):
    X=             -0.5140    Y=              1.9981    Z=              0.0000  Tot=              2.0631
 Quadrupole moment (field-independent basis, Debye-Ang):
   XX=            -11.0391   YY=            -40.5263   ZZ=             -7.6862
   XY=              1.2519   XZ=              0.0000   YZ=              0.0000

 DQ=-2.191102\CCSD=-2.1920214\CCSD(T)=-2.1926748\RMSD=4.427e-09\PG=CS [
 Normal termination of Gaussian 16 at Tue Feb 13 12:33:12 2024.
