 Gaussian 16, Revision A.03,
 Gaussian 16:  ES64L-G16RevA.03 25-Dec-2016

 --------------------
 #p ROCCSD(T)/cc-pVTZ
 --------------------

 --------
 H2_H2_20
 --------
 Symbolic Z-matrix:
 Charge = -1 Multiplicity = 2

                         Standard orientation:
 ---------------------------------------------------------------------
 Center     Atomic      Atomic             Coordinates (Angstroms)
 Number     Number       Type             X           Y           Z
 ---------------------------------------------------------------------
      1          1           0       -0.195682   -0.957997    0.000000
      2          1           0        0.485292   -0.668387    0.000000
      3          1           0        0.000000    0.472705    0.000000
      4          1           0       -0.289610    1.153679    0.000000
 ---------------------------------------------------------------------

 SCF Done:  E(ROHF) =  -2.08260442853     A.U. after   13 cycles
 E2 =    -0.7969339197D-01 EUMP2 =    -0.21622978205072D+01
 CCSD(T)
 CCSD(T)= -0.21791256446D+01

 The electronic state is 2-A'.
 Alpha  occ. eigenvalues --   -0.45442  -0.24239   0.13331
 Alpha virt. eigenvalues --    0.39542   0.51848   0.59108   0.81147   0.84722
 Alpha virt. eigenvalues --    0.90980   0.95362   1.04408   1.24554   1.31943
 Alpha virt. eigenvalues --    1.34874   1.40007   1.52406   1.73047   1.75815

 Mulliken charges and spin densities:
               1          2
     1  H   -0.561456   0.635739
     2  H   -0.294681   0.275493
     3  H    0.156428   0.017813
     4  H   -0.300291   0.070955
 Sum of Mulliken charges =  -1.00000   1.00000

 Dipole moment (field-independent basis, Debye):
    X=              0.4378    Y=              2.3355    Z=              0.0000  Tot=              2.3762
 Quadrupole moment (field-independent basis, Debye-Ang):
   XX=            -12.2555   YY=            -13.6595   ZZ=             -7.4133
   XY=             -1.1035   XZ=              0.0000   YZ=              0.0000

 4SDQ=-2.1773302\CCSD=-2.1778982\CCSD(T)=-2.1791256\RMSD=3.380e-09\PG=C
 Normal termination of Gaussian 16 at Tue Feb 13 12:16:51 2024.
