 Gaussian 16, Revision A.03,
 Gaussian 16:  ES64L-G16RevA.03 25-Dec-2016

 --------------------
 #p ROCCSD(T)/cc-pVTZ
 --------------------

 ---------
 H2_H2_241
 ---------
 Symbolic Z-matrix:
 Charge = -1 Multiplicity = 2

                         Standard orientation:
 ---------------------------------------------------------------------
 Center     Atomic      Atomic             Coordinates (Angstroms)
 Number     Number       Type             X           Y           Z
 ---------------------------------------------------------------------
      1          1           0       -0.220791   -2.697030   -0.000000
      2          1           0        0.268012   -2.141447   -0.000000
      3          1           0       -0.000000    2.049992    0.000000
      4          1           0       -0.047221    2.788484    0.000000
 ---------------------------------------------------------------------

 SCF Done:  E(ROHF) =  -2.12251144092     A.U. after   13 cycles
 E2 =    -0.7116535111D-01 EUMP2 =    -0.21936767920337D+01
 CCSD(T)
 CCSD(T)= -0.22102726539D+01

 The electronic state is 2-A'.
 Alpha  occ. eigenvalues --   -0.39736  -0.39451   0.14052
 Alpha virt. eigenvalues --    0.30531   0.45796   0.50235   0.81461   0.86495
 Alpha virt. eigenvalues --    0.89330   0.89334   0.89365   0.89821   1.29045
 Alpha virt. eigenvalues --    1.29451   1.31489   1.31579   1.31622   1.31824

 Mulliken charges and spin densities:
               1          2
     1  H   -0.202399   0.121495
     2  H   -0.293405   0.374300
     3  H   -0.277070   0.361323
     4  H   -0.227127   0.142882
 Sum of Mulliken charges =  -1.00000   1.00000

 Dipole moment (field-independent basis, Debye):
    X=             -0.3411    Y=             -0.1050    Z=              0.0000  Tot=              0.3569
 Quadrupole moment (field-independent basis, Debye-Ang):
   XX=             -8.8514   YY=            -35.4557   ZZ=             -7.7417
   XY=             -0.3415   XZ=              0.0000   YZ=             -0.0000

 \PMP2-0=-2.1936768\MP4SDQ=-2.2088042\CCSD=-2.2097028\CCSD(T)=-2.210272
 Normal termination of Gaussian 16 at Tue Feb 13 12:30:54 2024.
