 Gaussian 16, Revision A.03,
 Gaussian 16:  ES64L-G16RevA.03 25-Dec-2016

 --------------------
 #p ROCCSD(T)/cc-pVTZ
 --------------------

 ---------
 H2_H2_239
 ---------
 Symbolic Z-matrix:
 Charge = -1 Multiplicity = 2

                         Standard orientation:
 ---------------------------------------------------------------------
 Center     Atomic      Atomic             Coordinates (Angstroms)
 Number     Number       Type             X           Y           Z
 ---------------------------------------------------------------------
      1          1           0       -0.332299   -2.308209    0.000000
      2          1           0        0.404200   -2.236308    0.000000
      3          1           0        0.000000    1.904009    0.000000
      4          1           0       -0.071901    2.640508    0.000000
 ---------------------------------------------------------------------

 SCF Done:  E(ROHF) =  -2.10660781569     A.U. after   18 cycles
 E2 =    -0.7120332230D-01 EUMP2 =    -0.21778111379906D+01
 CCSD(T)
 CCSD(T)= -0.21948715732D+01

 The electronic state is 2-A'.
 Alpha  occ. eigenvalues --   -0.44778  -0.33539   0.15569
 Alpha virt. eigenvalues --    0.29019   0.43907   0.52927   0.78436   0.83471
 Alpha virt. eigenvalues --    0.83946   0.89797   0.95755   0.95760   1.24439
 Alpha virt. eigenvalues --    1.26382   1.26787   1.34757   1.37284   1.37296

 Mulliken charges and spin densities:
               1          2
     1  H   -0.010366  -0.016175
     2  H   -0.129011   0.155243
     3  H   -0.442730   0.479713
     4  H   -0.417892   0.381219
 Sum of Mulliken charges =  -1.00000   1.00000

 Dipole moment (field-independent basis, Debye):
    X=             -0.3086    Y=             -7.6918    Z=              0.0000  Tot=              7.6980
 Quadrupole moment (field-independent basis, Debye-Ang):
   XX=             -7.8953   YY=            -36.6689   ZZ=             -7.7085
   XY=              1.4737   XZ=              0.0000   YZ=              0.0000

 SDQ=-2.1930123\CCSD=-2.1942909\CCSD(T)=-2.1948716\RMSD=2.534e-11\PG=CS
 Normal termination of Gaussian 16 at Tue Feb 13 12:30:46 2024.
