 Gaussian 16, Revision A.03,
 Gaussian 16:  ES64L-G16RevA.03 25-Dec-2016

 --------------------
 #p ROCCSD(T)/cc-pVTZ
 --------------------

 ---------
 H2_H2_238
 ---------
 Symbolic Z-matrix:
 Charge = -1 Multiplicity = 2

                         Standard orientation:
 ---------------------------------------------------------------------
 Center     Atomic      Atomic             Coordinates (Angstroms)
 Number     Number       Type             X           Y           Z
 ---------------------------------------------------------------------
      1          1           0       -0.220384   -2.677210   -0.000000
      2          1           0        0.268069   -2.121320   -0.000000
      3          1           0       -0.000000    2.030034    0.000000
      4          1           0       -0.047685    2.768496    0.000000
 ---------------------------------------------------------------------

 SCF Done:  E(ROHF) =  -2.12299570524     A.U. after   13 cycles
 E2 =    -0.7114063755D-01 EUMP2 =    -0.21941363427886D+01
 CCSD(T)
 CCSD(T)= -0.22107343757D+01

 The electronic state is 2-A'.
 Alpha  occ. eigenvalues --   -0.39678  -0.39382   0.13997
 Alpha virt. eigenvalues --    0.30698   0.45804   0.50406   0.81562   0.86577
 Alpha virt. eigenvalues --    0.89392   0.89397   0.89427   0.89942   1.29078
 Alpha virt. eigenvalues --    1.29558   1.31552   1.31648   1.31693   1.31914

 Mulliken charges and spin densities:
               1          2
     1  H   -0.200943   0.118014
     2  H   -0.294694   0.377612
     3  H   -0.278064   0.364395
     4  H   -0.226298   0.139979
 Sum of Mulliken charges =  -1.00000   1.00000

 Dipole moment (field-independent basis, Debye):
    X=             -0.3489    Y=             -0.1083    Z=             -0.0000  Tot=              0.3654
 Quadrupole moment (field-independent basis, Debye-Ang):
   XX=             -8.8405   YY=            -34.8982   ZZ=             -7.7409
   XY=             -0.3325   XZ=             -0.0000   YZ=             -0.0000

 \PMP2-0=-2.1941363\MP4SDQ=-2.2092645\CCSD=-2.2101664\CCSD(T)=-2.210734
 Normal termination of Gaussian 16 at Tue Feb 13 12:30:43 2024.
