 Gaussian 16, Revision A.03,
 Gaussian 16:  ES64L-G16RevA.03 25-Dec-2016

 --------------------
 #p ROCCSD(T)/cc-pVTZ
 --------------------

 ---------
 H2_H2_194
 ---------
 Symbolic Z-matrix:
 Charge = -1 Multiplicity = 2

                         Standard orientation:
 ---------------------------------------------------------------------
 Center     Atomic      Atomic             Coordinates (Angstroms)
 Number     Number       Type             X           Y           Z
 ---------------------------------------------------------------------
      1          1           0       -0.324906   -2.015859    0.000000
      2          1           0        0.410166   -1.930599    0.000000
      3          1           0       -0.000000    1.605693    0.000000
      4          1           0       -0.085259    2.340765    0.000000
 ---------------------------------------------------------------------

 SCF Done:  E(ROHF) =  -2.10745730196     A.U. after   17 cycles
 E2 =    -0.7198719948D-01 EUMP2 =    -0.21794445014342D+01
 CCSD(T)
 CCSD(T)= -0.21963910951D+01

 The electronic state is 2-A'.
 Alpha  occ. eigenvalues --   -0.40179  -0.36227   0.15518
 Alpha virt. eigenvalues --    0.30791   0.46021   0.53390   0.82362   0.83398
 Alpha virt. eigenvalues --    0.88694   0.92852   0.92940   0.94437   1.28784
 Alpha virt. eigenvalues --    1.30810   1.31224   1.32860   1.34755   1.34907

 Mulliken charges and spin densities:
               1          2
     1  H   -0.043112  -0.004628
     2  H   -0.297474   0.344236
     3  H   -0.326881   0.403091
     4  H   -0.332533   0.257300
 Sum of Mulliken charges =  -1.00000   1.00000

 Dipole moment (field-independent basis, Debye):
    X=             -0.7433    Y=             -2.9385    Z=              0.0000  Tot=              3.0310
 Quadrupole moment (field-independent basis, Debye-Ang):
   XX=             -9.1868   YY=            -29.0166   ZZ=             -7.6912
   XY=              1.3776   XZ=              0.0000   YZ=              0.0000

 4SDQ=-2.1947704\CCSD=-2.1957584\CCSD(T)=-2.1963911\RMSD=2.145e-09\PG=C
 Normal termination of Gaussian 16 at Tue Feb 13 12:27:53 2024.
