 Gaussian 16, Revision A.03,
 Gaussian 16:  ES64L-G16RevA.03 25-Dec-2016

 --------------------
 #p ROCCSD(T)/cc-pVTZ
 --------------------

 ---------
 H2_H2_133
 ---------
 Symbolic Z-matrix:
 Charge = -1 Multiplicity = 2

                         Standard orientation:
 ---------------------------------------------------------------------
 Center     Atomic      Atomic             Coordinates (Angstroms)
 Number     Number       Type             X           Y           Z
 ---------------------------------------------------------------------
      1          1           0       -0.198345   -1.986520    0.000000
      2          1           0        0.271006   -1.414410   -0.000000
      3          1           0       -0.000000    1.332253    0.000000
      4          1           0       -0.072661    2.068677    0.000000
 ---------------------------------------------------------------------

 SCF Done:  E(ROHF) =  -2.12109792562     A.U. after   13 cycles
 E2 =    -0.7278211279D-01 EUMP2 =    -0.21938800384146D+01
 CCSD(T)
 CCSD(T)= -0.22107822708D+01

 The electronic state is 2-A'.
 Alpha  occ. eigenvalues --   -0.37626  -0.35745   0.13851
 Alpha virt. eigenvalues --    0.35142   0.47825   0.58128   0.83598   0.89260
 Alpha virt. eigenvalues --    0.91668   0.92125   0.92992   0.97659   1.26010
 Alpha virt. eigenvalues --    1.31493   1.32374   1.35457   1.36588   1.42225

 Mulliken charges and spin densities:
               1          2
     1  H   -0.230251   0.101423
     2  H   -0.305773   0.434048
     3  H   -0.212647   0.366985
     4  H   -0.251329   0.097543
 Sum of Mulliken charges =  -1.00000   1.00000

 Dipole moment (field-independent basis, Debye):
    X=             -0.3593    Y=              0.4759    Z=              0.0000  Tot=              0.5963
 Quadrupole moment (field-independent basis, Debye-Ang):
   XX=             -8.5161   YY=            -23.1779   ZZ=             -7.6026
   XY=             -0.6379   XZ=              0.0000   YZ=              0.0000

 MP2-0=-2.19388\MP4SDQ=-2.2092444\CCSD=-2.2101098\CCSD(T)=-2.2107823\RM
 Normal termination of Gaussian 16 at Tue Feb 13 12:23:58 2024.
