 Gaussian 16, Revision A.03,
 Gaussian 16:  ES64L-G16RevA.03 25-Dec-2016

 --------------------
 #p ROCCSD(T)/cc-pVTZ
 --------------------

 ---------
 H2_H2_137
 ---------
 Symbolic Z-matrix:
 Charge = -1 Multiplicity = 2

                         Standard orientation:
 ---------------------------------------------------------------------
 Center     Atomic      Atomic             Coordinates (Angstroms)
 Number     Number       Type             X           Y           Z
 ---------------------------------------------------------------------
      1          1           0       -0.310089   -1.650483    0.000000
      2          1           0        0.421480   -1.539092    0.000000
      3          1           0       -0.000000    1.229004    0.000000
      4          1           0       -0.111391    1.960572    0.000000
 ---------------------------------------------------------------------

 SCF Done:  E(ROHF) =  -2.10747532437     A.U. after   20 cycles
 E2 =    -0.7168981951D-01 EUMP2 =    -0.21791651438816D+01
 CCSD(T)
 CCSD(T)= -0.21961912433D+01

 The electronic state is 2-A'.
 Alpha  occ. eigenvalues --   -0.42610  -0.32611   0.15292
 Alpha virt. eigenvalues --    0.33084   0.46572   0.56317   0.81522   0.85016
 Alpha virt. eigenvalues --    0.86026   0.89961   0.96711   1.03240   1.26426
 Alpha virt. eigenvalues --    1.28462   1.29009   1.38015   1.38149   1.39983

 Mulliken charges and spin densities:
               1          2
     1  H   -0.373262   0.358712
     2  H   -0.527381   0.543945
     3  H    0.048783   0.066632
     4  H   -0.148140   0.030710
 Sum of Mulliken charges =  -1.00000   1.00000

 Dipole moment (field-independent basis, Debye):
    X=             -0.5691    Y=              5.7968    Z=              0.0000  Tot=              5.8247
 Quadrupole moment (field-independent basis, Debye-Ang):
   XX=            -13.0255   YY=            -20.7052   ZZ=             -7.6608
   XY=             -0.3899   XZ=              0.0000   YZ=              0.0000

 SDQ=-2.1944421\CCSD=-2.1956093\CCSD(T)=-2.1961912\RMSD=7.954e-09\PG=CS
 Normal termination of Gaussian 16 at Tue Feb 13 12:24:13 2024.
