 Gaussian 16, Revision A.03,
 Gaussian 16:  ES64L-G16RevA.03 25-Dec-2016

 --------------------
 #p ROCCSD(T)/cc-pVTZ
 --------------------

 --------
 H2_H2_24
 --------
 Symbolic Z-matrix:
 Charge = -1 Multiplicity = 2

                         Standard orientation:
 ---------------------------------------------------------------------
 Center     Atomic      Atomic             Coordinates (Angstroms)
 Number     Number       Type             X           Y           Z
 ---------------------------------------------------------------------
      1          1           0        0.000000    0.000000    1.400000
      2          1           0        0.000000    0.000000    0.660000
      3          1           0        0.000000    0.000000   -0.660000
      4          1           0        0.000000    0.000000   -1.400000
 ---------------------------------------------------------------------

 SCF Done:  E(ROHF) =  -2.08779436140     A.U. after   12 cycles
 E2 =    -0.8235784995D-01 EUMP2 =    -0.21701522113510D+01
 CCSD(T)
 CCSD(T)= -0.21874345171D+01

 The electronic state is 2-SGG.
 Alpha  occ. eigenvalues --   -0.42959  -0.28887   0.15366
 Alpha virt. eigenvalues --    0.38047   0.54063   0.73656   0.74539   0.86103
 Alpha virt. eigenvalues --    0.86103   0.98486   0.99823   0.99823   1.27226
 Alpha virt. eigenvalues --    1.27226   1.41216   1.68517   1.68517   1.81626

 Mulliken charges and spin densities:
               1          2
     1  H   -0.452720   0.410284
     2  H   -0.047280   0.089716
     3  H   -0.047280   0.089716
     4  H   -0.452720   0.410284
 Sum of Mulliken charges =  -1.00000   1.00000

 Dipole moment (field-independent basis, Debye):
    X=             -0.0000    Y=             -0.0000    Z=             -0.0000  Tot=              0.0000
 Quadrupole moment (field-independent basis, Debye-Ang):
   XX=             -7.3768   YY=             -7.3768   ZZ=            -24.6094
   XY=              0.0000   XZ=              0.0000   YZ=             -0.0000

 P4SDQ=-2.1856572\CCSD=-2.1860005\CCSD(T)=-2.1874345\RMSD=1.110e-09\PG=
 Normal termination of Gaussian 16 at Tue Feb 13 12:17:06 2024.
