 Gaussian 16, Revision A.03,
 Gaussian 16:  ES64L-G16RevA.03 25-Dec-2016

 --------------------
 #p ROCCSD(T)/cc-pVTZ
 --------------------

 ---------
 H2_H2_118
 ---------
 Symbolic Z-matrix:
 Charge = -1 Multiplicity = 2

                         Standard orientation:
 ---------------------------------------------------------------------
 Center     Atomic      Atomic             Coordinates (Angstroms)
 Number     Number       Type             X           Y           Z
 ---------------------------------------------------------------------
      1          1           0       -0.193128   -1.888601   -0.000000
      2          1           0        0.271652   -1.312771   -0.000000
      3          1           0        0.000000    1.232775    0.000000
      4          1           0       -0.078524    1.968597    0.000000
 ---------------------------------------------------------------------

 SCF Done:  E(ROHF) =  -2.11807721281     A.U. after   13 cycles
 E2 =    -0.7355578336D-01 EUMP2 =    -0.21916329961691D+01
 CCSD(T)
 CCSD(T)= -0.22086172114D+01

 The electronic state is 2-A'.
 Alpha  occ. eigenvalues --   -0.37626  -0.35078   0.14109
 Alpha virt. eigenvalues --    0.35488   0.48412   0.59035   0.83562   0.89581
 Alpha virt. eigenvalues --    0.91639   0.92443   0.93706   0.98262   1.22638
 Alpha virt. eigenvalues --    1.30827   1.31397   1.36937   1.38295   1.46413

 Mulliken charges and spin densities:
               1          2
     1  H   -0.253042   0.130735
     2  H   -0.307052   0.429026
     3  H   -0.179631   0.337460
     4  H   -0.260275   0.102779
 Sum of Mulliken charges =  -1.00000   1.00000

 Dipole moment (field-independent basis, Debye):
    X=             -0.3135    Y=              0.7766    Z=              0.0000  Tot=              0.8374
 Quadrupole moment (field-independent basis, Debye-Ang):
   XX=             -8.5634   YY=            -22.6888   ZZ=             -7.5897
   XY=             -0.7802   XZ=             -0.0000   YZ=             -0.0000

 MP2-0=-2.191633\MP4SDQ=-2.2070678\CCSD=-2.2078926\CCSD(T)=-2.2086172\R
 Normal termination of Gaussian 16 at Tue Feb 13 12:23:00 2024.
