 Gaussian 16, Revision A.03,
 Gaussian 16:  ES64L-G16RevA.03 25-Dec-2016

 --------------------
 #p ROCCSD(T)/cc-pVTZ
 --------------------

 --------
 H2_H2_23
 --------
 Symbolic Z-matrix:
 Charge = -1 Multiplicity = 2

                         Standard orientation:
 ---------------------------------------------------------------------
 Center     Atomic      Atomic             Coordinates (Angstroms)
 Number     Number       Type             X           Y           Z
 ---------------------------------------------------------------------
      1          1           0       -0.203391   -0.973284    0.000000
      2          1           0        0.482112   -0.694563    0.000000
      3          1           0       -0.000000    0.491172    0.000000
      4          1           0       -0.278721    1.176675    0.000000
 ---------------------------------------------------------------------

 SCF Done:  E(ROHF) =  -2.08605249544     A.U. after   13 cycles
 E2 =    -0.7916839878D-01 EUMP2 =    -0.21652208942209D+01
 CCSD(T)
 CCSD(T)= -0.21820659080D+01

 The electronic state is 2-A'.
 Alpha  occ. eigenvalues --   -0.44792  -0.24919   0.13458
 Alpha virt. eigenvalues --    0.39375   0.51908   0.58847   0.81260   0.84892
 Alpha virt. eigenvalues --    0.90631   0.94859   1.03790   1.23362   1.31337
 Alpha virt. eigenvalues --    1.34909   1.39719   1.51351   1.71732   1.74739

 Mulliken charges and spin densities:
               1          2
     1  H   -0.555170   0.623357
     2  H   -0.311116   0.292103
     3  H    0.158333   0.018084
     4  H   -0.292048   0.066456
 Sum of Mulliken charges =  -1.00000   1.00000

 Dipole moment (field-independent basis, Debye):
    X=              0.3777    Y=              2.4636    Z=              0.0000  Tot=              2.4924
 Quadrupole moment (field-independent basis, Debye-Ang):
   XX=            -12.3369   YY=            -13.6857   ZZ=             -7.4316
   XY=             -1.1190   XZ=              0.0000   YZ=              0.0000

 SDQ=-2.1802884\CCSD=-2.180881\CCSD(T)=-2.1820659\RMSD=3.716e-09\PG=CS
 Normal termination of Gaussian 16 at Tue Feb 13 12:17:01 2024.
