 Gaussian 16, Revision A.03,
 Gaussian 16:  ES64L-G16RevA.03 25-Dec-2016

 --------------------
 #p ROCCSD(T)/cc-pVTZ
 --------------------

 ---------
 H2_H2_216
 ---------
 Symbolic Z-matrix:
 Charge = -1 Multiplicity = 2

                         Standard orientation:
 ---------------------------------------------------------------------
 Center     Atomic      Atomic             Coordinates (Angstroms)
 Number     Number       Type             X           Y           Z
 ---------------------------------------------------------------------
      1          1           0        0.000000    0.000000    2.680000
      2          1           0        0.000000    0.000000    1.940000
      3          1           0        0.000000    0.000000   -1.940000
      4          1           0        0.000000    0.000000   -2.680000
 ---------------------------------------------------------------------

 SCF Done:  E(ROHF) =  -2.13197762131     A.U. after   10 cycles
 E2 =    -0.7070403811D-01 EUMP2 =    -0.22026816594219D+01
 CCSD(T)
 CCSD(T)= -0.22192408207D+01

 The electronic state is 2-SGG.
 Alpha  occ. eigenvalues --   -0.39319  -0.38903   0.13009
 Alpha virt. eigenvalues --    0.32769   0.45945   0.51840   0.82226   0.89402
 Alpha virt. eigenvalues --    0.89799   0.89799   0.89830   0.89830   1.29239
 Alpha virt. eigenvalues --    1.30736   1.32059   1.32059   1.32266   1.32266

 Mulliken charges and spin densities:
               1          2
     1  H   -0.210323   0.100936
     2  H   -0.289677   0.399064
     3  H   -0.289677   0.399064
     4  H   -0.210323   0.100936
 Sum of Mulliken charges =  -1.00000   1.00000

 Dipole moment (field-independent basis, Debye):
    X=             -0.0000    Y=             -0.0000    Z=             -0.0000  Tot=              0.0000
 Quadrupole moment (field-independent basis, Debye-Ang):
   XX=             -7.7403   YY=             -7.7403   ZZ=            -32.3462
   XY=              0.0000   XZ=              0.0000   YZ=             -0.0000

 MP4SDQ=-2.217766\CCSD=-2.2187035\CCSD(T)=-2.2192408\RMSD=4.759e-09\PG=
 Normal termination of Gaussian 16 at Tue Feb 13 12:29:19 2024.
