 Gaussian 16, Revision A.03,
 Gaussian 16:  ES64L-G16RevA.03 25-Dec-2016

 --------------------
 #p ROCCSD(T)/cc-pVTZ
 --------------------

 --------
 H2_H2_98
 --------
 Symbolic Z-matrix:
 Charge = -1 Multiplicity = 2

                         Standard orientation:
 ---------------------------------------------------------------------
 Center     Atomic      Atomic             Coordinates (Angstroms)
 Number     Number       Type             X           Y           Z
 ---------------------------------------------------------------------
      1          1           0       -0.292880   -1.406368    0.000000
      2          1           0        0.433614   -1.265634    0.000000
      3          1           0        0.000000    0.972754    0.000000
      4          1           0       -0.140734    1.699248    0.000000
 ---------------------------------------------------------------------

 SCF Done:  E(ROHF) =  -2.10811504652     A.U. after   16 cycles
 E2 =    -0.7240608524D-01 EUMP2 =    -0.21805211317577D+01
 CCSD(T)
 CCSD(T)= -0.21974110731D+01

 The electronic state is 2-A'.
 Alpha  occ. eigenvalues --   -0.41228  -0.32158   0.15000
 Alpha virt. eigenvalues --    0.35057   0.49525   0.55797   0.84660   0.85462
 Alpha virt. eigenvalues --    0.87243   0.91195   0.96856   1.00207   1.24020
 Alpha virt. eigenvalues --    1.30981   1.33904   1.38794   1.42374   1.47169

 Mulliken charges and spin densities:
               1          2
     1  H   -0.439199   0.443371
     2  H   -0.494963   0.496273
     3  H    0.108044   0.037289
     4  H   -0.173882   0.023067
 Sum of Mulliken charges =  -1.00000   1.00000

 Dipole moment (field-independent basis, Debye):
    X=             -0.3290    Y=              5.1375    Z=              0.0000  Tot=              5.1481
 Quadrupole moment (field-independent basis, Debye-Ang):
   XX=            -13.1926   YY=            -17.3227   ZZ=             -7.6545
   XY=             -0.8252   XZ=              0.0000   YZ=              0.0000

 DQ=-2.1957998\CCSD=-2.1967984\CCSD(T)=-2.1974111\RMSD=6.806e-10\PG=CS
 Normal termination of Gaussian 16 at Tue Feb 13 12:21:41 2024.
