 Gaussian 16, Revision A.03,
 Gaussian 16:  ES64L-G16RevA.03 25-Dec-2016

 --------------------
 #p ROCCSD(T)/cc-pVTZ
 --------------------

 ---------
 H2_H2_258
 ---------
 Symbolic Z-matrix:
 Charge = -1 Multiplicity = 2

                         Standard orientation:
 ---------------------------------------------------------------------
 Center     Atomic      Atomic             Coordinates (Angstroms)
 Number     Number       Type             X           Y           Z
 ---------------------------------------------------------------------
      1          1           0        0.000000    0.000000    2.960000
      2          1           0        0.000000    0.000000    2.220000
      3          1           0        0.000000    0.000000   -2.220000
      4          1           0        0.000000    0.000000   -2.960000
 ---------------------------------------------------------------------

 SCF Done:  E(ROHF) =  -2.12378137076     A.U. after   10 cycles
 E2 =    -0.7110116415D-01 EUMP2 =    -0.21948825349105D+01
 CCSD(T)
 CCSD(T)= -0.22114300251D+01

 The electronic state is 2-SGG.
 Alpha  occ. eigenvalues --   -0.40132  -0.39878   0.13939
 Alpha virt. eigenvalues --    0.30178   0.45764   0.49283   0.80611   0.86944
 Alpha virt. eigenvalues --    0.88930   0.88930   0.88943   0.88943   1.28757
 Alpha virt. eigenvalues --    1.29033   1.31136   1.31136   1.31236   1.31236

 Mulliken charges and spin densities:
               1          2
     1  H   -0.223855   0.145786
     2  H   -0.276145   0.354214
     3  H   -0.276145   0.354214
     4  H   -0.223855   0.145786
 Sum of Mulliken charges =  -1.00000   1.00000

 Dipole moment (field-independent basis, Debye):
    X=             -0.0000    Y=              0.0000    Z=              0.0000  Tot=              0.0000
 Quadrupole moment (field-independent basis, Debye-Ang):
   XX=             -7.7561   YY=             -7.7561   ZZ=            -40.5155
   XY=              0.0000   XZ=              0.0000   YZ=             -0.0000

 MP4SDQ=-2.2099731\CCSD=-2.2108645\CCSD(T)=-2.21143\RMSD=2.360e-09\PG=D
 Normal termination of Gaussian 16 at Tue Feb 13 12:31:59 2024.
