 Gaussian 16, Revision A.03,
 Gaussian 16:  ES64L-G16RevA.03 25-Dec-2016

 --------------------
 #p ROCCSD(T)/cc-pVTZ
 --------------------

 ---------
 H2_H2_204
 ---------
 Symbolic Z-matrix:
 Charge = -1 Multiplicity = 2

                         Standard orientation:
 ---------------------------------------------------------------------
 Center     Atomic      Atomic             Coordinates (Angstroms)
 Number     Number       Type             X           Y           Z
 ---------------------------------------------------------------------
      1          1           0        0.000000    0.000000    2.600000
      2          1           0        0.000000    0.000000    1.860000
      3          1           0        0.000000    0.000000   -1.860000
      4          1           0        0.000000    0.000000   -2.600000
 ---------------------------------------------------------------------

 SCF Done:  E(ROHF) =  -2.13325237608     A.U. after   10 cycles
 E2 =    -0.7069927901D-01 EUMP2 =    -0.22039516550953D+01
 CCSD(T)
 CCSD(T)= -0.22205249353D+01

 The electronic state is 2-SGG.
 Alpha  occ. eigenvalues --   -0.39038  -0.38549   0.12838
 Alpha virt. eigenvalues --    0.33449   0.46082   0.52787   0.83088   0.89800
 Alpha virt. eigenvalues --    0.90112   0.90112   0.90156   0.90156   1.29515
 Alpha virt. eigenvalues --    1.31301   1.32352   1.32352   1.32644   1.32644

 Mulliken charges and spin densities:
               1          2
     1  H   -0.209961   0.091071
     2  H   -0.290039   0.408929
     3  H   -0.290039   0.408929
     4  H   -0.209961   0.091071
 Sum of Mulliken charges =  -1.00000   1.00000

 Dipole moment (field-independent basis, Debye):
    X=             -0.0000    Y=              0.0000    Z=             -0.0000  Tot=              0.0000
 Quadrupole moment (field-independent basis, Debye-Ang):
   XX=             -7.7256   YY=             -7.7256   ZZ=            -30.4513
   XY=              0.0000   XZ=              0.0000   YZ=             -0.0000

 MP4SDQ=-2.2190428\CCSD=-2.2199882\CCSD(T)=-2.2205249\RMSD=5.124e-09\PG
 Normal termination of Gaussian 16 at Tue Feb 13 12:28:32 2024.
