 Gaussian 16, Revision A.03,
 Gaussian 16:  ES64L-G16RevA.03 25-Dec-2016

 --------------------
 #p ROCCSD(T)/cc-pVTZ
 --------------------

 ---------
 H2_H2_188
 ---------
 Symbolic Z-matrix:
 Charge = -1 Multiplicity = 2

                         Standard orientation:
 ---------------------------------------------------------------------
 Center     Atomic      Atomic             Coordinates (Angstroms)
 Number     Number       Type             X           Y           Z
 ---------------------------------------------------------------------
      1          1           0       -0.323698   -1.977086    0.000000
      2          1           0        0.411120   -1.889664    0.000000
      3          1           0        0.000000    1.565966    0.000000
      4          1           0       -0.087422    2.300784    0.000000
 ---------------------------------------------------------------------

 SCF Done:  E(ROHF) =  -2.10734281082     A.U. after   20 cycles
 E2 =    -0.7217139952D-01 EUMP2 =    -0.21795142103422D+01
 CCSD(T)
 CCSD(T)= -0.21964027367D+01

 The electronic state is 2-A'.
 Alpha  occ. eigenvalues --   -0.38647  -0.37662   0.15539
 Alpha virt. eigenvalues --    0.30968   0.46199   0.53516   0.82849   0.83737
 Alpha virt. eigenvalues --    0.90395   0.91235   0.91382   0.95759   1.29478
 Alpha virt. eigenvalues --    1.31975   1.32352   1.32976   1.33343   1.33683

 Mulliken charges and spin densities:
               1          2
     1  H   -0.081974   0.031206
     2  H   -0.366052   0.415948
     3  H   -0.260648   0.345869
     4  H   -0.291326   0.206978
 Sum of Mulliken charges =  -1.00000   1.00000

 Dipole moment (field-independent basis, Debye):
    X=             -0.8572    Y=             -0.9545    Z=              0.0000  Tot=              1.2829
 Quadrupole moment (field-independent basis, Debye-Ang):
   XX=             -9.9279   YY=            -27.7378   ZZ=             -7.6847
   XY=              1.2269   XZ=              0.0000   YZ=              0.0000

 P4SDQ=-2.1948693\CCSD=-2.1957595\CCSD(T)=-2.1964027\RMSD=1.268e-09\PG=
 Normal termination of Gaussian 16 at Tue Feb 13 12:27:29 2024.
