 Gaussian 16, Revision A.03,
 Gaussian 16:  ES64L-G16RevA.03 25-Dec-2016

 --------------------
 #p ROCCSD(T)/cc-pVTZ
 --------------------

 --------
 H2_H2_22
 --------
 Symbolic Z-matrix:
 Charge = -1 Multiplicity = 2

                         Standard orientation:
 ---------------------------------------------------------------------
 Center     Atomic      Atomic             Coordinates (Angstroms)
 Number     Number       Type             X           Y           Z
 ---------------------------------------------------------------------
      1          1           0       -0.117686   -1.273709    0.000000
      2          1           0        0.278959   -0.648990    0.000000
      3          1           0        0.000000    0.600243   -0.000000
      4          1           0       -0.161273    1.322456   -0.000000
 ---------------------------------------------------------------------

 SCF Done:  E(ROHF) =  -2.08785308517     A.U. after   15 cycles
 E2 =    -0.8030657102D-01 EUMP2 =    -0.21681596561852D+01
 CCSD(T)
 CCSD(T)= -0.21856455299D+01

 The electronic state is 2-A'.
 Alpha  occ. eigenvalues --   -0.43675  -0.27788   0.14779
 Alpha virt. eigenvalues --    0.38543   0.53700   0.59280   0.76277   0.85576
 Alpha virt. eigenvalues --    0.91771   0.97550   1.00820   1.09464   1.28175
 Alpha virt. eigenvalues --    1.29940   1.48581   1.59096   1.63253   1.80420

 Mulliken charges and spin densities:
               1          2
     1  H   -0.617827   0.673055
     2  H   -0.124294   0.089976
     3  H    0.077172   0.059616
     4  H   -0.335052   0.177353
 Sum of Mulliken charges =  -1.00000   1.00000

 Dipole moment (field-independent basis, Debye):
    X=              0.7952    Y=              2.4757    Z=             -0.0000  Tot=              2.6002
 Quadrupole moment (field-independent basis, Debye-Ang):
   XX=             -9.1468   YY=            -20.7810   ZZ=             -7.4163
   XY=             -1.2788   XZ=             -0.0000   YZ=              0.0000

 PMP2-0=-2.1681597\MP4SDQ=-2.1835435\CCSD=-2.1843144\CCSD(T)=-2.1856455
 Normal termination of Gaussian 16 at Tue Feb 13 12:16:58 2024.
