 Gaussian 16, Revision A.03,
 Gaussian 16:  ES64L-G16RevA.03 25-Dec-2016

 --------------------
 #p ROCCSD(T)/cc-pVTZ
 --------------------

 ---------
 H2_H2_110
 ---------
 Symbolic Z-matrix:
 Charge = -1 Multiplicity = 2

                         Standard orientation:
 ---------------------------------------------------------------------
 Center     Atomic      Atomic             Coordinates (Angstroms)
 Number     Number       Type             X           Y           Z
 ---------------------------------------------------------------------
      1          1           0       -0.299124   -1.480735    0.000000
      2          1           0        0.429331   -1.350528    0.000000
      3          1           0        0.000000    1.051404    0.000000
      4          1           0       -0.130207    1.779858    0.000000
 ---------------------------------------------------------------------

 SCF Done:  E(ROHF) =  -2.10797799023     A.U. after   17 cycles
 E2 =    -0.7206168982D-01 EUMP2 =    -0.21800396800449D+01
 CCSD(T)
 CCSD(T)= -0.21969459523D+01

 The electronic state is 2-A'.
 Alpha  occ. eigenvalues --   -0.41710  -0.32288   0.15108
 Alpha virt. eigenvalues --    0.34441   0.48506   0.56064   0.84072   0.85250
 Alpha virt. eigenvalues --    0.86851   0.90879   0.96875   1.00803   1.25131
 Alpha virt. eigenvalues --    1.30200   1.31555   1.38551   1.40468   1.44237

 Mulliken charges and spin densities:
               1          2
     1  H   -0.422558   0.421628
     2  H   -0.507331   0.512383
     3  H    0.091580   0.042871
     4  H   -0.161691   0.023118
 Sum of Mulliken charges =  -1.00000   1.00000

 Dipole moment (field-independent basis, Debye):
    X=             -0.3940    Y=              5.4389    Z=              0.0000  Tot=              5.4531
 Quadrupole moment (field-independent basis, Debye-Ang):
   XX=            -13.1888   YY=            -18.2751   ZZ=             -7.6588
   XY=             -0.7240   XZ=              0.0000   YZ=              0.0000

 SDQ=-2.1953131\CCSD=-2.1963582\CCSD(T)=-2.196946\RMSD=3.450e-09\PG=CS
 Normal termination of Gaussian 16 at Tue Feb 13 12:22:27 2024.
