 Gaussian 16, Revision A.03,
 Gaussian 16:  ES64L-G16RevA.03 25-Dec-2016

 --------------------
 #p ROCCSD(T)/cc-pVTZ
 --------------------

 -------
 H2_H2_9
 -------
 Symbolic Z-matrix:
 Charge = -1 Multiplicity = 2

                         Standard orientation:
 ---------------------------------------------------------------------
 Center     Atomic      Atomic             Coordinates (Angstroms)
 Number     Number       Type             X           Y           Z
 ---------------------------------------------------------------------
      1          1           0        0.000000    0.000000    1.300000
      2          1           0        0.000000    0.000000    0.560000
      3          1           0        0.000000    0.000000   -0.560000
      4          1           0        0.000000    0.000000   -1.300000
 ---------------------------------------------------------------------

 SCF Done:  E(ROHF) =  -2.07479995483     A.U. after   12 cycles
 E2 =    -0.8441455238D-01 EUMP2 =    -0.21592145072088D+01
 CCSD(T)
 CCSD(T)= -0.21763776246D+01

 The electronic state is 2-SGG.
 Alpha  occ. eigenvalues --   -0.46146  -0.26671   0.15153
 Alpha virt. eigenvalues --    0.38835   0.55225   0.73332   0.73583   0.84959
 Alpha virt. eigenvalues --    0.84959   1.01341   1.01341   1.03917   1.30501
 Alpha virt. eigenvalues --    1.30501   1.47610   1.76433   1.76433   1.89193

 Mulliken charges and spin densities:
               1          2
     1  H   -0.538301   0.504484
     2  H    0.038301  -0.004484
     3  H    0.038301  -0.004484
     4  H   -0.538301   0.504484
 Sum of Mulliken charges =  -1.00000   1.00000

 Dipole moment (field-independent basis, Debye):
    X=             -0.0000    Y=              0.0000    Z=             -0.0000  Tot=              0.0000
 Quadrupole moment (field-independent basis, Debye-Ang):
   XX=             -7.3650   YY=             -7.3650   ZZ=            -24.4513
   XY=              0.0000   XZ=              0.0000   YZ=             -0.0000

 2.1745185\CCSD=-2.1747782\CCSD(T)=-2.1763776\RMSD=2.740e-09\PG=D*H [C*
 Normal termination of Gaussian 16 at Tue Feb 13 12:16:14 2024.
