 Gaussian 16, Revision A.03,
 Gaussian 16:  ES64L-G16RevA.03 25-Dec-2016

 --------------------
 #p ROCCSD(T)/cc-pVTZ
 --------------------

 ---------
 H2_H2_175
 ---------
 Symbolic Z-matrix:
 Charge = -1 Multiplicity = 2

                         Standard orientation:
 ---------------------------------------------------------------------
 Center     Atomic      Atomic             Coordinates (Angstroms)
 Number     Number       Type             X           Y           Z
 ---------------------------------------------------------------------
      1          1           0       -0.209481   -2.261921    0.000000
      2          1           0        0.269565   -1.697904    0.000000
      3          1           0        0.000000    1.611135   -0.000000
      4          1           0       -0.060084    2.348691   -0.000000
 ---------------------------------------------------------------------

 SCF Done:  E(ROHF) =  -2.12665270226     A.U. after   13 cycles
 E2 =    -0.7137807375D-01 EUMP2 =    -0.21980307760156D+01
 CCSD(T)
 CCSD(T)= -0.22147494990D+01

 The electronic state is 2-A'.
 Alpha  occ. eigenvalues --   -0.38271  -0.37460   0.13439
 Alpha virt. eigenvalues --    0.33802   0.46572   0.54925   0.85047   0.86131
 Alpha virt. eigenvalues --    0.90924   0.90981   0.91256   0.94216   1.30407
 Alpha virt. eigenvalues --    1.31875   1.32912   1.33337   1.33748   1.34978

 Mulliken charges and spin densities:
               1          2
     1  H   -0.196140   0.073944
     2  H   -0.306513   0.428450
     3  H   -0.269156   0.401195
     4  H   -0.228190   0.096411
 Sum of Mulliken charges =  -1.00000   1.00000

 Dipole moment (field-independent basis, Debye):
    X=             -0.4203    Y=              0.0116    Z=             -0.0000  Tot=              0.4205
 Quadrupole moment (field-independent basis, Debye-Ang):
   XX=             -8.5709   YY=            -25.9586   ZZ=             -7.6673
   XY=             -0.3748   XZ=             -0.0000   YZ=              0.0000

 \PMP2-0=-2.1980308\MP4SDQ=-2.2132393\CCSD=-2.2141682\CCSD(T)=-2.214749
 Normal termination of Gaussian 16 at Tue Feb 13 12:26:39 2024.
