 Gaussian 16, Revision A.03,
 Gaussian 16:  ES64L-G16RevA.03 25-Dec-2016

 --------------------
 #p ROCCSD(T)/cc-pVTZ
 --------------------

 ---------
 H2_H2_113
 ---------
 Symbolic Z-matrix:
 Charge = -1 Multiplicity = 2

                         Standard orientation:
 ---------------------------------------------------------------------
 Center     Atomic      Atomic             Coordinates (Angstroms)
 Number     Number       Type             X           Y           Z
 ---------------------------------------------------------------------
      1          1           0       -0.300533   -1.499443    0.000000
      2          1           0        0.428346   -1.371630    0.000000
      3          1           0        0.000000    1.071098    0.000000
      4          1           0       -0.127813    1.799976    0.000000
 ---------------------------------------------------------------------

 SCF Done:  E(ROHF) =  -2.10792588740     A.U. after   17 cycles
 E2 =    -0.7199448429D-01 EUMP2 =    -0.21799203716869D+01
 CCSD(T)
 CCSD(T)= -0.21968338960D+01

 The electronic state is 2-A'.
 Alpha  occ. eigenvalues --   -0.41831  -0.32315   0.15132
 Alpha virt. eigenvalues --    0.34288   0.48263   0.56122   0.83792   0.85229
 Alpha virt. eigenvalues --    0.86744   0.90791   0.96878   1.01125   1.25420
 Alpha virt. eigenvalues --    1.30028   1.30973   1.38506   1.40108   1.43605

 Mulliken charges and spin densities:
               1          2
     1  H   -0.418089   0.415834
     2  H   -0.510086   0.516177
     3  H    0.087364   0.044596
     4  H   -0.159188   0.023393
 Sum of Mulliken charges =  -1.00000   1.00000

 Dipole moment (field-independent basis, Debye):
    X=             -0.4108    Y=              5.5044    Z=              0.0000  Tot=              5.5197
 Quadrupole moment (field-independent basis, Debye-Ang):
   XX=            -13.1823   YY=            -18.5256   ZZ=             -7.6594
   XY=             -0.6954   XZ=              0.0000   YZ=              0.0000

 P4SDQ=-2.195193\CCSD=-2.1962502\CCSD(T)=-2.1968339\RMSD=7.240e-09\PG=C
 Normal termination of Gaussian 16 at Tue Feb 13 12:22:39 2024.
