 Gaussian 16, Revision A.03,
 Gaussian 16:  ES64L-G16RevA.03 25-Dec-2016

 --------------------
 #p ROCCSD(T)/cc-pVTZ
 --------------------

 --------
 H2_H2_25
 --------
 Symbolic Z-matrix:
 Charge = -1 Multiplicity = 2

                         Standard orientation:
 ---------------------------------------------------------------------
 Center     Atomic      Atomic             Coordinates (Angstroms)
 Number     Number       Type             X           Y           Z
 ---------------------------------------------------------------------
      1          1           0       -0.122419   -1.292399   -0.000000
      2          1           0        0.278609   -0.670485    0.000000
      3          1           0       -0.000000    0.619777    0.000000
      4          1           0       -0.156190    1.343106   -0.000000
 ---------------------------------------------------------------------

 SCF Done:  E(ROHF) =  -2.08993306103     A.U. after   15 cycles
 E2 =    -0.7993938871D-01 EUMP2 =    -0.21698724497433D+01
 CCSD(T)
 CCSD(T)= -0.21873735921D+01

 The electronic state is 2-A'.
 Alpha  occ. eigenvalues --   -0.43162  -0.28242   0.14841
 Alpha virt. eigenvalues --    0.38363   0.53670   0.59282   0.76494   0.85783
 Alpha virt. eigenvalues --    0.91580   0.96945   1.00453   1.08771   1.27693
 Alpha virt. eigenvalues --    1.29419   1.47329   1.57961   1.62184   1.80199

 Mulliken charges and spin densities:
               1          2
     1  H   -0.602948   0.652488
     2  H   -0.144535   0.114956
     3  H    0.073966   0.062724
     4  H   -0.326482   0.169832
 Sum of Mulliken charges =  -1.00000   1.00000

 Dipole moment (field-independent basis, Debye):
    X=              0.7356    Y=              2.5265    Z=              0.0000  Tot=              2.6314
 Quadrupole moment (field-independent basis, Debye-Ang):
   XX=             -9.1514   YY=            -20.8709   ZZ=             -7.4252
   XY=             -1.3357   XZ=             -0.0000   YZ=             -0.0000

 P2-0=-2.1698724\MP4SDQ=-2.1852846\CCSD=-2.186074\CCSD(T)=-2.1873736\RM
 Normal termination of Gaussian 16 at Tue Feb 13 12:17:09 2024.
