 Gaussian 16, Revision A.03,
 Gaussian 16:  ES64L-G16RevA.03 25-Dec-2016

 --------------------
 #p ROCCSD(T)/cc-pVTZ
 --------------------

 -------
 H2_H2_7
 -------
 Symbolic Z-matrix:
 Charge = -1 Multiplicity = 2

                         Standard orientation:
 ---------------------------------------------------------------------
 Center     Atomic      Atomic             Coordinates (Angstroms)
 Number     Number       Type             X           Y           Z
 ---------------------------------------------------------------------
      1          1           0       -0.088403   -1.181050    0.000000
      2          1           0        0.280808   -0.539736    0.000000
      3          1           0       -0.000000    0.503119    0.000000
      4          1           0       -0.192406    1.217667    0.000000
 ---------------------------------------------------------------------

 SCF Done:  E(ROHF) =  -2.07290863240     A.U. after   15 cycles
 E2 =    -0.8251855773D-01 EUMP2 =    -0.21554271901266D+01
 CCSD(T)
 CCSD(T)= -0.21727712364D+01

 The electronic state is 2-A'.
 Alpha  occ. eigenvalues --   -0.46999  -0.25110   0.14318
 Alpha virt. eigenvalues --    0.39538   0.53226   0.59491   0.75429   0.84619
 Alpha virt. eigenvalues --    0.92653   1.01053   1.02840   1.13639   1.30903
 Alpha virt. eigenvalues --    1.33080   1.54412   1.65201   1.68462   1.78757

 Mulliken charges and spin densities:
               1          2
     1  H   -0.692479   0.772140
     2  H    0.009951  -0.062105
     3  H    0.081136   0.061880
     4  H   -0.398608   0.228085
 Sum of Mulliken charges =  -1.00000   1.00000

 Dipole moment (field-independent basis, Debye):
    X=              1.1209    Y=              2.0927    Z=              0.0000  Tot=              2.3740
 Quadrupole moment (field-independent basis, Debye-Ang):
   XX=             -9.0871   YY=            -20.3300   ZZ=             -7.3774
   XY=             -0.8464   XZ=              0.0000   YZ=             -0.0000

 2-0=-2.1554272\MP4SDQ=-2.1706263\CCSD=-2.1712661\CCSD(T)=-2.1727712\RM
 Normal termination of Gaussian 16 at Tue Feb 13 12:16:07 2024.
