 Gaussian 16, Revision A.03,
 Gaussian 16:  ES64L-G16RevA.03 25-Dec-2016

 --------------------
 #p ROCCSD(T)/cc-pVTZ
 --------------------

 ---------
 H2_H2_178
 ---------
 Symbolic Z-matrix:
 Charge = -1 Multiplicity = 2

                         Standard orientation:
 ---------------------------------------------------------------------
 Center     Atomic      Atomic             Coordinates (Angstroms)
 Number     Number       Type             X           Y           Z
 ---------------------------------------------------------------------
      1          1           0       -0.210129   -2.281647    0.000000
      2          1           0        0.269478   -1.718107    0.000000
      3          1           0        0.000000    1.631069   -0.000000
      4          1           0       -0.059349    2.368685   -0.000000
 ---------------------------------------------------------------------

 SCF Done:  E(ROHF) =  -2.12682039839     A.U. after   13 cycles
 E2 =    -0.7132210606D-01 EUMP2 =    -0.21981425044533D+01
 CCSD(T)
 CCSD(T)= -0.22148512545D+01

 The electronic state is 2-A'.
 Alpha  occ. eigenvalues --   -0.38338  -0.37571   0.13433
 Alpha virt. eigenvalues --    0.33682   0.46505   0.54684   0.84993   0.86073
 Alpha virt. eigenvalues --    0.90849   0.90899   0.91146   0.93958   1.30290
 Alpha virt. eigenvalues --    1.31881   1.32871   1.33247   1.33612   1.34720

 Mulliken charges and spin densities:
               1          2
     1  H   -0.195004   0.074207
     2  H   -0.306564   0.427126
     3  H   -0.271345   0.401335
     4  H   -0.227086   0.097331
 Sum of Mulliken charges =  -1.00000   1.00000

 Dipole moment (field-independent basis, Debye):
    X=             -0.4214    Y=             -0.0056    Z=              0.0000  Tot=              0.4214
 Quadrupole moment (field-independent basis, Debye-Ang):
   XX=             -8.5820   YY=            -26.2514   ZZ=             -7.6725
   XY=             -0.3629   XZ=              0.0000   YZ=              0.0000

 \PMP2-0=-2.1981425\MP4SDQ=-2.2133432\CCSD=-2.2142735\CCSD(T)=-2.214851
 Normal termination of Gaussian 16 at Tue Feb 13 12:26:51 2024.
