 Gaussian 16, Revision A.03,
 Gaussian 16:  ES64L-G16RevA.03 25-Dec-2016

 --------------------
 #p ROCCSD(T)/cc-pVTZ
 --------------------

 ---------
 H2_H2_271
 ---------
 Symbolic Z-matrix:
 Charge = -1 Multiplicity = 2

                         Standard orientation:
 ---------------------------------------------------------------------
 Center     Atomic      Atomic             Coordinates (Angstroms)
 Number     Number       Type             X           Y           Z
 ---------------------------------------------------------------------
      1          1           0       -0.224458   -2.895396    0.000000
      2          1           0        0.267489   -2.342595   -0.000000
      3          1           0       -0.000000    2.249621    0.000000
      4          1           0       -0.043031    2.988369    0.000000
 ---------------------------------------------------------------------

 SCF Done:  E(ROHF) =  -2.11705226460     A.U. after   13 cycles
 E2 =    -0.7148500660D-01 EUMP2 =    -0.21885372711992D+01
 CCSD(T)
 CCSD(T)= -0.22051191325D+01

 The electronic state is 2-A'.
 Alpha  occ. eigenvalues --   -0.40245  -0.40022   0.14644
 Alpha virt. eigenvalues --    0.28888   0.45801   0.48781   0.80853   0.85292
 Alpha virt. eigenvalues --    0.88772   0.88773   0.88872   0.89016   1.28590
 Alpha virt. eigenvalues --    1.28681   1.30931   1.30957   1.31024   1.31130

 Mulliken charges and spin densities:
               1          2
     1  H   -0.219829   0.157891
     2  H   -0.278994   0.340934
     3  H   -0.264178   0.329555
     4  H   -0.236999   0.171619
 Sum of Mulliken charges =  -1.00000   1.00000

 Dipole moment (field-independent basis, Debye):
    X=             -0.2525    Y=             -0.0359    Z=              0.0000  Tot=              0.2551
 Quadrupole moment (field-independent basis, Debye-Ang):
   XX=             -8.9367   YY=            -41.4657   ZZ=             -7.7372
   XY=             -0.4752   XZ=              0.0000   YZ=              0.0000

 P2-0=-2.1885373\MP4SDQ=-2.2036622\CCSD=-2.2045264\CCSD(T)=-2.2051191\R
 Normal termination of Gaussian 16 at Tue Feb 13 12:32:45 2024.
