 Gaussian 16, Revision A.03,
 Gaussian 16:  ES64L-G16RevA.03 25-Dec-2016

 --------------------
 #p ROCCSD(T)/cc-pVTZ
 --------------------

 ---------
 H2_H2_233
 ---------
 Symbolic Z-matrix:
 Charge = -1 Multiplicity = 2

                         Standard orientation:
 ---------------------------------------------------------------------
 Center     Atomic      Atomic             Coordinates (Angstroms)
 Number     Number       Type             X           Y           Z
 ---------------------------------------------------------------------
      1          1           0       -0.331455   -2.269094    0.000000
      2          1           0        0.404892   -2.195658    0.000000
      3          1           0       -0.000000    1.864202    0.000000
      4          1           0       -0.073436    2.600549    0.000000
 ---------------------------------------------------------------------

 SCF Done:  E(ROHF) =  -2.10688865638     A.U. after   18 cycles
 E2 =    -0.7125901720D-01 EUMP2 =    -0.21781476735778D+01
 CCSD(T)
 CCSD(T)= -0.21951941505D+01

 The electronic state is 2-A'.
 Alpha  occ. eigenvalues --   -0.44338  -0.33729   0.15544
 Alpha virt. eigenvalues --    0.29264   0.44180   0.52968   0.78826   0.83624
 Alpha virt. eigenvalues --    0.84394   0.90118   0.95551   0.95558   1.24904
 Alpha virt. eigenvalues --    1.26805   1.27230   1.34597   1.37108   1.37124

 Mulliken charges and spin densities:
               1          2
     1  H   -0.010611  -0.018211
     2  H   -0.142433   0.170880
     3  H   -0.436334   0.477448
     4  H   -0.410623   0.369884
 Sum of Mulliken charges =  -1.00000   1.00000

 Dipole moment (field-independent basis, Debye):
    X=             -0.3515    Y=             -7.2573    Z=              0.0000  Tot=              7.2658
 Quadrupole moment (field-independent basis, Debye-Ang):
   XX=             -7.9731   YY=            -35.6185   ZZ=             -7.7095
   XY=              1.4925   XZ=              0.0000   YZ=              0.0000

 P4SDQ=-2.1933576\CCSD=-2.1946112\CCSD(T)=-2.1951942\RMSD=1.617e-10\PG=
 Normal termination of Gaussian 16 at Tue Feb 13 12:30:24 2024.
