 Gaussian 16, Revision A.03,
 Gaussian 16:  ES64L-G16RevA.03 25-Dec-2016

 --------------------
 #p ROCCSD(T)/cc-pVTZ
 --------------------

 ---------
 H2_H2_183
 ---------
 Symbolic Z-matrix:
 Charge = -1 Multiplicity = 2

                         Standard orientation:
 ---------------------------------------------------------------------
 Center     Atomic      Atomic             Coordinates (Angstroms)
 Number     Number       Type             X           Y           Z
 ---------------------------------------------------------------------
      1          1           0        0.000000    0.000000    2.460000
      2          1           0        0.000000    0.000000    1.720000
      3          1           0        0.000000    0.000000   -1.720000
      4          1           0        0.000000    0.000000   -2.460000
 ---------------------------------------------------------------------

 SCF Done:  E(ROHF) =  -2.13390854047     A.U. after   10 cycles
 E2 =    -0.7086681689D-01 EUMP2 =    -0.22047753573567D+01
 CCSD(T)
 CCSD(T)= -0.22213922830D+01

 The electronic state is 2-SGG.
 Alpha  occ. eigenvalues --   -0.38517  -0.37853   0.12686
 Alpha virt. eigenvalues --    0.34509   0.46430   0.54674   0.85051   0.89869
 Alpha virt. eigenvalues --    0.90707   0.90707   0.90801   0.90801   1.30575
 Alpha virt. eigenvalues --    1.32029   1.32819   1.32819   1.33431   1.33431

 Mulliken charges and spin densities:
               1          2
     1  H   -0.214499   0.079252
     2  H   -0.285501   0.420748
     3  H   -0.285501   0.420748
     4  H   -0.214499   0.079252
 Sum of Mulliken charges =  -1.00000   1.00000

 Dipole moment (field-independent basis, Debye):
    X=             -0.0000    Y=             -0.0000    Z=              0.0000  Tot=              0.0000
 Quadrupole moment (field-independent basis, Debye-Ang):
   XX=             -7.6917   YY=             -7.6917   ZZ=            -27.6879
   XY=              0.0000   XZ=              0.0000   YZ=             -0.0000

 MP4SDQ=-2.2198949\CCSD=-2.2208448\CCSD(T)=-2.2213923\RMSD=5.336e-09\PG
 Normal termination of Gaussian 16 at Tue Feb 13 12:27:12 2024.
