 Gaussian 16, Revision A.03,
 Gaussian 16:  ES64L-G16RevA.03 25-Dec-2016

 --------------------
 #p ROCCSD(T)/cc-pVTZ
 --------------------

 ---------
 H2_H2_152
 ---------
 Symbolic Z-matrix:
 Charge = -1 Multiplicity = 2

                         Standard orientation:
 ---------------------------------------------------------------------
 Center     Atomic      Atomic             Coordinates (Angstroms)
 Number     Number       Type             X           Y           Z
 ---------------------------------------------------------------------
      1          1           0       -0.314846   -1.745887    0.000000
      2          1           0        0.417938   -1.642796    0.000000
      3          1           0        0.000000    1.327950    0.000000
      4          1           0       -0.103091    2.060733    0.000000
 ---------------------------------------------------------------------

 SCF Done:  E(ROHF) =  -2.10727971013     A.U. after   22 cycles
 E2 =    -0.7169065325D-01 EUMP2 =    -0.21789703633804D+01
 CCSD(T)
 CCSD(T)= -0.21961002495D+01

 The electronic state is 2-A'.
 Alpha  occ. eigenvalues --   -0.42744  -0.33034   0.15374
 Alpha virt. eigenvalues --    0.32364   0.45846   0.56074   0.80713   0.85108
 Alpha virt. eigenvalues --    0.85927   0.89332   0.96278   1.02689   1.26144
 Alpha virt. eigenvalues --    1.28732   1.28790   1.37036   1.37725   1.38621

 Mulliken charges and spin densities:
               1          2
     1  H   -0.331487   0.307169
     2  H   -0.531019   0.556482
     3  H    0.013996   0.093491
     4  H   -0.151490   0.042858
 Sum of Mulliken charges =  -1.00000   1.00000

 Dipole moment (field-independent basis, Debye):
    X=             -0.6950    Y=              5.6060    Z=              0.0000  Tot=              5.6489
 Quadrupole moment (field-independent basis, Debye-Ang):
   XX=            -12.7774   YY=            -22.2440   ZZ=             -7.6618
   XY=             -0.0963   XZ=              0.0000   YZ=              0.0000

 SDQ=-2.1942633\CCSD=-2.1954956\CCSD(T)=-2.1961002\RMSD=5.486e-09\PG=CS
 Normal termination of Gaussian 16 at Tue Feb 13 12:25:13 2024.
