 Gaussian 16, Revision A.03,
 Gaussian 16:  ES64L-G16RevA.03 25-Dec-2016

 --------------------
 #p ROCCSD(T)/cc-pVTZ
 --------------------

 ---------
 H2_H2_291
 ---------
 Symbolic Z-matrix:
 Charge = -1 Multiplicity = 2

                         Standard orientation:
 ---------------------------------------------------------------------
 Center     Atomic      Atomic             Coordinates (Angstroms)
 Number     Number       Type             X           Y           Z
 ---------------------------------------------------------------------
      1          1           0        0.000000    0.000000    3.180000
      2          1           0        0.000000    0.000000    2.440000
      3          1           0        0.000000    0.000000   -2.440000
      4          1           0        0.000000    0.000000   -3.180000
 ---------------------------------------------------------------------

 SCF Done:  E(ROHF) =  -2.11607374397     A.U. after   10 cycles
 E2 =    -0.7157040240D-01 EUMP2 =    -0.21876441463682D+01
 CCSD(T)
 CCSD(T)= -0.22041960166D+01

 The electronic state is 2-SGG.
 Alpha  occ. eigenvalues --   -0.40579  -0.40395   0.14751
 Alpha virt. eigenvalues --    0.28259   0.45800   0.47982   0.80436   0.84919
 Alpha virt. eigenvalues --    0.88472   0.88472   0.88480   0.88480   1.28237
 Alpha virt. eigenvalues --    1.28356   1.30608   1.30608   1.30680   1.30680

 Mulliken charges and spin densities:
               1          2
     1  H   -0.239437   0.181135
     2  H   -0.260563   0.318865
     3  H   -0.260563   0.318865
     4  H   -0.239437   0.181135
 Sum of Mulliken charges =  -1.00000   1.00000

 Dipole moment (field-independent basis, Debye):
    X=             -0.0000    Y=              0.0000    Z=             -0.0000  Tot=              0.0000
 Quadrupole moment (field-independent basis, Debye-Ang):
   XX=             -7.7378   YY=             -7.7378   ZZ=            -47.9743
   XY=              0.0000   XZ=              0.0000   YZ=             -0.0000

 MP4SDQ=-2.2027471\CCSD=-2.2035975\CCSD(T)=-2.204196\RMSD=1.111e-09\PG=
 Normal termination of Gaussian 16 at Tue Feb 13 12:34:02 2024.
