 Gaussian 16, Revision A.03,
 Gaussian 16:  ES64L-G16RevA.03 25-Dec-2016

 --------------------
 #p ROCCSD(T)/cc-pVTZ
 --------------------

 -------
 H2_H2_0
 -------
 Symbolic Z-matrix:
 Charge = -1 Multiplicity = 2

                         Standard orientation:
 ---------------------------------------------------------------------
 Center     Atomic      Atomic             Coordinates (Angstroms)
 Number     Number       Type             X           Y           Z
 ---------------------------------------------------------------------
      1          1           0        0.000000    0.000000    1.240000
      2          1           0        0.000000    0.000000    0.500000
      3          1           0        0.000000    0.000000   -0.500000
      4          1           0        0.000000    0.000000   -1.240000
 ---------------------------------------------------------------------

 SCF Done:  E(ROHF) =  -2.06279507077     A.U. after   12 cycles
 E2 =    -0.8581874789D-01 EUMP2 =    -0.21486138186599D+01
 CCSD(T)
 CCSD(T)= -0.21656717463D+01

 The electronic state is 2-SGG.
 Alpha  occ. eigenvalues --   -0.48714  -0.25058   0.14859
 Alpha virt. eigenvalues --    0.39509   0.55808   0.71809   0.73003   0.84368
 Alpha virt. eigenvalues --    0.84368   1.02296   1.02296   1.07909   1.33111
 Alpha virt. eigenvalues --    1.33111   1.51724   1.81393   1.81393   1.82095

 Mulliken charges and spin densities:
               1          2
     1  H   -0.616069   0.566112
     2  H    0.116069  -0.066112
     3  H    0.116069  -0.066112
     4  H   -0.616069   0.566112
 Sum of Mulliken charges =  -1.00000   1.00000

 Dipole moment (field-independent basis, Debye):
    X=             -0.0000    Y=              0.0000    Z=             -0.0000  Tot=              0.0000
 Quadrupole moment (field-independent basis, Debye-Ang):
   XX=             -7.3692   YY=             -7.3692   ZZ=            -24.1979
   XY=              0.0000   XZ=              0.0000   YZ=             -0.0000

 DQ=-2.1637626\CCSD=-2.1639737\CCSD(T)=-2.1656717\RMSD=3.131e-09\PG=D*H
 Normal termination of Gaussian 16 at Tue Feb 13 12:15:43 2024.
