 Gaussian 16, Revision A.03,
 Gaussian 16:  ES64L-G16RevA.03 25-Dec-2016

 --------------------
 #p ROCCSD(T)/cc-pVTZ
 --------------------

 ---------
 H2_H2_167
 ---------
 Symbolic Z-matrix:
 Charge = -1 Multiplicity = 2

                         Standard orientation:
 ---------------------------------------------------------------------
 Center     Atomic      Atomic             Coordinates (Angstroms)
 Number     Number       Type             X           Y           Z
 ---------------------------------------------------------------------
      1          1           0       -0.318911   -1.841886    0.000000
      2          1           0        0.414844   -1.745954    0.000000
      3          1           0        0.000000    1.427042    0.000000
      4          1           0       -0.095933    2.160798    0.000000
 ---------------------------------------------------------------------

 SCF Done:  E(ROHF) =  -2.10720045303     A.U. after   23 cycles
 E2 =    -0.7184239432D-01 EUMP2 =    -0.21790428473471D+01
 CCSD(T)
 CCSD(T)= -0.21962134914D+01

 The electronic state is 2-A'.
 Alpha  occ. eigenvalues --   -0.42282  -0.33932   0.15451
 Alpha virt. eigenvalues --    0.31694   0.45517   0.55408   0.80688   0.85574
 Alpha virt. eigenvalues --    0.86451   0.88588   0.95311   1.00805   1.26567
 Alpha virt. eigenvalues --    1.29155   1.29275   1.35844   1.36842   1.37343

 Mulliken charges and spin densities:
               1          2
     1  H   -0.270083   0.234161
     2  H   -0.519319   0.555624
     3  H   -0.041271   0.141931
     4  H   -0.169327   0.068284
 Sum of Mulliken charges =  -1.00000   1.00000

 Dipole moment (field-independent basis, Debye):
    X=             -0.8333    Y=              4.7607    Z=              0.0000  Tot=              4.8331
 Quadrupole moment (field-independent basis, Debye-Ang):
   XX=            -12.2846   YY=            -23.9912   ZZ=             -7.6661
   XY=              0.3154   XZ=              0.0000   YZ=              0.0000

 4SDQ=-2.1943638\CCSD=-2.1955801\CCSD(T)=-2.1962135\RMSD=1.135e-09\PG=C
 Normal termination of Gaussian 16 at Tue Feb 13 12:26:08 2024.
