 Gaussian 16, Revision A.03,
 Gaussian 16:  ES64L-G16RevA.03 25-Dec-2016

 --------------------
 #p ROCCSD(T)/cc-pVTZ
 --------------------

 ---------
 H2_H2_298
 ---------
 Symbolic Z-matrix:
 Charge = -1 Multiplicity = 2

                         Standard orientation:
 ---------------------------------------------------------------------
 Center     Atomic      Atomic             Coordinates (Angstroms)
 Number     Number       Type             X           Y           Z
 ---------------------------------------------------------------------
      1          1           0       -0.227238   -3.074141    0.000000
      2          1           0        0.267085   -2.523465    0.000000
      3          1           0        0.000000    2.429340    0.000000
      4          1           0       -0.039847    3.168266    0.000000
 ---------------------------------------------------------------------

 SCF Done:  E(ROHF) =  -2.11214512719     A.U. after   13 cycles
 E2 =    -0.7179834538D-01 EUMP2 =    -0.21839434725688D+01
 CCSD(T)
 CCSD(T)= -0.22005176497D+01

 The electronic state is 2-A'.
 Alpha  occ. eigenvalues --   -0.40654  -0.40351   0.15156
 Alpha virt. eigenvalues --    0.27558   0.45853   0.47834   0.80750   0.84079
 Alpha virt. eigenvalues --    0.88334   0.88335   0.88602   0.88674   1.28057
 Alpha virt. eigenvalues --    1.28340   1.30471   1.30476   1.30687   1.30761

 Mulliken charges and spin densities:
               1          2
     1  H   -0.236690   0.188782
     2  H   -0.267243   0.315154
     3  H   -0.251003   0.303012
     4  H   -0.245063   0.193053
 Sum of Mulliken charges =  -1.00000   1.00000

 Dipole moment (field-independent basis, Debye):
    X=             -0.1719    Y=              0.0984    Z=              0.0000  Tot=              0.1981
 Quadrupole moment (field-independent basis, Debye-Ang):
   XX=             -8.9828   YY=            -47.2881   ZZ=             -7.7213
   XY=             -0.6363   XZ=              0.0000   YZ=              0.0000

 MP2-0=-2.1839435\MP4SDQ=-2.1990675\CCSD=-2.1999028\CCSD(T)=-2.2005176\
 Normal termination of Gaussian 16 at Tue Feb 13 12:34:27 2024.
