 Gaussian 16, Revision A.03,
 Gaussian 16:  ES64L-G16RevA.03 25-Dec-2016

 --------------------
 #p ROCCSD(T)/cc-pVTZ
 --------------------

 --------
 H2_H2_54
 --------
 Symbolic Z-matrix:
 Charge = -1 Multiplicity = 2

                         Standard orientation:
 ---------------------------------------------------------------------
 Center     Atomic      Atomic             Coordinates (Angstroms)
 Number     Number       Type             X           Y           Z
 ---------------------------------------------------------------------
      1          1           0        0.000000    0.000000    1.600000
      2          1           0        0.000000    0.000000    0.860000
      3          1           0        0.000000    0.000000   -0.860000
      4          1           0        0.000000    0.000000   -1.600000
 ---------------------------------------------------------------------

 SCF Done:  E(ROHF) =  -2.10296337588     A.U. after   12 cycles
 E2 =    -0.7896273566D-01 EUMP2 =    -0.21819261115430D+01
 CCSD(T)
 CCSD(T)= -0.21992295372D+01

 The electronic state is 2-SGG.
 Alpha  occ. eigenvalues --   -0.39250  -0.31867   0.15074
 Alpha virt. eigenvalues --    0.37287   0.51675   0.70634   0.79168   0.88861
 Alpha virt. eigenvalues --    0.88861   0.91183   0.97261   0.97261   1.24971
 Alpha virt. eigenvalues --    1.24971   1.29807   1.55039   1.55039   1.66083

 Mulliken charges and spin densities:
               1          2
     1  H   -0.358711   0.258069
     2  H   -0.141289   0.241931
     3  H   -0.141289   0.241931
     4  H   -0.358711   0.258069
 Sum of Mulliken charges =  -1.00000   1.00000

 Dipole moment (field-independent basis, Debye):
    X=             -0.0000    Y=             -0.0000    Z=             -0.0000  Tot=              0.0000
 Quadrupole moment (field-independent basis, Debye-Ang):
   XX=             -7.4450   YY=             -7.4450   ZZ=            -24.1209
   XY=              0.0000   XZ=              0.0000   YZ=             -0.0000

 P4SDQ=-2.1975888\CCSD=-2.1980947\CCSD(T)=-2.1992295\RMSD=1.060e-09\PG=
 Normal termination of Gaussian 16 at Tue Feb 13 12:18:58 2024.
