 Gaussian 16, Revision A.03,
 Gaussian 16:  ES64L-G16RevA.03 25-Dec-2016

 --------------------
 #p ROCCSD(T)/cc-pVTZ
 --------------------

 ---------
 H2_H2_236
 ---------
 Symbolic Z-matrix:
 Charge = -1 Multiplicity = 2

                         Standard orientation:
 ---------------------------------------------------------------------
 Center     Atomic      Atomic             Coordinates (Angstroms)
 Number     Number       Type             X           Y           Z
 ---------------------------------------------------------------------
      1          1           0       -0.331882   -2.288647    0.000000
      2          1           0        0.404542   -2.215986    0.000000
      3          1           0        0.000000    1.884105    0.000000
      4          1           0       -0.072661    2.620529    0.000000
 ---------------------------------------------------------------------

 SCF Done:  E(ROHF) =  -2.10675218744     A.U. after   18 cycles
 E2 =    -0.7123033766D-01 EUMP2 =    -0.21779825250948D+01
 CCSD(T)
 CCSD(T)= -0.21950355517D+01

 The electronic state is 2-A'.
 Alpha  occ. eigenvalues --   -0.44560  -0.33633   0.15556
 Alpha virt. eigenvalues --    0.29141   0.44044   0.52945   0.78629   0.83554
 Alpha virt. eigenvalues --    0.84168   0.89947   0.95654   0.95660   1.24670
 Alpha virt. eigenvalues --    1.26591   1.27007   1.34677   1.37197   1.37211

 Mulliken charges and spin densities:
               1          2
     1  H   -0.010469  -0.017199
     2  H   -0.135614   0.162941
     3  H   -0.439634   0.478658
     4  H   -0.414284   0.375600
 Sum of Mulliken charges =  -1.00000   1.00000

 Dipole moment (field-independent basis, Debye):
    X=             -0.3298    Y=             -7.4757    Z=              0.0000  Tot=              7.4830
 Quadrupole moment (field-independent basis, Debye-Ang):
   XX=             -7.9333   YY=            -36.1413   ZZ=             -7.7091
   XY=              1.4838   XZ=              0.0000   YZ=              0.0000

 P4SDQ=-2.1931879\CCSD=-2.1944539\CCSD(T)=-2.1950356\RMSD=8.957e-10\PG=
 Normal termination of Gaussian 16 at Tue Feb 13 12:30:35 2024.
