 Gaussian 16, Revision A.03,
 Gaussian 16:  ES64L-G16RevA.03 25-Dec-2016

 --------------------
 #p ROCCSD(T)/cc-pVTZ
 --------------------

 --------
 H2_H2_49
 --------
 Symbolic Z-matrix:
 Charge = -1 Multiplicity = 2

                         Standard orientation:
 ---------------------------------------------------------------------
 Center     Atomic      Atomic             Coordinates (Angstroms)
 Number     Number       Type             X           Y           Z
 ---------------------------------------------------------------------
      1          1           0       -0.151541   -1.443571    0.000000
      2          1           0        0.276141   -0.839677    0.000000
      3          1           0       -0.000000    0.776907   -0.000000
      4          1           0       -0.124600    1.506342   -0.000000
 ---------------------------------------------------------------------

 SCF Done:  E(ROHF) =  -2.10097751249     A.U. after   15 cycles
 E2 =    -0.7772310283D-01 EUMP2 =    -0.21787006153250D+01
 CCSD(T)
 CCSD(T)= -0.21961788721D+01

 The electronic state is 2-A'.
 Alpha  occ. eigenvalues --   -0.40300  -0.31026   0.15053
 Alpha virt. eigenvalues --    0.37187   0.52435   0.59808   0.78810   0.87644
 Alpha virt. eigenvalues --    0.89471   0.93555   0.98003   1.04505   1.24864
 Alpha virt. eigenvalues --    1.26771   1.37499   1.50116   1.53945   1.73349

 Mulliken charges and spin densities:
               1          2
     1  H   -0.485540   0.482035
     2  H   -0.253907   0.269705
     3  H    0.028857   0.115605
     4  H   -0.289411   0.132655
 Sum of Mulliken charges =  -1.00000   1.00000

 Dipole moment (field-independent basis, Debye):
    X=              0.3143    Y=              2.5709    Z=             -0.0000  Tot=              2.5900
 Quadrupole moment (field-independent basis, Debye-Ang):
   XX=             -9.0861   YY=            -21.5362   ZZ=             -7.4941
   XY=             -1.5065   XZ=              0.0000   YZ=              0.0000

 PMP2-0=-2.1787006\MP4SDQ=-2.1942528\CCSD=-2.1950885\CCSD(T)=-2.1961789
 Normal termination of Gaussian 16 at Tue Feb 13 12:18:40 2024.
