 Gaussian 16, Revision A.03,
 Gaussian 16:  ES64L-G16RevA.03 25-Dec-2016

 --------------------
 #p ROCCSD(T)/cc-pVTZ
 --------------------

 ---------
 H2_H2_156
 ---------
 Symbolic Z-matrix:
 Charge = -1 Multiplicity = 2

                         Standard orientation:
 ---------------------------------------------------------------------
 Center     Atomic      Atomic             Coordinates (Angstroms)
 Number     Number       Type             X           Y           Z
 ---------------------------------------------------------------------
      1          1           0        0.000000    0.000000    2.280000
      2          1           0        0.000000    0.000000    1.540000
      3          1           0        0.000000    0.000000   -1.540000
      4          1           0        0.000000    0.000000   -2.280000
 ---------------------------------------------------------------------

 SCF Done:  E(ROHF) =  -2.13176666354     A.U. after   10 cycles
 E2 =    -0.7148925838D-01 EUMP2 =    -0.22032559219171D+01
 CCSD(T)
 CCSD(T)= -0.22199713261D+01

 The electronic state is 2-SGG.
 Alpha  occ. eigenvalues --   -0.37867  -0.36841   0.12782
 Alpha virt. eigenvalues --    0.35582   0.47075   0.57509   0.88242   0.88826
 Alpha virt. eigenvalues --    0.91482   0.91482   0.91764   0.91764   1.30991
 Alpha virt. eigenvalues --    1.33047   1.33047   1.33842   1.34840   1.34840

 Mulliken charges and spin densities:
               1          2
     1  H   -0.230428   0.076436
     2  H   -0.269572   0.423564
     3  H   -0.269572   0.423564
     4  H   -0.230428   0.076436
 Sum of Mulliken charges =  -1.00000   1.00000

 Dipole moment (field-independent basis, Debye):
    X=             -0.0000    Y=             -0.0000    Z=              0.0000  Tot=              0.0000
 Quadrupole moment (field-independent basis, Debye-Ang):
   XX=             -7.6420   YY=             -7.6420   ZZ=            -25.1658
   XY=              0.0000   XZ=              0.0000   YZ=             -0.0000

 MP4SDQ=-2.2184509\CCSD=-2.2193836\CCSD(T)=-2.2199713\RMSD=5.365e-09\PG
 Normal termination of Gaussian 16 at Tue Feb 13 12:25:28 2024.
