 Gaussian 16, Revision A.03,
 Gaussian 16:  ES64L-G16RevA.03 25-Dec-2016

 --------------------
 #p ROCCSD(T)/cc-pVTZ
 --------------------

 -------
 H2_H2_1
 -------
 Symbolic Z-matrix:
 Charge = -1 Multiplicity = 2

                         Standard orientation:
 ---------------------------------------------------------------------
 Center     Atomic      Atomic             Coordinates (Angstroms)
 Number     Number       Type             X           Y           Z
 ---------------------------------------------------------------------
      1          1           0       -0.073205   -1.144351    0.000000
      2          1           0        0.281558   -0.494934    0.000000
      3          1           0        0.000000    0.464611   -0.000000
      4          1           0       -0.208353    1.174674   -0.000000
 ---------------------------------------------------------------------

 SCF Done:  E(ROHF) =  -2.06376843174     A.U. after   15 cycles
 E2 =    -0.8358138545D-01 EUMP2 =    -0.21473498171870D+01
 CCSD(T)
 CCSD(T)= -0.21646091593D+01

 The electronic state is 2-A'.
 Alpha  occ. eigenvalues --   -0.48768  -0.23844   0.14049
 Alpha virt. eigenvalues --    0.39975   0.52763   0.59561   0.75201   0.84271
 Alpha virt. eigenvalues --    0.92999   1.02672   1.03720   1.15665   1.32109
 Alpha virt. eigenvalues --    1.34539   1.56318   1.67635   1.70387   1.77123

 Mulliken charges and spin densities:
               1          2
     1  H   -0.722010   0.809623
     2  H    0.083412  -0.138169
     3  H    0.072864   0.073260
     4  H   -0.434266   0.255287
 Sum of Mulliken charges =  -1.00000   1.00000

 Dipole moment (field-independent basis, Debye):
    X=              1.2651    Y=              1.8920    Z=             -0.0000  Tot=              2.2759
 Quadrupole moment (field-independent basis, Debye-Ang):
   XX=             -9.0537   YY=            -20.1444   ZZ=             -7.3678
   XY=             -0.5954   XZ=              0.0000   YZ=              0.0000

 MP2-0=-2.1473498\MP4SDQ=-2.1624559\CCSD=-2.1630295\CCSD(T)=-2.1646092\
 Normal termination of Gaussian 16 at Tue Feb 13 12:15:46 2024.
