 Gaussian 16, Revision A.03,
 Gaussian 16:  ES64L-G16RevA.03 25-Dec-2016

 --------------------
 #p ROCCSD(T)/cc-pVTZ
 --------------------

 ---------
 H2_H2_249
 ---------
 Symbolic Z-matrix:
 Charge = -1 Multiplicity = 2

                         Standard orientation:
 ---------------------------------------------------------------------
 Center     Atomic      Atomic             Coordinates (Angstroms)
 Number     Number       Type             X           Y           Z
 ---------------------------------------------------------------------
      1          1           0        0.000000    0.000000    2.900000
      2          1           0        0.000000    0.000000    2.160000
      3          1           0        0.000000    0.000000   -2.160000
      4          1           0        0.000000    0.000000   -2.900000
 ---------------------------------------------------------------------

 SCF Done:  E(ROHF) =  -2.12585938142     A.U. after   10 cycles
 E2 =    -0.7098279220D-01 EUMP2 =    -0.21968421736162D+01
 CCSD(T)
 CCSD(T)= -0.22133891668D+01

 The electronic state is 2-SGG.
 Alpha  occ. eigenvalues --   -0.39983  -0.39703   0.13713
 Alpha virt. eigenvalues --    0.30739   0.45772   0.49737   0.80795   0.87530
 Alpha virt. eigenvalues --    0.89086   0.89086   0.89101   0.89101   1.28853
 Alpha virt. eigenvalues --    1.29331   1.31311   1.31311   1.31423   1.31423

 Mulliken charges and spin densities:
               1          2
     1  H   -0.219857   0.135526
     2  H   -0.280143   0.364474
     3  H   -0.280143   0.364474
     4  H   -0.219857   0.135526
 Sum of Mulliken charges =  -1.00000   1.00000

 Dipole moment (field-independent basis, Debye):
    X=             -0.0000    Y=             -0.0000    Z=             -0.0000  Tot=              0.0000
 Quadrupole moment (field-independent basis, Debye-Ang):
   XX=             -7.7573   YY=             -7.7573   ZZ=            -38.5991
   XY=              0.0000   XZ=              0.0000   YZ=             -0.0000

 MP4SDQ=-2.2119293\CCSD=-2.212832\CCSD(T)=-2.2133892\RMSD=2.885e-09\PG=
 Normal termination of Gaussian 16 at Tue Feb 13 12:31:26 2024.
