 Gaussian 16, Revision A.03,
 Gaussian 16:  ES64L-G16RevA.03 25-Dec-2016

 --------------------
 #p ROCCSD(T)/cc-pVTZ
 --------------------

 -------
 H2_H2_5
 -------
 Symbolic Z-matrix:
 Charge = -1 Multiplicity = 2

                         Standard orientation:
 ---------------------------------------------------------------------
 Center     Atomic      Atomic             Coordinates (Angstroms)
 Number     Number       Type             X           Y           Z
 ---------------------------------------------------------------------
      1          1           0       -0.145027   -0.885447    0.000000
      2          1           0        0.502760   -0.527715    0.000000
      3          1           0       -0.000000    0.382688    0.000000
      4          1           0       -0.357733    1.030474    0.000000
 ---------------------------------------------------------------------

 SCF Done:  E(ROHF) =  -2.05743853769     A.U. after   13 cycles
 E2 =    -0.8265285546D-01 EUMP2 =    -0.21400913931492D+01
 CCSD(T)
 CCSD(T)= -0.21567997425D+01

 The electronic state is 2-A'.
 Alpha  occ. eigenvalues --   -0.49718  -0.20340   0.12521
 Alpha virt. eigenvalues --    0.40214   0.51733   0.60055   0.80100   0.83857
 Alpha virt. eigenvalues --    0.93333   0.98415   1.07791   1.29334   1.34470
 Alpha virt. eigenvalues --    1.35380   1.41995   1.57947   1.75641   1.79824

 Mulliken charges and spin densities:
               1          2
     1  H   -0.596698   0.709366
     2  H   -0.185040   0.169930
     3  H    0.136785   0.020764
     4  H   -0.355046   0.099939
 Sum of Mulliken charges =  -1.00000   1.00000

 Dipole moment (field-independent basis, Debye):
    X=              0.8302    Y=              1.6960    Z=              0.0000  Tot=              1.8883
 Quadrupole moment (field-independent basis, Debye-Ang):
   XX=            -11.7810   YY=            -13.7222   ZZ=             -7.3242
   XY=             -0.9060   XZ=              0.0000   YZ=              0.0000

 SDQ=-2.1548971\CCSD=-2.1553394\CCSD(T)=-2.1567997\RMSD=4.376e-09\PG=CS
 Normal termination of Gaussian 16 at Tue Feb 13 12:15:59 2024.
