 Gaussian 16, Revision A.03,
 Gaussian 16:  ES64L-G16RevA.03 25-Dec-2016

 --------------------
 #p ROCCSD(T)/cc-pVTZ
 --------------------

 --------
 H2_H2_21
 --------
 Symbolic Z-matrix:
 Charge = -1 Multiplicity = 2

                         Standard orientation:
 ---------------------------------------------------------------------
 Center     Atomic      Atomic             Coordinates (Angstroms)
 Number     Number       Type             X           Y           Z
 ---------------------------------------------------------------------
      1          1           0        0.000000    0.000000    1.380000
      2          1           0        0.000000    0.000000    0.640000
      3          1           0        0.000000    0.000000   -0.640000
      4          1           0        0.000000    0.000000   -1.380000
 ---------------------------------------------------------------------

 SCF Done:  E(ROHF) =  -2.08566351693     A.U. after   12 cycles
 E2 =    -0.8274363519D-01 EUMP2 =    -0.21684071521136D+01
 CCSD(T)
 CCSD(T)= -0.21856720820D+01

 The electronic state is 2-SGG.
 Alpha  occ. eigenvalues --   -0.43505  -0.28489   0.15348
 Alpha virt. eigenvalues --    0.38178   0.54306   0.73820   0.74235   0.85859
 Alpha virt. eigenvalues --    0.85859   0.99464   1.00116   1.00116   1.27765
 Alpha virt. eigenvalues --    1.27765   1.42454   1.70052   1.70052   1.83328

 Mulliken charges and spin densities:
               1          2
     1  H   -0.466873   0.428231
     2  H   -0.033127   0.071769
     3  H   -0.033127   0.071769
     4  H   -0.466873   0.428231
 Sum of Mulliken charges =  -1.00000   1.00000

 Dipole moment (field-independent basis, Debye):
    X=             -0.0000    Y=             -0.0000    Z=             -0.0000  Tot=              0.0000
 Quadrupole moment (field-independent basis, Debye-Ang):
   XX=             -7.3727   YY=             -7.3727   ZZ=            -24.6031
   XY=              0.0000   XZ=              0.0000   YZ=             -0.0000

 P4SDQ=-2.1838786\CCSD=-2.1842054\CCSD(T)=-2.1856721\RMSD=1.554e-09\PG=
 Normal termination of Gaussian 16 at Tue Feb 13 12:16:55 2024.
