 Gaussian 16, Revision A.03,
 Gaussian 16:  ES64L-G16RevA.03 25-Dec-2016

 --------------------
 #p ROCCSD(T)/cc-pVTZ
 --------------------

 ---------
 H2_H2_106
 ---------
 Symbolic Z-matrix:
 Charge = -1 Multiplicity = 2

                         Standard orientation:
 ---------------------------------------------------------------------
 Center     Atomic      Atomic             Coordinates (Angstroms)
 Number     Number       Type             X           Y           Z
 ---------------------------------------------------------------------
      1          1           0       -0.188295   -1.810487   -0.000000
      2          1           0        0.272233   -1.231252   -0.000000
      3          1           0       -0.000000    1.153258    0.000000
      4          1           0       -0.083939    1.888482    0.000000
 ---------------------------------------------------------------------

 SCF Done:  E(ROHF) =  -2.11545996410     A.U. after   13 cycles
 E2 =    -0.7424193529D-01 EUMP2 =    -0.21897018993964D+01
 CCSD(T)
 CCSD(T)= -0.22067580617D+01

 The electronic state is 2-A'.
 Alpha  occ. eigenvalues --   -0.37754  -0.34524   0.14333
 Alpha virt. eigenvalues --    0.35733   0.48938   0.59598   0.83885   0.88762
 Alpha virt. eigenvalues --    0.91416   0.92499   0.94316   0.98609   1.21289
 Alpha virt. eigenvalues --    1.29954   1.30290   1.38434   1.40051   1.50260

 Mulliken charges and spin densities:
               1          2
     1  H   -0.277030   0.164805
     2  H   -0.308292   0.420752
     3  H   -0.148481   0.306922
     4  H   -0.266197   0.107521
 Sum of Mulliken charges =  -1.00000   1.00000

 Dipole moment (field-independent basis, Debye):
    X=             -0.2624    Y=              1.0750    Z=              0.0000  Tot=              1.1065
 Quadrupole moment (field-independent basis, Debye-Ang):
   XX=             -8.6300   YY=            -22.4298   ZZ=             -7.5824
   XY=             -0.9137   XZ=             -0.0000   YZ=             -0.0000

 2-0=-2.1897019\MP4SDQ=-2.205191\CCSD=-2.2059846\CCSD(T)=-2.2067581\RMS
 Normal termination of Gaussian 16 at Tue Feb 13 12:22:12 2024.
