 Gaussian 16, Revision A.03,
 Gaussian 16:  ES64L-G16RevA.03 25-Dec-2016

 --------------------
 #p ROCCSD(T)/cc-pVTZ
 --------------------

 --------
 H2_H2_88
 --------
 Symbolic Z-matrix:
 Charge = -1 Multiplicity = 2

                         Standard orientation:
 ---------------------------------------------------------------------
 Center     Atomic      Atomic             Coordinates (Angstroms)
 Number     Number       Type             X           Y           Z
 ---------------------------------------------------------------------
      1          1           0       -0.179628   -1.693774   -0.000000
      2          1           0        0.273236   -1.108527   -0.000000
      3          1           0       -0.000000    1.034122    0.000000
      4          1           0       -0.093609    1.768178    0.000000
 ---------------------------------------------------------------------

 SCF Done:  E(ROHF) =  -2.11132304584     A.U. after   14 cycles
 E2 =    -0.7531156693D-01 EUMP2 =    -0.21866346127627D+01
 CCSD(T)
 CCSD(T)= -0.22038137500D+01

 The electronic state is 2-A'.
 Alpha  occ. eigenvalues --   -0.38181  -0.33632   0.14662
 Alpha virt. eigenvalues --    0.36089   0.49850   0.60114   0.84772   0.85788
 Alpha virt. eigenvalues --    0.90669   0.92459   0.95309   0.99834   1.22257
 Alpha virt. eigenvalues --    1.28373   1.28850   1.41244   1.43437   1.56857

 Mulliken charges and spin densities:
               1          2
     1  H   -0.325274   0.237481
     2  H   -0.307400   0.397395
     3  H   -0.094841   0.251016
     4  H   -0.272485   0.114108
 Sum of Mulliken charges =  -1.00000   1.00000

 Dipole moment (field-independent basis, Debye):
    X=             -0.1486    Y=              1.5985    Z=              0.0000  Tot=              1.6054
 Quadrupole moment (field-independent basis, Debye-Ang):
   XX=             -8.7671   YY=            -22.1721   ZZ=             -7.5683
   XY=             -1.1384   XZ=              0.0000   YZ=             -0.0000

 -0=-2.1866346\MP4SDQ=-2.2021874\CCSD=-2.2029561\CCSD(T)=-2.2038138\RMS
 Normal termination of Gaussian 16 at Tue Feb 13 12:21:03 2024.
