 Gaussian 16, Revision A.03,
 Gaussian 16:  ES64L-G16RevA.03 25-Dec-2016

 --------------------
 #p ROCCSD(T)/cc-pVTZ
 --------------------

 --------
 H2_H2_15
 --------
 Symbolic Z-matrix:
 Charge = -1 Multiplicity = 2

                         Standard orientation:
 ---------------------------------------------------------------------
 Center     Atomic      Atomic             Coordinates (Angstroms)
 Number     Number       Type             X           Y           Z
 ---------------------------------------------------------------------
      1          1           0        0.000000    0.000000    1.340000
      2          1           0        0.000000    0.000000    0.600000
      3          1           0        0.000000    0.000000   -0.600000
      4          1           0        0.000000    0.000000   -1.340000
 ---------------------------------------------------------------------

 SCF Done:  E(ROHF) =  -2.08077851029     A.U. after   12 cycles
 E2 =    -0.8355189191D-01 EUMP2 =    -0.21643304021915D+01
 CCSD(T)
 CCSD(T)= -0.21815507449D+01

 The electronic state is 2-SGG.
 Alpha  occ. eigenvalues --   -0.44728  -0.27626   0.15276
 Alpha virt. eigenvalues --    0.38478   0.54780   0.73721   0.73936   0.85393
 Alpha virt. eigenvalues --    0.85393   1.00719   1.00719   1.01578   1.29019
 Alpha virt. eigenvalues --    1.29019   1.44988   1.73199   1.73199   1.86648

 Mulliken charges and spin densities:
               1          2
     1  H   -0.499134   0.465481
     2  H   -0.000866   0.034519
     3  H   -0.000866   0.034519
     4  H   -0.499134   0.465481
 Sum of Mulliken charges =  -1.00000   1.00000

 Dipole moment (field-independent basis, Debye):
    X=             -0.0000    Y=             -0.0000    Z=              0.0000  Tot=              0.0000
 Quadrupole moment (field-independent basis, Debye-Ang):
   XX=             -7.3670   YY=             -7.3670   ZZ=            -24.5532
   XY=              0.0000   XZ=              0.0000   YZ=             -0.0000

 4SDQ=-2.1797246\CCSD=-2.180018\CCSD(T)=-2.1815507\RMSD=2.279e-09\PG=D*
 Normal termination of Gaussian 16 at Tue Feb 13 12:16:35 2024.
