 Gaussian 16, Revision A.03,
 Gaussian 16:  ES64L-G16RevA.03 25-Dec-2016

 --------------------
 #p ROCCSD(T)/cc-pVTZ
 --------------------

 ---------
 H2_H2_126
 ---------
 Symbolic Z-matrix:
 Charge = -1 Multiplicity = 2

                         Standard orientation:
 ---------------------------------------------------------------------
 Center     Atomic      Atomic             Coordinates (Angstroms)
 Number     Number       Type             X           Y           Z
 ---------------------------------------------------------------------
      1          1           0        0.000000    0.000000    2.080000
      2          1           0        0.000000    0.000000    1.340000
      3          1           0        0.000000    0.000000   -1.340000
      4          1           0        0.000000    0.000000   -2.080000
 ---------------------------------------------------------------------

 SCF Done:  E(ROHF) =  -2.12603206277     A.U. after   10 cycles
 E2 =    -0.7284617100D-01 EUMP2 =    -0.21988782337681D+01
 CCSD(T)
 CCSD(T)= -0.22157606852D+01

 The electronic state is 2-SGG.
 Alpha  occ. eigenvalues --   -0.37360  -0.35616   0.13239
 Alpha virt. eigenvalues --    0.36390   0.48016   0.61134   0.87343   0.91295
 Alpha virt. eigenvalues --    0.92077   0.92077   0.93019   0.93019   1.24200
 Alpha virt. eigenvalues --    1.32013   1.32013   1.37532   1.37532   1.40432

 Mulliken charges and spin densities:
               1          2
     1  H   -0.259377   0.092571
     2  H   -0.240623   0.407429
     3  H   -0.240623   0.407429
     4  H   -0.259377   0.092571
 Sum of Mulliken charges =  -1.00000   1.00000

 Dipole moment (field-independent basis, Debye):
    X=             -0.0000    Y=             -0.0000    Z=             -0.0000  Tot=              0.0000
 Quadrupole moment (field-independent basis, Debye-Ang):
   XX=             -7.5939   YY=             -7.5939   ZZ=            -23.6136
   XY=             -0.0000   XZ=              0.0000   YZ=              0.0000

 MP4SDQ=-2.2142158\CCSD=-2.2150854\CCSD(T)=-2.2157607\RMSD=3.791e-09\PG
 Normal termination of Gaussian 16 at Tue Feb 13 12:23:33 2024.
