 Gaussian 16, Revision A.03,
 Gaussian 16:  ES64L-G16RevA.03 25-Dec-2016

 --------------------
 #p ROCCSD(T)/cc-pVTZ
 --------------------

 ---------
 H2_H2_213
 ---------
 Symbolic Z-matrix:
 Charge = -1 Multiplicity = 2

                         Standard orientation:
 ---------------------------------------------------------------------
 Center     Atomic      Atomic             Coordinates (Angstroms)
 Number     Number       Type             X           Y           Z
 ---------------------------------------------------------------------
      1          1           0        0.000000    0.000000    2.660000
      2          1           0        0.000000    0.000000    1.920000
      3          1           0        0.000000    0.000000   -1.920000
      4          1           0        0.000000    0.000000   -2.660000
 ---------------------------------------------------------------------

 SCF Done:  E(ROHF) =  -2.13235364219     A.U. after   10 cycles
 E2 =    -0.7069686093D-01 EUMP2 =    -0.22030505031198D+01
 CCSD(T)
 CCSD(T)= -0.22196125626D+01

 The electronic state is 2-SGG.
 Alpha  occ. eigenvalues --   -0.39251  -0.38818   0.12961
 Alpha virt. eigenvalues --    0.32943   0.45976   0.52068   0.82423   0.89522
 Alpha virt. eigenvalues --    0.89875   0.89875   0.89908   0.89908   1.29294
 Alpha virt. eigenvalues --    1.30879   1.32132   1.32132   1.32357   1.32357

 Mulliken charges and spin densities:
               1          2
     1  H   -0.210046   0.098288
     2  H   -0.289954   0.401712
     3  H   -0.289954   0.401712
     4  H   -0.210046   0.098288
 Sum of Mulliken charges =  -1.00000   1.00000

 Dipole moment (field-independent basis, Debye):
    X=             -0.0000    Y=             -0.0000    Z=             -0.0000  Tot=              0.0000
 Quadrupole moment (field-independent basis, Debye-Ang):
   XX=             -7.7370   YY=             -7.7370   ZZ=            -31.8516
   XY=              0.0000   XZ=              0.0000   YZ=             -0.0000

 MP4SDQ=-2.218136\CCSD=-2.2190758\CCSD(T)=-2.2196126\RMSD=4.872e-09\PG=
 Normal termination of Gaussian 16 at Tue Feb 13 12:29:07 2024.
