 Gaussian 16, Revision A.03,
 Gaussian 16:  ES64L-G16RevA.03 25-Dec-2016

 --------------------
 #p ROCCSD(T)/cc-pVTZ
 --------------------

 ---------
 H2_H2_237
 ---------
 Symbolic Z-matrix:
 Charge = -1 Multiplicity = 2

                         Standard orientation:
 ---------------------------------------------------------------------
 Center     Atomic      Atomic             Coordinates (Angstroms)
 Number     Number       Type             X           Y           Z
 ---------------------------------------------------------------------
      1          1           0        0.000000    0.000000    2.820000
      2          1           0        0.000000    0.000000    2.080000
      3          1           0        0.000000    0.000000   -2.080000
      4          1           0        0.000000    0.000000   -2.820000
 ---------------------------------------------------------------------

 SCF Done:  E(ROHF) =  -2.12843073467     A.U. after   10 cycles
 E2 =    -0.7084654516D-01 EUMP2 =    -0.21992772798268D+01
 CCSD(T)
 CCSD(T)= -0.22158254264D+01

 The electronic state is 2-SGG.
 Alpha  occ. eigenvalues --   -0.39762  -0.39441   0.13428
 Alpha virt. eigenvalues --    0.31491   0.45805   0.50419   0.81167   0.88290
 Alpha virt. eigenvalues --    0.89320   0.89320   0.89338   0.89338   1.28975
 Alpha virt. eigenvalues --    1.29790   1.31565   1.31565   1.31699   1.31699

 Mulliken charges and spin densities:
               1          2
     1  H   -0.215239   0.122106
     2  H   -0.284761   0.377894
     3  H   -0.284761   0.377894
     4  H   -0.215239   0.122106
 Sum of Mulliken charges =  -1.00000   1.00000

 Dipole moment (field-independent basis, Debye):
    X=             -0.0000    Y=              0.0000    Z=              0.0000  Tot=              0.0000
 Quadrupole moment (field-independent basis, Debye-Ang):
   XX=             -7.7552   YY=             -7.7552   ZZ=            -36.1682
   XY=              0.0000   XZ=              0.0000   YZ=             -0.0000

 P4SDQ=-2.2143609\CCSD=-2.2152779\CCSD(T)=-2.2158254\RMSD=3.631e-09\PG=
 Normal termination of Gaussian 16 at Tue Feb 13 12:30:40 2024.
