 Gaussian 16, Revision A.03,
 Gaussian 16:  ES64L-G16RevA.03 25-Dec-2016

 --------------------
 #p ROCCSD(T)/cc-pVTZ
 --------------------

 ---------
 H2_H2_219
 ---------
 Symbolic Z-matrix:
 Charge = -1 Multiplicity = 2

                         Standard orientation:
 ---------------------------------------------------------------------
 Center     Atomic      Atomic             Coordinates (Angstroms)
 Number     Number       Type             X           Y           Z
 ---------------------------------------------------------------------
      1          1           0        0.000000    0.000000    2.700000
      2          1           0        0.000000    0.000000    1.960000
      3          1           0        0.000000    0.000000   -1.960000
      4          1           0        0.000000    0.000000   -2.700000
 ---------------------------------------------------------------------

 SCF Done:  E(ROHF) =  -2.13156553613     A.U. after   10 cycles
 E2 =    -0.7071489980D-01 EUMP2 =    -0.22022804359328D+01
 CCSD(T)
 CCSD(T)= -0.22188370799D+01

 The electronic state is 2-SGG.
 Alpha  occ. eigenvalues --   -0.39387  -0.38986   0.13061
 Alpha virt. eigenvalues --    0.32592   0.45918   0.51619   0.82040   0.89270
 Alpha virt. eigenvalues --    0.89725   0.89725   0.89754   0.89754   1.29190
 Alpha virt. eigenvalues --    1.30593   1.31985   1.31985   1.32178   1.32178

 Mulliken charges and spin densities:
               1          2
     1  H   -0.210717   0.103694
     2  H   -0.289283   0.396306
     3  H   -0.289283   0.396306
     4  H   -0.210717   0.103694
 Sum of Mulliken charges =  -1.00000   1.00000

 Dipole moment (field-independent basis, Debye):
    X=             -0.0000    Y=              0.0000    Z=              0.0000  Tot=              0.0000
 Quadrupole moment (field-independent basis, Debye-Ang):
   XX=             -7.7433   YY=             -7.7433   ZZ=            -32.8543
   XY=              0.0000   XZ=              0.0000   YZ=             -0.0000

 MP4SDQ=-2.2173639\CCSD=-2.218299\CCSD(T)=-2.2188371\RMSD=4.630e-09\PG=
 Normal termination of Gaussian 16 at Tue Feb 13 12:29:31 2024.
