 Gaussian 16, Revision A.03,
 Gaussian 16:  ES64L-G16RevA.03 25-Dec-2016

 ------------------
 #p CCSD(T)/cc-pVTZ
 ------------------

 ---
 CO2
 ---
 Symbolic Z-matrix:
 Charge =  0 Multiplicity = 1

                         Standard orientation:
 ---------------------------------------------------------------------
 Center     Atomic      Atomic             Coordinates (Angstroms)
 Number     Number       Type             X           Y           Z
 ---------------------------------------------------------------------
      1          8           0        0.000000    0.000000    1.163000
      2          6           0        0.000000    0.000000    0.000000
      3          8           0        0.000000    0.000000   -1.163000
 ---------------------------------------------------------------------

 SCF Done:  E(RHF) =  -187.706568408     A.U. after   10 cycles
 E2 =    -0.6016373937D+00 EUMP2 =    -0.18830820580198D+03
 CCSD(T)
 CCSD(T)= -0.18832717492D+03

 The electronic state is 1-SGG.
 Alpha  occ. eigenvalues --  -20.64988 -20.64984 -11.45965  -1.52778  -1.47479
 Alpha  occ. eigenvalues --   -0.79889  -0.74074  -0.71253  -0.71253  -0.54229
 Alpha  occ. eigenvalues --   -0.54229
 Alpha virt. eigenvalues --    0.17469   0.20506   0.20506   0.34144   0.39517
 Alpha virt. eigenvalues --    0.39517   0.54749   0.65889   0.71731   0.71731
 Alpha virt. eigenvalues --    0.72759   0.75676   0.75676   0.94945   0.94945

 Mulliken charges:
               1
     1  O   -0.268356
     2  C    0.536711
     3  O   -0.268356
 Sum of Mulliken charges =  -0.00000

 Dipole moment (field-independent basis, Debye):
    X=             -0.0000    Y=              0.0000    Z=              0.0000  Tot=              0.0000
 Quadrupole moment (field-independent basis, Debye-Ang):
   XX=            -14.6942   YY=            -14.6942   ZZ=            -19.8427
   XY=              0.0000   XZ=              0.0000   YZ=             -0.0000

 CCSD(T)/cc-pVTZ\\CO2\\0,1\O,0,-2.326,0.,0.\C,0,-1.163,0.,0.\O,0,0.,0.,
 3026912\CCSD=-188.2986121\CCSD(T)=-188.3271749\RMSD=7.891e-10\PG=D*H [
 Normal termination of Gaussian 16 at Wed Feb 14 18:03:03 2024.
