 Gaussian 16, Revision A.03,
 Gaussian 16:  ES64L-G16RevA.03 25-Dec-2016

 ------------------
 #p CCSD(T)/cc-pVTZ
 ------------------

 -----------
 CO2_CO2_235
 -----------
 Symbolic Z-matrix:
 Charge =  0 Multiplicity = 1

                         Standard orientation:
 ---------------------------------------------------------------------
 Center     Atomic      Atomic             Coordinates (Angstroms)
 Number     Number       Type             X           Y           Z
 ---------------------------------------------------------------------
      1          8           0        1.233548   -3.875048    0.000000
      2          6           0        0.411183   -3.052683    0.000000
      3          8           0       -0.411183   -2.230317    0.000000
      4          8           0       -0.411183    1.889683   -0.000000
      5          6           0       -0.411183    3.052683   -0.000000
      6          8           0       -0.411183    4.215682   -0.000000
 ---------------------------------------------------------------------

 SCF Done:  E(RHF) =  -375.412949373     A.U. after   10 cycles
 E2 =    -0.1203574224D+01 EUMP2 =    -0.37661652359781D+03
 CCSD(T)
 CCSD(T)= -0.37665441233D+03

 The electronic state is 1-A'.
 Alpha  occ. eigenvalues --  -20.64873 -20.64854 -20.64753 -20.64720 -11.45835
 Alpha  occ. eigenvalues --  -11.45708  -1.52657  -1.52529  -1.47356  -1.47227
 Alpha  occ. eigenvalues --   -0.79759  -0.79621  -0.73945  -0.73798  -0.71133
 Alpha  occ. eigenvalues --   -0.71133  -0.71006  -0.71001  -0.54103  -0.54103
 Alpha  occ. eigenvalues --   -0.53976  -0.53970
 Alpha virt. eigenvalues --    0.17331   0.17861   0.20618   0.20620   0.20743
 Alpha virt. eigenvalues --    0.20751   0.32445   0.35950   0.39588   0.39601
 Alpha virt. eigenvalues --    0.39740   0.39837   0.54820   0.54989   0.63661

 Mulliken charges:
               1
     1  O   -0.270646
     2  C    0.535344
     3  O   -0.264655
     4  O   -0.265706
     5  C    0.535387
     6  O   -0.269724
 Sum of Mulliken charges =  -0.00000

 Dipole moment (field-independent basis, Debye):
    X=             -0.0220    Y=              0.0066    Z=             -0.0000  Tot=              0.0230
 Quadrupole moment (field-independent basis, Debye-Ang):
   XX=            -31.9722   YY=            -37.3714   ZZ=            -29.3915
   XY=              2.6141   XZ=             -0.0000   YZ=              0.0000

 .6054328\CCSD=-376.5972454\CCSD(T)=-376.6544123\RMSD=9.919e-09\PG=CS [
 Normal termination of Gaussian 16 at Mon Feb 12 19:08:32 2024.
