 Gaussian 16, Revision A.03,
 Gaussian 16:  ES64L-G16RevA.03 25-Dec-2016

 ------------------
 #p CCSD(T)/cc-pVTZ
 ------------------

 -----------
 CO2_CO2_267
 -----------
 Symbolic Z-matrix:
 Charge =  0 Multiplicity = 1

                         Standard orientation:
 ---------------------------------------------------------------------
 Center     Atomic      Atomic             Coordinates (Angstroms)
 Number     Number       Type             X           Y           Z
 ---------------------------------------------------------------------
      1          8           0        0.000000    0.000000    4.606000
      2          6           0        0.000000    0.000000    3.443000
      3          8           0        0.000000    0.000000    2.280000
      4          8           0        0.000000    0.000000   -2.280000
      5          6           0        0.000000    0.000000   -3.443000
      6          8           0        0.000000    0.000000   -4.606000
 ---------------------------------------------------------------------

 SCF Done:  E(RHF) =  -375.412910933     A.U. after   10 cycles
 E2 =    -0.1203480106D+01 EUMP2 =    -0.37661639103851D+03
 CCSD(T)
 CCSD(T)= -0.37665429142D+03

 The electronic state is 1-SGG.
 Alpha  occ. eigenvalues --  -20.64806 -20.64806 -20.64780 -20.64780 -11.45765
 Alpha  occ. eigenvalues --  -11.45765  -1.52587  -1.52587  -1.47286  -1.47285
 Alpha  occ. eigenvalues --   -0.79695  -0.79671  -0.73881  -0.73848  -0.71064
 Alpha  occ. eigenvalues --   -0.71064  -0.71062  -0.71062  -0.54035  -0.54035
 Alpha  occ. eigenvalues --   -0.54030  -0.54030
 Alpha virt. eigenvalues --    0.17512   0.17744   0.20686   0.20686   0.20693
 Alpha virt. eigenvalues --    0.20693   0.33474   0.35138   0.39675   0.39675
 Alpha virt. eigenvalues --    0.39685   0.39685   0.54888   0.54961   0.64579

 Mulliken charges:
               1
     1  O   -0.269965
     2  C    0.535158
     3  O   -0.265192
     4  O   -0.265192
     5  C    0.535158
     6  O   -0.269965
 Sum of Mulliken charges =   0.00000

 Dipole moment (field-independent basis, Debye):
    X=             -0.0000    Y=             -0.0000    Z=             -0.0000  Tot=              0.0000
 Quadrupole moment (field-independent basis, Debye-Ang):
   XX=            -29.3912   YY=            -29.3912   ZZ=            -40.0007
   XY=              0.0000   XZ=              0.0000   YZ=             -0.0000

 9\CCSD(T)=-376.6542914\RMSD=4.694e-09\PG=D*H [C*(O1C1O1.O1C1O1)]\\@
 Normal termination of Gaussian 16 at Mon Feb 12 21:05:00 2024.
