 Gaussian 16, Revision A.03,
 Gaussian 16:  ES64L-G16RevA.03 25-Dec-2016

 ------------------
 #p CCSD(T)/cc-pVTZ
 ------------------

 ----------
 CO2_CO2_68
 ----------
 Symbolic Z-matrix:
 Charge =  0 Multiplicity = 1

                         Standard orientation:
 ---------------------------------------------------------------------
 Center     Atomic      Atomic             Coordinates (Angstroms)
 Number     Number       Type             X           Y           Z
 ---------------------------------------------------------------------
      1          8           0       -1.744500   -1.521500    0.000000
      2          6           0       -0.581500   -1.521500    0.000000
      3          8           0        0.581500   -1.521500    0.000000
      4          8           0        0.581500    0.358500    0.000000
      5          6           0        0.581500    1.521500    0.000000
      6          8           0        0.581500    2.684500    0.000000
 ---------------------------------------------------------------------

 SCF Done:  E(RHF) =  -375.338953694     A.U. after   13 cycles
 E2 =    -0.1217165270D+01 EUMP2 =    -0.37655611896467D+03
 CCSD(T)
 CCSD(T)= -0.37659225428D+03

 The electronic state is 1-A'.
 Alpha  occ. eigenvalues --  -20.65554 -20.64361 -20.63693 -20.61766 -11.46101
 Alpha  occ. eigenvalues --  -11.44110  -1.54224  -1.51360  -1.48339  -1.45568
 Alpha  occ. eigenvalues --   -0.85193  -0.78707  -0.76804  -0.73322  -0.72434
 Alpha  occ. eigenvalues --   -0.70993  -0.69459  -0.65373  -0.55576  -0.54794
 Alpha  occ. eigenvalues --   -0.51956  -0.49913
 Alpha virt. eigenvalues --    0.15801   0.18510   0.19810   0.21144   0.21687
 Alpha virt. eigenvalues --    0.23981   0.33771   0.36349   0.36726   0.40312
 Alpha virt. eigenvalues --    0.43424   0.47385   0.53487   0.58450   0.65766

 Mulliken charges:
               1
     1  O   -0.287704
     2  C    0.523945
     3  O   -0.250666
     4  O   -0.231401
     5  C    0.530679
     6  O   -0.284853
 Sum of Mulliken charges =  -0.00000

 Dipole moment (field-independent basis, Debye):
    X=              0.3510    Y=              0.3278    Z=              0.0000  Tot=              0.4803
 Quadrupole moment (field-independent basis, Debye-Ang):
   XX=            -34.6206   YY=            -35.5042   ZZ=            -29.3552
   XY=             -0.1631   XZ=              0.0000   YZ=              0.0000

 99\CCSD(T)=-376.5922543\RMSD=7.225e-09\PG=CS [SG(C2O4)]\\@
 Normal termination of Gaussian 16 at Sat Feb 10 00:45:08 2024.
