 Gaussian 16, Revision A.03,
 Gaussian 16:  ES64L-G16RevA.03 25-Dec-2016

 ------------------
 #p CCSD(T)/cc-pVTZ
 ------------------

 -----------
 CO2_CO2_108
 -----------
 Symbolic Z-matrix:
 Charge =  0 Multiplicity = 1

                         Standard orientation:
 ---------------------------------------------------------------------
 Center     Atomic      Atomic             Coordinates (Angstroms)
 Number     Number       Type             X           Y           Z
 ---------------------------------------------------------------------
      1          8           0        0.000000    0.000000    3.546000
      2          6           0        0.000000    0.000000    2.383000
      3          8           0        0.000000    0.000000    1.220000
      4          8           0        0.000000    0.000000   -1.220000
      5          6           0        0.000000    0.000000   -2.383000
      6          8           0        0.000000    0.000000   -3.546000
 ---------------------------------------------------------------------

 SCF Done:  E(RHF) =  -375.405987026     A.U. after   10 cycles
 E2 =    -0.1206517382D+01 EUMP2 =    -0.37661250440770D+03
 CCSD(T)
 CCSD(T)= -0.37664998469D+03

 The electronic state is 1-SGG.
 Alpha  occ. eigenvalues --  -20.64376 -20.64376 -20.64075 -20.64074 -11.45185
 Alpha  occ. eigenvalues --  -11.45185  -1.52230  -1.52030  -1.46963  -1.46665
 Alpha  occ. eigenvalues --   -0.81162  -0.78110  -0.74740  -0.71010  -0.70763
 Alpha  occ. eigenvalues --   -0.70763  -0.70445  -0.70445  -0.53919  -0.53919
 Alpha  occ. eigenvalues --   -0.53171  -0.53171
 Alpha virt. eigenvalues --    0.17463   0.18494   0.20581   0.20581   0.21592
 Alpha virt. eigenvalues --    0.21592   0.33177   0.38495   0.39322   0.39322
 Alpha virt. eigenvalues --    0.40445   0.40445   0.53861   0.55201   0.67124

 Mulliken charges:
               1
     1  O   -0.290039
     2  C    0.518959
     3  O   -0.228920
     4  O   -0.228920
     5  C    0.518959
     6  O   -0.290039
 Sum of Mulliken charges =   0.00000

 Dipole moment (field-independent basis, Debye):
    X=             -0.0000    Y=             -0.0000    Z=             -0.0000  Tot=              0.0000
 Quadrupole moment (field-independent basis, Debye-Ang):
   XX=            -29.4109   YY=            -29.4109   ZZ=            -40.7885
   XY=              0.0000   XZ=              0.0000   YZ=              0.0000

 434\CCSD(T)=-376.6499847\RMSD=5.389e-09\PG=D*H [C*(O1C1O1.O1C1O1)]\\@
 Normal termination of Gaussian 16 at Sat Feb 10 15:41:48 2024.
