 Gaussian 16, Revision A.03,
 Gaussian 16:  ES64L-G16RevA.03 25-Dec-2016

 ------------------
 #p CCSD(T)/cc-pVTZ
 ------------------

 ----------
 CO2_CO2_66
 ----------
 Symbolic Z-matrix:
 Charge =  0 Multiplicity = 1

                         Standard orientation:
 ---------------------------------------------------------------------
 Center     Atomic      Atomic             Coordinates (Angstroms)
 Number     Number       Type             X           Y           Z
 ---------------------------------------------------------------------
      1          8           0        0.000000    0.000000    3.266000
      2          6           0        0.000000    0.000000    2.103000
      3          8           0        0.000000    0.000000    0.940000
      4          8           0        0.000000    0.000000   -0.940000
      5          6           0        0.000000    0.000000   -2.103000
      6          8           0        0.000000    0.000000   -3.266000
 ---------------------------------------------------------------------

 SCF Done:  E(RHF) =  -375.354728742     A.U. after   10 cycles
 E2 =    -0.1213442495D+01 EUMP2 =    -0.37656817123710D+03
 CCSD(T)
 CCSD(T)= -0.37660431600D+03

 The electronic state is 1-SGG.
 Alpha  occ. eigenvalues --  -20.63940 -20.63940 -20.62679 -20.62677 -11.44338
 Alpha  occ. eigenvalues --  -11.44338  -1.52342  -1.51281  -1.47136  -1.45671
 Alpha  occ. eigenvalues --   -0.87092  -0.76868  -0.75363  -0.70844  -0.70844
 Alpha  occ. eigenvalues --   -0.69573  -0.69573  -0.63567  -0.54490  -0.54490
 Alpha  occ. eigenvalues --   -0.51753  -0.51753
 Alpha virt. eigenvalues --    0.17258   0.19216   0.20148   0.20148   0.22756
 Alpha virt. eigenvalues --    0.22756   0.32634   0.38729   0.38729   0.39721
 Alpha virt. eigenvalues --    0.41251   0.41251   0.53241   0.56944   0.68426

 Mulliken charges:
               1
     1  O   -0.306413
     2  C    0.517135
     3  O   -0.210722
     4  O   -0.210722
     5  C    0.517135
     6  O   -0.306413
 Sum of Mulliken charges =  -0.00000

 Dipole moment (field-independent basis, Debye):
    X=             -0.0000    Y=              0.0000    Z=              0.0000  Tot=              0.0000
 Quadrupole moment (field-independent basis, Debye-Ang):
   XX=            -29.3944   YY=            -29.3944   ZZ=            -41.6726
   XY=              0.0000   XZ=              0.0000   YZ=              0.0000

 114\CCSD(T)=-376.604316\RMSD=7.222e-09\PG=D*H [C*(O1C1O1.O1C1O1)]\\@
 Normal termination of Gaussian 16 at Sat Feb 10 00:31:54 2024.
