 Gaussian 16, Revision A.03,
 Gaussian 16:  ES64L-G16RevA.03 25-Dec-2016

 ------------------
 #p CCSD(T)/cc-pVTZ
 ------------------

 ----------
 CO2_CO2_78
 ----------
 Symbolic Z-matrix:
 Charge =  0 Multiplicity = 1

                         Standard orientation:
 ---------------------------------------------------------------------
 Center     Atomic      Atomic             Coordinates (Angstroms)
 Number     Number       Type             X           Y           Z
 ---------------------------------------------------------------------
      1          8           0        0.000000    0.000000    3.346000
      2          6           0        0.000000    0.000000    2.183000
      3          8           0        0.000000    0.000000    1.020000
      4          8           0        0.000000    0.000000   -1.020000
      5          6           0        0.000000    0.000000   -2.183000
      6          8           0        0.000000    0.000000   -3.346000
 ---------------------------------------------------------------------

 SCF Done:  E(RHF) =  -375.381323793     A.U. after   10 cycles
 E2 =    -0.1210318191D+01 EUMP2 =    -0.37659164198381D+03
 CCSD(T)
 CCSD(T)= -0.37662841413D+03

 The electronic state is 1-SGG.
 Alpha  occ. eigenvalues --  -20.64104 -20.64104 -20.63256 -20.63255 -11.44687
 Alpha  occ. eigenvalues --  -11.44687  -1.52217  -1.51571  -1.47013  -1.46079
 Alpha  occ. eigenvalues --   -0.84499  -0.77230  -0.75264  -0.70762  -0.70762
 Alpha  occ. eigenvalues --   -0.69915  -0.69915  -0.66797  -0.54206  -0.54206
 Alpha  occ. eigenvalues --   -0.52324  -0.52324
 Alpha virt. eigenvalues --    0.17302   0.18959   0.20331   0.20331   0.22310
 Alpha virt. eigenvalues --    0.22310   0.32832   0.38909   0.38909   0.39398
 Alpha virt. eigenvalues --    0.40963   0.40963   0.53343   0.56266   0.67997

 Mulliken charges:
               1
     1  O   -0.300542
     2  C    0.515176
     3  O   -0.214634
     4  O   -0.214634
     5  C    0.515176
     6  O   -0.300542
 Sum of Mulliken charges =   0.00000

 Dipole moment (field-independent basis, Debye):
    X=             -0.0000    Y=             -0.0000    Z=              0.0000  Tot=              0.0000
 Quadrupole moment (field-independent basis, Debye-Ang):
   XX=            -29.4072   YY=            -29.4072   ZZ=            -41.3430
   XY=              0.0000   XZ=              0.0000   YZ=              0.0000

 427\CCSD(T)=-376.6284141\RMSD=6.621e-09\PG=D*H [C*(O1C1O1.O1C1O1)]\\@
 Normal termination of Gaussian 16 at Sat Feb 10 01:34:18 2024.
