 Gaussian 16, Revision A.03,
 Gaussian 16:  ES64L-G16RevA.03 25-Dec-2016

 ------------------
 #p CCSD(T)/cc-pVTZ
 ------------------

 ----------
 CO2_CO2_76
 ----------
 Symbolic Z-matrix:
 Charge =  0 Multiplicity = 1

                         Standard orientation:
 ---------------------------------------------------------------------
 Center     Atomic      Atomic             Coordinates (Angstroms)
 Number     Number       Type             X           Y           Z
 ---------------------------------------------------------------------
      1          8           0        1.233548   -2.815048    0.000000
      2          6           0        0.411183   -1.992683    0.000000
      3          8           0       -0.411183   -1.170318    0.000000
      4          8           0       -0.411183    0.829683   -0.000000
      5          6           0       -0.411183    1.992683   -0.000000
      6          8           0       -0.411183    3.155683   -0.000000
 ---------------------------------------------------------------------

 SCF Done:  E(RHF) =  -375.374283687     A.U. after   11 cycles
 E2 =    -0.1211965237D+01 EUMP2 =    -0.37658624892433D+03
 CCSD(T)
 CCSD(T)= -0.37662275844D+03

 The electronic state is 1-A'.
 Alpha  occ. eigenvalues --  -20.64417 -20.63845 -20.63532 -20.63125 -11.44999
 Alpha  occ. eigenvalues --  -11.44512  -1.52514  -1.51516  -1.47265  -1.46009
 Alpha  occ. eigenvalues --   -0.84511  -0.77448  -0.75368  -0.71521  -0.71014
 Alpha  occ. eigenvalues --   -0.70228  -0.69874  -0.66960  -0.54462  -0.53929
 Alpha  occ. eigenvalues --   -0.52297  -0.51850
 Alpha virt. eigenvalues --    0.16795   0.19358   0.20310   0.20827   0.21654
 Alpha virt. eigenvalues --    0.22116   0.33919   0.36380   0.38308   0.39112
 Alpha virt. eigenvalues --    0.41471   0.44427   0.53796   0.56457   0.65817

 Mulliken charges:
               1
     1  O   -0.287865
     2  C    0.524794
     3  O   -0.241251
     4  O   -0.219622
     5  C    0.521016
     6  O   -0.297073
 Sum of Mulliken charges =  -0.00000

 Dipole moment (field-independent basis, Debye):
    X=             -0.1520    Y=              0.1018    Z=             -0.0000  Tot=              0.1829
 Quadrupole moment (field-independent basis, Debye-Ang):
   XX=            -32.0657   YY=            -38.6696   ZZ=            -29.3977
   XY=              2.8481   XZ=             -0.0000   YZ=              0.0000

 =-376.5733994\CCSD=-376.5645463\CCSD(T)=-376.6227584\RMSD=7.166e-09\PG
 Normal termination of Gaussian 16 at Sat Feb 10 01:26:14 2024.
