 Gaussian 16, Revision A.03,
 Gaussian 16:  ES64L-G16RevA.03 25-Dec-2016

 ------------------
 #p CCSD(T)/cc-pVTZ
 ------------------

 ----------
 CO2_CO2_34
 ----------
 Symbolic Z-matrix:
 Charge =  0 Multiplicity = 1

                         Standard orientation:
 ---------------------------------------------------------------------
 Center     Atomic      Atomic             Coordinates (Angstroms)
 Number     Number       Type             X           Y           Z
 ---------------------------------------------------------------------
      1          8           0        1.233548   -2.535048    0.000000
      2          6           0        0.411183   -1.712683    0.000000
      3          8           0       -0.411183   -0.890317    0.000000
      4          8           0       -0.411183    0.549683   -0.000000
      5          6           0       -0.411183    1.712683   -0.000000
      6          8           0       -0.411183    2.875682   -0.000000
 ---------------------------------------------------------------------

 SCF Done:  E(RHF) =  -375.113829566     A.U. after   15 cycles
 E2 =    -0.1244395928D+01 EUMP2 =    -0.37635822549434D+03
 CCSD(T)
 CCSD(T)= -0.37638789867D+03

 The electronic state is 1-A'.
 Alpha  occ. eigenvalues --  -20.64365 -20.62491 -20.62438 -20.61777 -11.43899
 Alpha  occ. eigenvalues --  -11.41481  -1.57759  -1.50502  -1.47646  -1.43960
 Alpha  occ. eigenvalues --   -0.99534  -0.76724  -0.75245  -0.73698  -0.73619
 Alpha  occ. eigenvalues --   -0.68666  -0.68221  -0.59605  -0.57018  -0.52949
 Alpha  occ. eigenvalues --   -0.49584  -0.39403
 Alpha virt. eigenvalues --    0.15973   0.18778   0.19314   0.20716   0.23664
 Alpha virt. eigenvalues --    0.24020   0.33937   0.36714   0.37563   0.39086
 Alpha virt. eigenvalues --    0.43176   0.47029   0.53884   0.59323   0.67800

 Mulliken charges:
               1
     1  O   -0.315111
     2  C    0.469885
     3  O   -0.175227
     4  O   -0.186884
     5  C    0.513833
     6  O   -0.306497
 Sum of Mulliken charges =  -0.00000

 Dipole moment (field-independent basis, Debye):
    X=             -0.4283    Y=              0.7009    Z=             -0.0000  Tot=              0.8214
 Quadrupole moment (field-independent basis, Debye-Ang):
   XX=            -32.2620   YY=            -40.9680   ZZ=            -29.2185
   XY=              3.3035   XZ=             -0.0000   YZ=              0.0000

 =-376.3379188\CCSD=-376.3257195\CCSD(T)=-376.3878987\RMSD=4.650e-09\PG
 Normal termination of Gaussian 16 at Fri Feb  9 21:49:21 2024.
