 Gaussian 16, Revision A.03,
 Gaussian 16:  ES64L-G16RevA.03 25-Dec-2016

 ------------------
 #p CCSD(T)/cc-pVTZ
 ------------------

 ----------
 CO2_CO2_90
 ----------
 Symbolic Z-matrix:
 Charge =  0 Multiplicity = 1

                         Standard orientation:
 ---------------------------------------------------------------------
 Center     Atomic      Atomic             Coordinates (Angstroms)
 Number     Number       Type             X           Y           Z
 ---------------------------------------------------------------------
      1          8           0        0.000000    0.000000    3.426000
      2          6           0        0.000000    0.000000    2.263000
      3          8           0        0.000000    0.000000    1.100000
      4          8           0        0.000000    0.000000   -1.100000
      5          6           0        0.000000    0.000000   -2.263000
      6          8           0        0.000000    0.000000   -3.426000
 ---------------------------------------------------------------------

 SCF Done:  E(RHF) =  -375.395772143     A.U. after   10 cycles
 E2 =    -0.1208326576D+01 EUMP2 =    -0.37660409871898D+03
 CCSD(T)
 CCSD(T)= -0.37664125497D+03

 The electronic state is 1-SGG.
 Alpha  occ. eigenvalues --  -20.64232 -20.64232 -20.63673 -20.63672 -11.44935
 Alpha  occ. eigenvalues --  -11.44935  -1.52196  -1.51793  -1.46964  -1.46372
 Alpha  occ. eigenvalues --   -0.82732  -0.77593  -0.75086  -0.70743  -0.70743
 Alpha  occ. eigenvalues --   -0.70173  -0.70173  -0.68985  -0.54041  -0.54041
 Alpha  occ. eigenvalues --   -0.52743  -0.52743
 Alpha virt. eigenvalues --    0.17356   0.18747   0.20457   0.20457   0.21967
 Alpha virt. eigenvalues --    0.21967   0.32966   0.39059   0.39087   0.39087
 Alpha virt. eigenvalues --    0.40726   0.40726   0.53504   0.55750   0.67383

 Mulliken charges:
               1
     1  O   -0.295768
     2  C    0.515050
     3  O   -0.219281
     4  O   -0.219281
     5  C    0.515050
     6  O   -0.295768
 Sum of Mulliken charges =   0.00000

 Dipole moment (field-independent basis, Debye):
    X=             -0.0000    Y=              0.0000    Z=              0.0000  Tot=              0.0000
 Quadrupole moment (field-independent basis, Debye-Ang):
   XX=            -29.4121   YY=            -29.4121   ZZ=            -41.0805
   XY=              0.0000   XZ=              0.0000   YZ=              0.0000

 989\CCSD(T)=-376.641255\RMSD=6.098e-09\PG=D*H [C*(O1C1O1.O1C1O1)]\\@
 Normal termination of Gaussian 16 at Sat Feb 10 02:32:15 2024.
