 Gaussian 16, Revision A.03,
 Gaussian 16:  ES64L-G16RevA.03 25-Dec-2016

 ------------------
 #p CCSD(T)/cc-pVTZ
 ------------------

 ----------
 CO2_CO2_96
 ----------
 Symbolic Z-matrix:
 Charge =  0 Multiplicity = 1

                         Standard orientation:
 ---------------------------------------------------------------------
 Center     Atomic      Atomic             Coordinates (Angstroms)
 Number     Number       Type             X           Y           Z
 ---------------------------------------------------------------------
      1          8           0        0.000000    0.000000    3.466000
      2          6           0        0.000000    0.000000    2.303000
      3          8           0        0.000000    0.000000    1.140000
      4          8           0        0.000000    0.000000   -1.140000
      5          6           0        0.000000    0.000000   -2.303000
      6          8           0        0.000000    0.000000   -3.466000
 ---------------------------------------------------------------------

 SCF Done:  E(RHF) =  -375.400272050     A.U. after   10 cycles
 E2 =    -0.1207602956D+01 EUMP2 =    -0.37660787500541D+03
 CCSD(T)
 CCSD(T)= -0.37664516476D+03

 The electronic state is 1-SGG.
 Alpha  occ. eigenvalues --  -20.64286 -20.64286 -20.63832 -20.63831 -11.45032
 Alpha  occ. eigenvalues --  -11.45032  -1.52202  -1.51883  -1.46957  -1.46485
 Alpha  occ. eigenvalues --   -0.82090  -0.77771  -0.74976  -0.70746  -0.70746
 Alpha  occ. eigenvalues --   -0.70277  -0.70277  -0.69796  -0.53988  -0.53988
 Alpha  occ. eigenvalues --   -0.52908  -0.52908
 Alpha virt. eigenvalues --    0.17390   0.18654   0.20505   0.20505   0.21826
 Alpha virt. eigenvalues --    0.21826   0.33035   0.38878   0.39171   0.39171
 Alpha virt. eigenvalues --    0.40623   0.40623   0.53610   0.55540   0.67208

 Mulliken charges:
               1
     1  O   -0.293716
     2  C    0.515914
     3  O   -0.222197
     4  O   -0.222197
     5  C    0.515914
     6  O   -0.293716
 Sum of Mulliken charges =   0.00000

 Dipole moment (field-independent basis, Debye):
    X=             -0.0000    Y=              0.0000    Z=              0.0000  Tot=              0.0000
 Quadrupole moment (field-independent basis, Debye-Ang):
   XX=            -29.4125   YY=            -29.4125   ZZ=            -40.9710
   XY=              0.0000   XZ=              0.0000   YZ=              0.0000

 92\CCSD(T)=-376.6451648\RMSD=5.852e-09\PG=D*H [C*(O1C1O1.O1C1O1)]\\@
 Normal termination of Gaussian 16 at Sat Feb 10 03:01:07 2024.
