 Gaussian 16, Revision A.03,
 Gaussian 16:  ES64L-G16RevA.03 25-Dec-2016

 ------------------
 #p CCSD(T)/cc-pVTZ
 ------------------

 -----------
 CO2_CO2_169
 -----------
 Symbolic Z-matrix:
 Charge =  0 Multiplicity = 1

                         Standard orientation:
 ---------------------------------------------------------------------
 Center     Atomic      Atomic             Coordinates (Angstroms)
 Number     Number       Type             X           Y           Z
 ---------------------------------------------------------------------
      1          8           0        1.233548   -3.435048    0.000000
      2          6           0        0.411183   -2.612682    0.000000
      3          8           0       -0.411183   -1.790317    0.000000
      4          8           0       -0.411183    1.449683   -0.000000
      5          6           0       -0.411183    2.612682   -0.000000
      6          8           0       -0.411183    3.775682   -0.000000
 ---------------------------------------------------------------------

 SCF Done:  E(RHF) =  -375.412485020     A.U. after   11 cycles
 E2 =    -0.1204252800D+01 EUMP2 =    -0.37661673782077D+03
 CCSD(T)
 CCSD(T)= -0.37665454889D+03

 The electronic state is 1-A'.
 Alpha  occ. eigenvalues --  -20.64787 -20.64740 -20.64612 -20.64543 -11.45726
 Alpha  occ. eigenvalues --  -11.45541  -1.52565  -1.52374  -1.47262  -1.47068
 Alpha  occ. eigenvalues --   -0.79807  -0.79320  -0.74016  -0.73430  -0.71044
 Alpha  occ. eigenvalues --   -0.71044  -0.70852  -0.70830  -0.54022  -0.54015
 Alpha  occ. eigenvalues --   -0.53800  -0.53788
 Alpha virt. eigenvalues --    0.17168   0.18201   0.20674   0.20689   0.20889
 Alpha virt. eigenvalues --    0.20908   0.32182   0.36765   0.39496   0.39499
 Alpha virt. eigenvalues --    0.39990   0.40640   0.54857   0.55131   0.61005

 Mulliken charges:
               1
     1  O   -0.274449
     2  C    0.533070
     3  O   -0.258528
     4  O   -0.259366
     5  C    0.533871
     6  O   -0.274597
 Sum of Mulliken charges =  -0.00000

 Dipole moment (field-independent basis, Debye):
    X=             -0.0421    Y=              0.0102    Z=             -0.0000  Tot=              0.0433
 Quadrupole moment (field-independent basis, Debye-Ang):
   XX=            -31.9810   YY=            -37.5503   ZZ=            -29.3952
   XY=              2.6465   XZ=             -0.0000   YZ=              0.0000

 =-376.605523\CCSD=-376.5972832\CCSD(T)=-376.6545489\RMSD=3.111e-09\PG=
 Normal termination of Gaussian 16 at Sat Feb 10 20:40:17 2024.
