 Gaussian 16, Revision A.03,
 Gaussian 16:  ES64L-G16RevA.03 25-Dec-2016

 ------------------
 #p CCSD(T)/cc-pVTZ
 ------------------

 -----------
 CO2_CO2_284
 -----------
 Symbolic Z-matrix:
 Charge =  0 Multiplicity = 1

                         Standard orientation:
 ---------------------------------------------------------------------
 Center     Atomic      Atomic             Coordinates (Angstroms)
 Number     Number       Type             X           Y           Z
 ---------------------------------------------------------------------
      1          8           0       -1.744500   -2.961500    0.000000
      2          6           0       -0.581500   -2.961500    0.000000
      3          8           0        0.581500   -2.961500    0.000000
      4          8           0        0.581500    1.798500    0.000000
      5          6           0        0.581500    2.961500    0.000000
      6          8           0        0.581500    4.124500    0.000000
 ---------------------------------------------------------------------

 SCF Done:  E(RHF) =  -375.413313349     A.U. after   10 cycles
 E2 =    -0.1203327532D+01 EUMP2 =    -0.37661664088036D+03
 CCSD(T)
 CCSD(T)= -0.37665457908D+03

 The electronic state is 1-A'.
 Alpha  occ. eigenvalues --  -20.65135 -20.65114 -20.64760 -20.64741 -11.46109
 Alpha  occ. eigenvalues --  -11.45734  -1.52916  -1.52542  -1.47618  -1.47244
 Alpha  occ. eigenvalues --   -0.80036  -0.79661  -0.74223  -0.73847  -0.71390
 Alpha  occ. eigenvalues --   -0.71388  -0.71021  -0.71010  -0.54370  -0.54369
 Alpha  occ. eigenvalues --   -0.53999  -0.53993
 Alpha virt. eigenvalues --    0.17128   0.17844   0.20366   0.20372   0.20734
 Alpha virt. eigenvalues --    0.20747   0.33346   0.34690   0.39379   0.39388
 Alpha virt. eigenvalues --    0.39744   0.40069   0.54548   0.54962   0.65799

 Mulliken charges:
               1
     1  O   -0.270024
     2  C    0.537772
     3  O   -0.267793
     4  O   -0.270577
     5  C    0.537908
     6  O   -0.267286
 Sum of Mulliken charges =  -0.00000

 Dipole moment (field-independent basis, Debye):
    X=              0.0177    Y=              0.0322    Z=              0.0000  Tot=              0.0367
 Quadrupole moment (field-independent basis, Debye-Ang):
   XX=            -34.5517   YY=            -34.5192   ZZ=            -29.3885
   XY=             -0.0149   XZ=              0.0000   YZ=              0.0000

 6\CCSD(T)=-376.6545791\RMSD=4.499e-09\PG=CS [SG(C2O4)]\\@
 Normal termination of Gaussian 16 at Mon Feb 12 22:10:15 2024.
