 Gaussian 16, Revision A.03,
 Gaussian 16:  ES64L-G16RevA.03 25-Dec-2016

 ------------------
 #p CCSD(T)/cc-pVTZ
 ------------------

 ---------
 CO2_CO2_3
 ---------
 Symbolic Z-matrix:
 Charge =  0 Multiplicity = 1

                         Standard orientation:
 ---------------------------------------------------------------------
 Center     Atomic      Atomic             Coordinates (Angstroms)
 Number     Number       Type             X           Y           Z
 ---------------------------------------------------------------------
      1          8           0        0.000000    0.000000    2.846000
      2          6           0        0.000000    0.000000    1.683000
      3          8           0        0.000000    0.000000    0.520000
      4          8           0        0.000000    0.000000   -0.520000
      5          6           0        0.000000    0.000000   -1.683000
      6          8           0        0.000000    0.000000   -2.846000
 ---------------------------------------------------------------------

 SCF Done:  E(RHF) =  -374.469079689     A.U. after   13 cycles
 E2 =    -0.1269539045D+01 EUMP2 =    -0.37573861873357D+03
 CCSD(T)
 CCSD(T)= -0.37577405636D+03

 Unable to determine electronic state:  an orbital has unidentified symmetry.
 Alpha  occ. eigenvalues --  -20.86068 -20.85900 -20.58948 -20.58948 -11.41514
 Alpha  occ. eigenvalues --  -11.41513  -1.99700  -1.53772  -1.44800  -1.43190
 Alpha  occ. eigenvalues --   -1.30729  -1.03396  -1.03199  -0.71639  -0.71432
 Alpha  occ. eigenvalues --   -0.71108  -0.70016  -0.61290  -0.57591  -0.52153
 Alpha  occ. eigenvalues --   -0.50006  -0.12896
 Alpha virt. eigenvalues --    0.12747   0.14422   0.15256   0.16484   0.24349
 Alpha virt. eigenvalues --    0.27305   0.32615   0.35266   0.35942   0.41248
 Alpha virt. eigenvalues --    0.41757   0.42698   0.49141   0.66576   0.66705

 Mulliken charges:
               1
     1  O   -0.351582
     2  C    0.099784
     3  O    0.251797
     4  O    0.251797
     5  C    0.099784
     6  O   -0.351582
 Sum of Mulliken charges =  -0.00000

 Dipole moment (field-independent basis, Debye):
    X=             -0.0000    Y=              0.0000    Z=             -0.0000  Tot=              0.0000
 Quadrupole moment (field-independent basis, Debye-Ang):
   XX=            -32.5930   YY=            -28.7703   ZZ=            -56.3992
   XY=              0.0000   XZ=              0.0000   YZ=              0.0000

 0684\MP4DQ=-375.6871563\MP4SDQ=-375.7077858\CCSD=-375.7032727\CCSD(T)=
 Normal termination of Gaussian 16 at Fri Feb  9 18:15:58 2024.
