 Gaussian 16, Revision A.03,
 Gaussian 16:  ES64L-G16RevA.03 25-Dec-2016

 ------------------
 #p CCSD(T)/cc-pVTZ
 ------------------

 -----------
 CO2_CO2_243
 -----------
 Symbolic Z-matrix:
 Charge =  0 Multiplicity = 1

                         Standard orientation:
 ---------------------------------------------------------------------
 Center     Atomic      Atomic             Coordinates (Angstroms)
 Number     Number       Type             X           Y           Z
 ---------------------------------------------------------------------
      1          8           0        0.000000    0.000000    4.446000
      2          6           0        0.000000    0.000000    3.283000
      3          8           0        0.000000    0.000000    2.120000
      4          8           0        0.000000    0.000000   -2.120000
      5          6           0        0.000000    0.000000   -3.283000
      6          8           0        0.000000    0.000000   -4.446000
 ---------------------------------------------------------------------

 SCF Done:  E(RHF) =  -375.412862347     A.U. after   10 cycles
 E2 =    -0.1203564427D+01 EUMP2 =    -0.37661642677377D+03
 CCSD(T)
 CCSD(T)= -0.37665431321D+03

 The electronic state is 1-SGG.
 Alpha  occ. eigenvalues --  -20.64778 -20.64778 -20.64747 -20.64747 -11.45732
 Alpha  occ. eigenvalues --  -11.45732  -1.52557  -1.52556  -1.47255  -1.47254
 Alpha  occ. eigenvalues --   -0.79675  -0.79621  -0.73865  -0.73792  -0.71035
 Alpha  occ. eigenvalues --   -0.71035  -0.71031  -0.71031  -0.54006  -0.54006
 Alpha  occ. eigenvalues --   -0.53995  -0.53995
 Alpha virt. eigenvalues --    0.17451   0.17827   0.20708   0.20708   0.20728
 Alpha virt. eigenvalues --    0.20728   0.32940   0.35619   0.39691   0.39691
 Alpha virt. eigenvalues --    0.39715   0.39715   0.54914   0.54975   0.63059

 Mulliken charges:
               1
     1  O   -0.270362
     2  C    0.534850
     3  O   -0.264488
     4  O   -0.264488
     5  C    0.534850
     6  O   -0.270362
 Sum of Mulliken charges =  -0.00000

 Dipole moment (field-independent basis, Debye):
    X=             -0.0000    Y=             -0.0000    Z=              0.0000  Tot=              0.0000
 Quadrupole moment (field-independent basis, Debye-Ang):
   XX=            -29.3920   YY=            -29.3920   ZZ=            -40.0461
   XY=              0.0000   XZ=              0.0000   YZ=             -0.0000

 1482\CCSD(T)=-376.6543132\RMSD=4.697e-09\PG=D*H [C*(O1C1O1.O1C1O1)]\\@
 Normal termination of Gaussian 16 at Mon Feb 12 19:36:36 2024.
