 Gaussian 16, Revision A.03,
 Gaussian 16:  ES64L-G16RevA.03 25-Dec-2016

 ------------------
 #p CCSD(T)/cc-pVTZ
 ------------------

 ----------
 CO2_CO2_94
 ----------
 Symbolic Z-matrix:
 Charge =  0 Multiplicity = 1

                         Standard orientation:
 ---------------------------------------------------------------------
 Center     Atomic      Atomic             Coordinates (Angstroms)
 Number     Number       Type             X           Y           Z
 ---------------------------------------------------------------------
      1          8           0        1.233548   -2.935048    0.000000
      2          6           0        0.411183   -2.112683    0.000000
      3          8           0       -0.411183   -1.290317    0.000000
      4          8           0       -0.411183    0.949682   -0.000000
      5          6           0       -0.411183    2.112682   -0.000000
      6          8           0       -0.411183    3.275683   -0.000000
 ---------------------------------------------------------------------

 SCF Done:  E(RHF) =  -375.397309899     A.U. after   11 cycles
 E2 =    -0.1208387101D+01 EUMP2 =    -0.37660569699996D+03
 CCSD(T)
 CCSD(T)= -0.37664289034D+03

 The electronic state is 1-A'.
 Alpha  occ. eigenvalues --  -20.64537 -20.64131 -20.64065 -20.63691 -11.45288
 Alpha  occ. eigenvalues --  -11.44915  -1.52411  -1.51835  -1.47152  -1.46441
 Alpha  occ. eigenvalues --   -0.82074  -0.77968  -0.75062  -0.71623  -0.70932
 Alpha  occ. eigenvalues --   -0.70652  -0.70248  -0.69175  -0.54171  -0.53937
 Alpha  occ. eigenvalues --   -0.52898  -0.52772
 Alpha virt. eigenvalues --    0.16912   0.19027   0.20495   0.20849   0.21345
 Alpha virt. eigenvalues --    0.21669   0.33620   0.36549   0.38640   0.39165
 Alpha virt. eigenvalues --    0.41010   0.43477   0.53855   0.55904   0.64851

 Mulliken charges:
               1
     1  O   -0.283477
     2  C    0.527673
     3  O   -0.246020
     4  O   -0.226831
     5  C    0.520111
     6  O   -0.291456
 Sum of Mulliken charges =  -0.00000

 Dipole moment (field-independent basis, Debye):
    X=             -0.1124    Y=              0.0588    Z=             -0.0000  Tot=              0.1268
 Quadrupole moment (field-independent basis, Debye-Ang):
   XX=            -32.0372   YY=            -38.2600   ZZ=            -29.4082
   XY=              2.7712   XZ=             -0.0000   YZ=              0.0000

 76.5936389\CCSD=-376.585089\CCSD(T)=-376.6428903\RMSD=4.072e-09\PG=CS
 Normal termination of Gaussian 16 at Sat Feb 10 02:52:40 2024.
