 Gaussian 16, Revision A.03,
 Gaussian 16:  ES64L-G16RevA.03 25-Dec-2016

 ------------------
 #p CCSD(T)/cc-pVTZ
 ------------------

 -----------
 CO2_CO2_150
 -----------
 Symbolic Z-matrix:
 Charge =  0 Multiplicity = 1

                         Standard orientation:
 ---------------------------------------------------------------------
 Center     Atomic      Atomic             Coordinates (Angstroms)
 Number     Number       Type             X           Y           Z
 ---------------------------------------------------------------------
      1          8           0        0.000000    0.000000    3.826000
      2          6           0        0.000000    0.000000    2.663000
      3          8           0        0.000000    0.000000    1.500000
      4          8           0        0.000000    0.000000   -1.500000
      5          6           0        0.000000    0.000000   -2.663000
      6          8           0        0.000000    0.000000   -3.826000
 ---------------------------------------------------------------------

 SCF Done:  E(RHF) =  -375.411830176     A.U. after   10 cycles
 E2 =    -0.1204650780D+01 EUMP2 =    -0.37661648095544D+03
 CCSD(T)
 CCSD(T)= -0.37665423735D+03

 The electronic state is 1-SGG.
 Alpha  occ. eigenvalues --  -20.64579 -20.64579 -20.64485 -20.64484 -11.45485
 Alpha  occ. eigenvalues --  -11.45485  -1.52361  -1.52322  -1.47065  -1.47003
 Alpha  occ. eigenvalues --   -0.79902  -0.78990  -0.74099  -0.72950  -0.70861
 Alpha  occ. eigenvalues --   -0.70861  -0.70778  -0.70778  -0.53878  -0.53878
 Alpha  occ. eigenvalues --   -0.53669  -0.53669
 Alpha virt. eigenvalues --    0.17543   0.18141   0.20718   0.20718   0.21098
 Alpha virt. eigenvalues --    0.21098   0.32922   0.37303   0.39632   0.39632
 Alpha virt. eigenvalues --    0.40033   0.40033   0.54751   0.54797   0.60828

 Mulliken charges:
               1
     1  O   -0.279628
     2  C    0.530105
     3  O   -0.250478
     4  O   -0.250478
     5  C    0.530105
     6  O   -0.279628
 Sum of Mulliken charges =   0.00000

 Dipole moment (field-independent basis, Debye):
    X=             -0.0000    Y=             -0.0000    Z=              0.0000  Tot=              0.0000
 Quadrupole moment (field-independent basis, Debye-Ang):
   XX=            -29.3997   YY=            -29.3997   ZZ=            -40.3928
   XY=              0.0000   XZ=              0.0000   YZ=              0.0000

 16\CCSD(T)=-376.6542374\RMSD=4.581e-09\PG=D*H [C*(O1C1O1.O1C1O1)]\\@
 Normal termination of Gaussian 16 at Sat Feb 10 19:08:27 2024.
