 Gaussian 16, Revision A.03,
 Gaussian 16:  ES64L-G16RevA.03 25-Dec-2016

 ------------------
 #p CCSD(T)/cc-pVTZ
 ------------------

 -----------
 CO2_CO2_224
 -----------
 Symbolic Z-matrix:
 Charge =  0 Multiplicity = 1

                         Standard orientation:
 ---------------------------------------------------------------------
 Center     Atomic      Atomic             Coordinates (Angstroms)
 Number     Number       Type             X           Y           Z
 ---------------------------------------------------------------------
      1          8           0       -1.744500   -2.561500    0.000000
      2          6           0       -0.581500   -2.561500    0.000000
      3          8           0        0.581500   -2.561500    0.000000
      4          8           0        0.581500    1.398500    0.000000
      5          6           0        0.581500    2.561500    0.000000
      6          8           0        0.581500    3.724500    0.000000
 ---------------------------------------------------------------------

 SCF Done:  E(RHF) =  -375.413497390     A.U. after   10 cycles
 E2 =    -0.1203516693D+01 EUMP2 =    -0.37661701408285D+03
 CCSD(T)
 CCSD(T)= -0.37665493767D+03

 The electronic state is 1-A'.
 Alpha  occ. eigenvalues --  -20.65222 -20.65186 -20.64654 -20.64615 -11.46191
 Alpha  occ. eigenvalues --  -11.45621  -1.52993  -1.52425  -1.47695  -1.47127
 Alpha  occ. eigenvalues --   -0.80120  -0.79549  -0.74310  -0.73736  -0.71466
 Alpha  occ. eigenvalues --   -0.71464  -0.70907  -0.70881  -0.54450  -0.54449
 Alpha  occ. eigenvalues --   -0.53887  -0.53874
 Alpha virt. eigenvalues --    0.16570   0.18195   0.20237   0.20289   0.20850
 Alpha virt. eigenvalues --    0.20968   0.32551   0.34818   0.39209   0.39242
 Alpha virt. eigenvalues --    0.39940   0.41197   0.54492   0.54722   0.65433

 Mulliken charges:
               1
     1  O   -0.271120
     2  C    0.537982
     3  O   -0.267193
     4  O   -0.270980
     5  C    0.539131
     6  O   -0.267819
 Sum of Mulliken charges =  -0.00000

 Dipole moment (field-independent basis, Debye):
    X=              0.0341    Y=              0.0559    Z=              0.0000  Tot=              0.0655
 Quadrupole moment (field-independent basis, Debye-Ang):
   XX=            -34.5610   YY=            -34.5078   ZZ=            -29.3886
   XY=             -0.0187   XZ=              0.0000   YZ=              0.0000

 752\CCSD(T)=-376.6549377\RMSD=5.060e-09\PG=CS [SG(C2O4)]\\@
 Normal termination of Gaussian 16 at Mon Feb 12 18:29:04 2024.
