 Gaussian 16, Revision A.03,
 Gaussian 16:  ES64L-G16RevA.03 25-Dec-2016

 ------------------
 #p CCSD(T)/cc-pVTZ
 ------------------

 -----------
 CO2_CO2_276
 -----------
 Symbolic Z-matrix:
 Charge =  0 Multiplicity = 1

                         Standard orientation:
 ---------------------------------------------------------------------
 Center     Atomic      Atomic             Coordinates (Angstroms)
 Number     Number       Type             X           Y           Z
 ---------------------------------------------------------------------
      1          8           0        0.000000    0.000000    4.666000
      2          6           0        0.000000    0.000000    3.503000
      3          8           0        0.000000    0.000000    2.340000
      4          8           0        0.000000    0.000000   -2.340000
      5          6           0        0.000000    0.000000   -3.503000
      6          8           0        0.000000    0.000000   -4.666000
 ---------------------------------------------------------------------

 SCF Done:  E(RHF) =  -375.412926864     A.U. after   10 cycles
 E2 =    -0.1203457090D+01 EUMP2 =    -0.37661638395400D+03
 CCSD(T)
 CCSD(T)= -0.37665428832D+03

 The electronic state is 1-SGG.
 Alpha  occ. eigenvalues --  -20.64815 -20.64815 -20.64791 -20.64791 -11.45776
 Alpha  occ. eigenvalues --  -11.45776  -1.52597  -1.52597  -1.47296  -1.47295
 Alpha  occ. eigenvalues --   -0.79703  -0.79685  -0.73888  -0.73864  -0.71073
 Alpha  occ. eigenvalues --   -0.71073  -0.71072  -0.71072  -0.54044  -0.54044
 Alpha  occ. eigenvalues --   -0.54041  -0.54041
 Alpha virt. eigenvalues --    0.17530   0.17716   0.20678   0.20678   0.20683
 Alpha virt. eigenvalues --    0.20683   0.33636   0.34983   0.39668   0.39668
 Alpha virt. eigenvalues --    0.39676   0.39676   0.54884   0.54951   0.64962

 Mulliken charges:
               1
     1  O   -0.269858
     2  C    0.535270
     3  O   -0.265413
     4  O   -0.265413
     5  C    0.535270
     6  O   -0.269858
 Sum of Mulliken charges =  -0.00000

 Dipole moment (field-independent basis, Debye):
    X=             -0.0000    Y=              0.0000    Z=             -0.0000  Tot=              0.0000
 Quadrupole moment (field-independent basis, Debye-Ang):
   XX=            -29.3909   YY=            -29.3909   ZZ=            -39.9854
   XY=              0.0000   XZ=              0.0000   YZ=             -0.0000

 38\CCSD(T)=-376.6542883\RMSD=4.694e-09\PG=D*H [C*(O1C1O1.O1C1O1)]\\@
 Normal termination of Gaussian 16 at Mon Feb 12 21:37:34 2024.
