 Gaussian 16, Revision A.03,
 Gaussian 16:  ES64L-G16RevA.03 25-Dec-2016

 ------------------
 #p CCSD(T)/cc-pVTZ
 ------------------

 ----------
 CO2_CO2_43
 ----------
 Symbolic Z-matrix:
 Charge =  0 Multiplicity = 1

                         Standard orientation:
 ---------------------------------------------------------------------
 Center     Atomic      Atomic             Coordinates (Angstroms)
 Number     Number       Type             X           Y           Z
 ---------------------------------------------------------------------
      1          8           0        1.233548   -2.595048    0.000000
      2          6           0        0.411183   -1.772683    0.000000
      3          8           0       -0.411183   -0.950318    0.000000
      4          8           0       -0.411183    0.609683   -0.000000
      5          6           0       -0.411183    1.772683   -0.000000
      6          8           0       -0.411183    2.935682   -0.000000
 ---------------------------------------------------------------------

 SCF Done:  E(RHF) =  -375.216766039     A.U. after   14 cycles
 E2 =    -0.1231632103D+01 EUMP2 =    -0.37644839814147D+03
 CCSD(T)
 CCSD(T)= -0.37648078835D+03

 The electronic state is 1-A'.
 Alpha  occ. eigenvalues --  -20.64230 -20.62628 -20.62203 -20.61998 -11.44065
 Alpha  occ. eigenvalues --  -11.42719  -1.54948  -1.50628  -1.47810  -1.44495
 Alpha  occ. eigenvalues --   -0.94797  -0.76641  -0.75225  -0.72831  -0.72301
 Alpha  occ. eigenvalues --   -0.69016  -0.68666  -0.60473  -0.56130  -0.53380
 Alpha  occ. eigenvalues --   -0.50297  -0.44922
 Alpha virt. eigenvalues --    0.16296   0.19368   0.19771   0.20654   0.22913
 Alpha virt. eigenvalues --    0.23510   0.34061   0.36498   0.37737   0.39109
 Alpha virt. eigenvalues --    0.42690   0.46333   0.53905   0.58424   0.68040

 Mulliken charges:
               1
     1  O   -0.305716
     2  C    0.497027
     3  O   -0.202665
     4  O   -0.200963
     5  C    0.521089
     6  O   -0.308772
 Sum of Mulliken charges =  -0.00000

 Dipole moment (field-independent basis, Debye):
    X=             -0.3145    Y=              0.4001    Z=             -0.0000  Tot=              0.5089
 Quadrupole moment (field-independent basis, Debye-Ang):
   XX=            -32.1724   YY=            -40.1308   ZZ=            -29.2901
   XY=              3.1390   XZ=             -0.0000   YZ=              0.0000

 -376.4311375\CCSD=-376.420281\CCSD(T)=-376.4807883\RMSD=6.060e-09\PG=C
 Normal termination of Gaussian 16 at Fri Feb  9 22:36:33 2024.
