 Gaussian 16, Revision A.03,
 Gaussian 16:  ES64L-G16RevA.03 25-Dec-2016

 ------------------
 #p CCSD(T)/cc-pVTZ
 ------------------

 -----------
 CO2_CO2_286
 -----------
 Symbolic Z-matrix:
 Charge =  0 Multiplicity = 1

                         Standard orientation:
 ---------------------------------------------------------------------
 Center     Atomic      Atomic             Coordinates (Angstroms)
 Number     Number       Type             X           Y           Z
 ---------------------------------------------------------------------
      1          8           0        1.233548   -4.215048   -0.000000
      2          6           0        0.411183   -3.392683   -0.000000
      3          8           0       -0.411183   -2.570318   -0.000000
      4          8           0       -0.411183    2.229683    0.000000
      5          6           0       -0.411183    3.392683    0.000000
      6          8           0       -0.411183    4.555683    0.000000
 ---------------------------------------------------------------------

 SCF Done:  E(RHF) =  -375.413012859     A.U. after   10 cycles
 E2 =    -0.1203411445D+01 EUMP2 =    -0.37661642430342D+03
 CCSD(T)
 CCSD(T)= -0.37665433889D+03

 The electronic state is 1-A'.
 Alpha  occ. eigenvalues --  -20.64908 -20.64894 -20.64814 -20.64790 -11.45876
 Alpha  occ. eigenvalues --  -11.45777  -1.52694  -1.52595  -1.47394  -1.47294
 Alpha  occ. eigenvalues --   -0.79797  -0.79699  -0.73981  -0.73882  -0.71170
 Alpha  occ. eigenvalues --   -0.71169  -0.71071  -0.71069  -0.54142  -0.54142
 Alpha  occ. eigenvalues --   -0.54044  -0.54041
 Alpha virt. eigenvalues --    0.17490   0.17680   0.20585   0.20586   0.20682
 Alpha virt. eigenvalues --    0.20687   0.33599   0.34929   0.39583   0.39585
 Alpha virt. eigenvalues --    0.39679   0.39698   0.54813   0.54937   0.65550

 Mulliken charges:
               1
     1  O   -0.269818
     2  C    0.535839
     3  O   -0.266018
     4  O   -0.266739
     5  C    0.535856
     6  O   -0.269120
 Sum of Mulliken charges =  -0.00000

 Dipole moment (field-independent basis, Debye):
    X=             -0.0145    Y=              0.0056    Z=             -0.0000  Tot=              0.0156
 Quadrupole moment (field-independent basis, Debye-Ang):
   XX=            -31.9689   YY=            -37.3036   ZZ=            -29.3902
   XY=              2.6020   XZ=             -0.0000   YZ=             -0.0000

 Q=-376.605367\CCSD=-376.5971944\CCSD(T)=-376.6543389\RMSD=5.999e-09\PG
 Normal termination of Gaussian 16 at Mon Feb 12 22:16:30 2024.
