 Gaussian 16, Revision A.03,
 Gaussian 16:  ES64L-G16RevA.03 25-Dec-2016

 ------------------
 #p CCSD(T)/cc-pVTZ
 ------------------

 -----------
 CO2_CO2_190
 -----------
 Symbolic Z-matrix:
 Charge =  0 Multiplicity = 1

                         Standard orientation:
 ---------------------------------------------------------------------
 Center     Atomic      Atomic             Coordinates (Angstroms)
 Number     Number       Type             X           Y           Z
 ---------------------------------------------------------------------
      1          8           0        1.233548   -3.575048    0.000000
      2          6           0        0.411183   -2.752683    0.000000
      3          8           0       -0.411183   -1.930317    0.000000
      4          8           0       -0.411183    1.589683   -0.000000
      5          6           0       -0.411183    2.752683   -0.000000
      6          8           0       -0.411183    3.915682   -0.000000
 ---------------------------------------------------------------------

 SCF Done:  E(RHF) =  -375.412763209     A.U. after   11 cycles
 E2 =    -0.1203939454D+01 EUMP2 =    -0.37661670266238D+03
 CCSD(T)
 CCSD(T)= -0.37665454624D+03

 The electronic state is 1-A'.
 Alpha  occ. eigenvalues --  -20.64822 -20.64790 -20.64670 -20.64620 -11.45772
 Alpha  occ. eigenvalues --  -11.45611  -1.52602  -1.52438  -1.47299  -1.47134
 Alpha  occ. eigenvalues --   -0.79754  -0.79466  -0.73955  -0.73614  -0.71079
 Alpha  occ. eigenvalues --   -0.71079  -0.70917  -0.70904  -0.54050  -0.54048
 Alpha  occ. eigenvalues --   -0.53878  -0.53867
 Alpha virt. eigenvalues --    0.17180   0.18076   0.20661   0.20661   0.20833
 Alpha virt. eigenvalues --    0.20834   0.31862   0.36652   0.39547   0.39565
 Alpha virt. eigenvalues --    0.39871   0.40256   0.54910   0.55028   0.60981

 Mulliken charges:
               1
     1  O   -0.272717
     2  C    0.534280
     3  O   -0.261435
     4  O   -0.262912
     5  C    0.534855
     6  O   -0.272070
 Sum of Mulliken charges =  -0.00000

 Dipole moment (field-independent basis, Debye):
    X=             -0.0335    Y=              0.0078    Z=             -0.0000  Tot=              0.0344
 Quadrupole moment (field-independent basis, Debye-Ang):
   XX=            -31.9768   YY=            -37.4717   ZZ=            -29.3934
   XY=              2.6323   XZ=             -0.0000   YZ=              0.0000

 Q=-376.6055429\CCSD=-376.5973265\CCSD(T)=-376.6545462\RMSD=2.860e-09\P
 Normal termination of Gaussian 16 at Sat Feb 10 22:23:33 2024.
