 Gaussian 16, Revision A.03,
 Gaussian 16:  ES64L-G16RevA.03 25-Dec-2016

 ------------------
 #p CCSD(T)/cc-pVTZ
 ------------------

 ---------
 CO2_CO2_6
 ---------
 Symbolic Z-matrix:
 Charge =  0 Multiplicity = 1

                         Standard orientation:
 ---------------------------------------------------------------------
 Center     Atomic      Atomic             Coordinates (Angstroms)
 Number     Number       Type             X           Y           Z
 ---------------------------------------------------------------------
      1          8           0        0.000000    0.000000    2.866000
      2          6           0        0.000000    0.000000    1.703000
      3          8           0        0.000000    0.000000    0.540000
      4          8           0        0.000000    0.000000   -0.540000
      5          6           0        0.000000    0.000000   -1.703000
      6          8           0        0.000000    0.000000   -2.866000
 ---------------------------------------------------------------------

 SCF Done:  E(RHF) =  -374.500654371     A.U. after   13 cycles
 E2 =    -0.1275382601D+01 EUMP2 =    -0.37577603697122D+03
 CCSD(T)
 CCSD(T)= -0.37581170530D+03

 Unable to determine electronic state:  an orbital has unidentified symmetry.
 Alpha  occ. eigenvalues --  -20.85567 -20.85440 -20.59142 -20.59142 -11.41709
 Alpha  occ. eigenvalues --  -11.41707  -1.94588  -1.53893  -1.44822  -1.43337
 Alpha  occ. eigenvalues --   -1.28764  -1.00677  -1.00403  -0.71790  -0.71611
 Alpha  occ. eigenvalues --   -0.71554  -0.70610  -0.61240  -0.57578  -0.52817
 Alpha  occ. eigenvalues --   -0.50657  -0.12363
 Alpha virt. eigenvalues --    0.12955   0.14340   0.14820   0.15640   0.23931
 Alpha virt. eigenvalues --    0.27491   0.29456   0.35376   0.36007   0.41156
 Alpha virt. eigenvalues --    0.41632   0.42557   0.49413   0.65779   0.66917

 Mulliken charges:
               1
     1  O   -0.345131
     2  C    0.112057
     3  O    0.233074
     4  O    0.233074
     5  C    0.112057
     6  O   -0.345131
 Sum of Mulliken charges =  -0.00000

 Dipole moment (field-independent basis, Debye):
    X=             -0.0000    Y=              0.0000    Z=              0.0000  Tot=              0.0000
 Quadrupole moment (field-independent basis, Debye-Ang):
   XX=            -32.6007   YY=            -28.8176   ZZ=            -56.2267
   XY=              0.0000   XZ=              0.0000   YZ=              0.0000

 229\MP4DQ=-375.7223503\MP4SDQ=-375.7433146\CCSD=-375.7389607\CCSD(T)=-
 Normal termination of Gaussian 16 at Fri Feb  9 18:41:56 2024.
