 Gaussian 16, Revision A.03,
 Gaussian 16:  ES64L-G16RevA.03 25-Dec-2016

 ------------------
 #p CCSD(T)/cc-pVTZ
 ------------------

 -----------
 CO2_CO2_157
 -----------
 Symbolic Z-matrix:
 Charge =  0 Multiplicity = 1

                         Standard orientation:
 ---------------------------------------------------------------------
 Center     Atomic      Atomic             Coordinates (Angstroms)
 Number     Number       Type             X           Y           Z
 ---------------------------------------------------------------------
      1          8           0        1.233548   -3.355048   -0.000000
      2          6           0        0.411183   -2.532683   -0.000000
      3          8           0       -0.411183   -1.710317   -0.000000
      4          8           0       -0.411183    1.369683    0.000000
      5          6           0       -0.411183    2.532683    0.000000
      6          8           0       -0.411183    3.695682    0.000000
 ---------------------------------------------------------------------

 SCF Done:  E(RHF) =  -375.412173188     A.U. after   11 cycles
 E2 =    -0.1204504317D+01 EUMP2 =    -0.37661667750441D+03
 CCSD(T)
 CCSD(T)= -0.37665446251D+03

 The electronic state is 1-A'.
 Alpha  occ. eigenvalues --  -20.64763 -20.64701 -20.64571 -20.64484 -11.45692
 Alpha  occ. eigenvalues --  -11.45489  -1.52539  -1.52328  -1.47236  -1.47020
 Alpha  occ. eigenvalues --   -0.79875  -0.79202  -0.74083  -0.73275  -0.71021
 Alpha  occ. eigenvalues --   -0.71019  -0.70805  -0.70771  -0.54009  -0.53995
 Alpha  occ. eigenvalues --   -0.53739  -0.53727
 Alpha virt. eigenvalues --    0.17166   0.18287   0.20674   0.20710   0.20928
 Alpha virt. eigenvalues --    0.20966   0.32484   0.36785   0.39431   0.39460
 Alpha virt. eigenvalues --    0.40082   0.40932   0.54768   0.55174   0.61825

 Mulliken charges:
               1
     1  O   -0.275606
     2  C    0.532075
     3  O   -0.256436
     4  O   -0.256190
     5  C    0.532705
     6  O   -0.276547
 Sum of Mulliken charges =  -0.00000

 Dipole moment (field-independent basis, Debye):
    X=             -0.0485    Y=              0.0125    Z=             -0.0000  Tot=              0.0501
 Quadrupole moment (field-independent basis, Debye-Ang):
   XX=            -31.9847   YY=            -37.6091   ZZ=            -29.3968
   XY=              2.6571   XZ=              0.0000   YZ=             -0.0000

 Q=-376.6054182\CCSD=-376.5971603\CCSD(T)=-376.6544625\RMSD=3.326e-09\P
 Normal termination of Gaussian 16 at Sat Feb 10 19:42:46 2024.
