 Gaussian 16, Revision A.03,
 Gaussian 16:  ES64L-G16RevA.03 25-Dec-2016

 ------------------
 #p CCSD(T)/cc-pVTZ
 ------------------

 -----------
 CO2_CO2_298
 -----------
 Symbolic Z-matrix:
 Charge =  0 Multiplicity = 1

                         Standard orientation:
 ---------------------------------------------------------------------
 Center     Atomic      Atomic             Coordinates (Angstroms)
 Number     Number       Type             X           Y           Z
 ---------------------------------------------------------------------
      1          8           0        1.233548   -4.295048    0.000000
      2          6           0        0.411183   -3.472683    0.000000
      3          8           0       -0.411183   -2.650318    0.000000
      4          8           0       -0.411183    2.309683   -0.000000
      5          6           0       -0.411183    3.472683   -0.000000
      6          8           0       -0.411183    4.635682   -0.000000
 ---------------------------------------------------------------------

 SCF Done:  E(RHF) =  -375.413025391     A.U. after   10 cycles
 E2 =    -0.1203391365D+01 EUMP2 =    -0.37661641675609D+03
 CCSD(T)
 CCSD(T)= -0.37665433470D+03

 The electronic state is 1-A'.
 Alpha  occ. eigenvalues --  -20.64914 -20.64902 -20.64825 -20.64803 -11.45883
 Alpha  occ. eigenvalues --  -11.45790  -1.52701  -1.52607  -1.47401  -1.47307
 Alpha  occ. eigenvalues --   -0.79804  -0.79712  -0.73988  -0.73896  -0.71176
 Alpha  occ. eigenvalues --   -0.71176  -0.71083  -0.71081  -0.54149  -0.54149
 Alpha  occ. eigenvalues --   -0.54056  -0.54054
 Alpha virt. eigenvalues --    0.17505   0.17653   0.20579   0.20580   0.20670
 Alpha virt. eigenvalues --    0.20675   0.33773   0.34754   0.39580   0.39580
 Alpha virt. eigenvalues --    0.39669   0.39683   0.54813   0.54922   0.65714

 Mulliken charges:
               1
     1  O   -0.269695
     2  C    0.535933
     3  O   -0.266237
     4  O   -0.266904
     5  C    0.535950
     6  O   -0.269048
 Sum of Mulliken charges =  -0.00000

 Dipole moment (field-independent basis, Debye):
    X=             -0.0132    Y=              0.0053    Z=             -0.0000  Tot=              0.0143
 Quadrupole moment (field-independent basis, Debye-Ang):
   XX=            -31.9683   YY=            -37.2906   ZZ=            -29.3900
   XY=              2.5998   XZ=             -0.0000   YZ=              0.0000

 76.6053635\CCSD=-376.597193\CCSD(T)=-376.6543347\RMSD=5.480e-09\PG=CS
 Normal termination of Gaussian 16 at Mon Feb 12 22:59:30 2024.
