 Gaussian 16, Revision A.03,
 Gaussian 16:  ES64L-G16RevA.03 25-Dec-2016

 ------------------
 #p CCSD(T)/cc-pVTZ
 ------------------

 -----------
 CO2_CO2_294
 -----------
 Symbolic Z-matrix:
 Charge =  0 Multiplicity = 1

                         Standard orientation:
 ---------------------------------------------------------------------
 Center     Atomic      Atomic             Coordinates (Angstroms)
 Number     Number       Type             X           Y           Z
 ---------------------------------------------------------------------
      1          8           0        0.000000    0.000000    4.786000
      2          6           0        0.000000    0.000000    3.623000
      3          8           0        0.000000    0.000000    2.460000
      4          8           0        0.000000    0.000000   -2.460000
      5          6           0        0.000000    0.000000   -3.623000
      6          8           0        0.000000    0.000000   -4.786000
 ---------------------------------------------------------------------

 SCF Done:  E(RHF) =  -375.412956118     A.U. after   10 cycles
 E2 =    -0.1203420708D+01 EUMP2 =    -0.37661637682513D+03
 CCSD(T)
 CCSD(T)= -0.37665428762D+03

 The electronic state is 1-SGG.
 Alpha  occ. eigenvalues --  -20.64832 -20.64832 -20.64810 -20.64810 -11.45795
 Alpha  occ. eigenvalues --  -11.45795  -1.52615  -1.52615  -1.47314  -1.47314
 Alpha  occ. eigenvalues --   -0.79719  -0.79710  -0.73903  -0.73891  -0.71091
 Alpha  occ. eigenvalues --   -0.71091  -0.71090  -0.71090  -0.54062  -0.54062
 Alpha  occ. eigenvalues --   -0.54061  -0.54061
 Alpha virt. eigenvalues --    0.17556   0.17668   0.20662   0.20662   0.20664
 Alpha virt. eigenvalues --    0.20664   0.33886   0.34726   0.39656   0.39656
 Alpha virt. eigenvalues --    0.39660   0.39660   0.54879   0.54928   0.65479

 Mulliken charges:
               1
     1  O   -0.269675
     2  C    0.535478
     3  O   -0.265803
     4  O   -0.265803
     5  C    0.535478
     6  O   -0.269675
 Sum of Mulliken charges =  -0.00000

 Dipole moment (field-independent basis, Debye):
    X=             -0.0000    Y=             -0.0000    Z=             -0.0000  Tot=              0.0000
 Quadrupole moment (field-independent basis, Debye-Ang):
   XX=            -29.3905   YY=            -29.3905   ZZ=            -39.9572
   XY=              0.0000   XZ=              0.0000   YZ=             -0.0000

 71422\CCSD(T)=-376.6542876\RMSD=4.695e-09\PG=D*H [C*(O1C1O1.O1C1O1)]\\
 Normal termination of Gaussian 16 at Mon Feb 12 22:44:19 2024.
