 Gaussian 16, Revision A.03,
 Gaussian 16:  ES64L-G16RevA.03 25-Dec-2016

 ------------------
 #p CCSD(T)/cc-pVTZ
 ------------------

 -----------
 CO2_CO2_111
 -----------
 Symbolic Z-matrix:
 Charge =  0 Multiplicity = 1

                         Standard orientation:
 ---------------------------------------------------------------------
 Center     Atomic      Atomic             Coordinates (Angstroms)
 Number     Number       Type             X           Y           Z
 ---------------------------------------------------------------------
      1          8           0        0.000000    0.000000    3.566000
      2          6           0        0.000000    0.000000    2.403000
      3          8           0        0.000000    0.000000    1.240000
      4          8           0        0.000000    0.000000   -1.240000
      5          6           0        0.000000    0.000000   -2.403000
      6          8           0        0.000000    0.000000   -3.566000
 ---------------------------------------------------------------------

 SCF Done:  E(RHF) =  -375.406938213     A.U. after   10 cycles
 E2 =    -0.1206303293D+01 EUMP2 =    -0.37661324150679D+03
 CCSD(T)
 CCSD(T)= -0.37665075764D+03

 The electronic state is 1-SGG.
 Alpha  occ. eigenvalues --  -20.64396 -20.64396 -20.64123 -20.64122 -11.45217
 Alpha  occ. eigenvalues --  -11.45217  -1.52238  -1.52060  -1.46968  -1.46701
 Alpha  occ. eigenvalues --   -0.80989  -0.78190  -0.74681  -0.71246  -0.70769
 Alpha  occ. eigenvalues --   -0.70769  -0.70480  -0.70480  -0.53908  -0.53908
 Alpha  occ. eigenvalues --   -0.53225  -0.53225
 Alpha virt. eigenvalues --    0.17480   0.18458   0.20597   0.20597   0.21543
 Alpha virt. eigenvalues --    0.21543   0.33208   0.38397   0.39355   0.39355
 Alpha virt. eigenvalues --    0.40406   0.40406   0.53929   0.55132   0.67156

 Mulliken charges:
               1
     1  O   -0.289182
     2  C    0.519863
     3  O   -0.230681
     4  O   -0.230681
     5  C    0.519863
     6  O   -0.289182
 Sum of Mulliken charges =  -0.00000

 Dipole moment (field-independent basis, Debye):
    X=             -0.0000    Y=              0.0000    Z=             -0.0000  Tot=              0.0000
 Quadrupole moment (field-independent basis, Debye-Ang):
   XX=            -29.4101   YY=            -29.4101   ZZ=            -40.7494
   XY=              0.0000   XZ=              0.0000   YZ=              0.0000

 2323\CCSD(T)=-376.6507576\RMSD=5.286e-09\PG=D*H [C*(O1C1O1.O1C1O1)]\\@
 Normal termination of Gaussian 16 at Sat Feb 10 15:56:29 2024.
