 Gaussian 16, Revision A.03,
 Gaussian 16:  ES64L-G16RevA.03 25-Dec-2016

 ------------------
 #p CCSD(T)/cc-pVTZ
 ------------------

 -----------
 CO2_CO2_200
 -----------
 Symbolic Z-matrix:
 Charge =  0 Multiplicity = 1

                         Standard orientation:
 ---------------------------------------------------------------------
 Center     Atomic      Atomic             Coordinates (Angstroms)
 Number     Number       Type             X           Y           Z
 ---------------------------------------------------------------------
      1          8           0       -1.744500   -2.401500    0.000000
      2          6           0       -0.581500   -2.401500    0.000000
      3          8           0        0.581500   -2.401500    0.000000
      4          8           0        0.581500    1.238500    0.000000
      5          6           0        0.581500    2.401500    0.000000
      6          8           0        0.581500    3.564500    0.000000
 ---------------------------------------------------------------------

 SCF Done:  E(RHF) =  -375.413562788     A.U. after   10 cycles
 E2 =    -0.1203704222D+01 EUMP2 =    -0.37661726700968D+03
 CCSD(T)
 CCSD(T)= -0.37665517892D+03

 The electronic state is 1-A'.
 Alpha  occ. eigenvalues --  -20.65269 -20.65227 -20.64593 -20.64534 -11.46237
 Alpha  occ. eigenvalues --  -11.45552  -1.53037  -1.52354  -1.47740  -1.47056
 Alpha  occ. eigenvalues --   -0.80172  -0.79482  -0.74370  -0.73667  -0.71510
 Alpha  occ. eigenvalues --   -0.71508  -0.70838  -0.70793  -0.54496  -0.54494
 Alpha  occ. eigenvalues --   -0.53819  -0.53801
 Alpha virt. eigenvalues --    0.16445   0.18376   0.20149   0.20237   0.20920
 Alpha virt. eigenvalues --    0.21174   0.32774   0.34726   0.39018   0.39167
 Alpha virt. eigenvalues --    0.40126   0.41957   0.54507   0.54830   0.64794

 Mulliken charges:
               1
     1  O   -0.271552
     2  C    0.537468
     3  O   -0.266498
     4  O   -0.269996
     5  C    0.539533
     6  O   -0.268954
 Sum of Mulliken charges =  -0.00000

 Dipole moment (field-independent basis, Debye):
    X=              0.0458    Y=              0.0708    Z=              0.0000  Tot=              0.0843
 Quadrupole moment (field-independent basis, Debye-Ang):
   XX=            -34.5662   YY=            -34.5097   ZZ=            -29.3886
   XY=             -0.0216   XZ=              0.0000   YZ=              0.0000

 78\CCSD(T)=-376.6551789\RMSD=5.817e-09\PG=CS [SG(C2O4)]\\@
 Normal termination of Gaussian 16 at Sat Feb 10 23:14:46 2024.
