 Gaussian 16, Revision A.03,
 Gaussian 16:  ES64L-G16RevA.03 25-Dec-2016

 ------------------
 #p CCSD(T)/cc-pVTZ
 ------------------

 -----------
 CO2_CO2_110
 -----------
 Symbolic Z-matrix:
 Charge =  0 Multiplicity = 1

                         Standard orientation:
 ---------------------------------------------------------------------
 Center     Atomic      Atomic             Coordinates (Angstroms)
 Number     Number       Type             X           Y           Z
 ---------------------------------------------------------------------
      1          8           0       -1.744500   -1.801500    0.000000
      2          6           0       -0.581500   -1.801500    0.000000
      3          8           0        0.581500   -1.801500    0.000000
      4          8           0        0.581500    0.638500    0.000000
      5          6           0        0.581500    1.801500    0.000000
      6          8           0        0.581500    2.964500    0.000000
 ---------------------------------------------------------------------

 SCF Done:  E(RHF) =  -375.404980471     A.U. after   13 cycles
 E2 =    -0.1207143521D+01 EUMP2 =    -0.37661212399199D+03
 CCSD(T)
 CCSD(T)= -0.37664974161D+03

 The electronic state is 1-A'.
 Alpha  occ. eigenvalues --  -20.65479 -20.65305 -20.64117 -20.63539 -11.46428
 Alpha  occ. eigenvalues --  -11.44907  -1.53355  -1.51767  -1.48038  -1.46429
 Alpha  occ. eigenvalues --   -0.81155  -0.78925  -0.75504  -0.73059  -0.71828
 Alpha  occ. eigenvalues --   -0.71737  -0.70224  -0.69113  -0.54855  -0.54785
 Alpha  occ. eigenvalues --   -0.53139  -0.52961
 Alpha virt. eigenvalues --    0.16111   0.19414   0.19799   0.19955   0.21384
 Alpha virt. eigenvalues --    0.22767   0.34267   0.35371   0.37434   0.39513
 Alpha virt. eigenvalues --    0.42086   0.47099   0.53210   0.57786   0.66716

 Mulliken charges:
               1
     1  O   -0.279745
     2  C    0.537303
     3  O   -0.263716
     4  O   -0.249248
     5  C    0.535373
     6  O   -0.279966
 Sum of Mulliken charges =  -0.00000

 Dipole moment (field-independent basis, Debye):
    X=              0.1761    Y=              0.2031    Z=              0.0000  Tot=              0.2688
 Quadrupole moment (field-independent basis, Debye-Ang):
   XX=            -34.6196   YY=            -34.8111   ZZ=            -29.3945
   XY=             -0.0691   XZ=              0.0000   YZ=              0.0000

 327\CCSD(T)=-376.6497416\RMSD=2.120e-09\PG=CS [SG(C2O4)]\\@
 Normal termination of Gaussian 16 at Sat Feb 10 15:53:58 2024.
