 Gaussian 16, Revision A.03,
 Gaussian 16:  ES64L-G16RevA.03 25-Dec-2016

 ------------------
 #p CCSD(T)/cc-pVTZ
 ------------------

 ----------
 CO2_CO2_38
 ----------
 Symbolic Z-matrix:
 Charge =  0 Multiplicity = 1

                         Standard orientation:
 ---------------------------------------------------------------------
 Center     Atomic      Atomic             Coordinates (Angstroms)
 Number     Number       Type             X           Y           Z
 ---------------------------------------------------------------------
      1          8           0       -1.744500   -1.321500    0.000000
      2          6           0       -0.581500   -1.321500    0.000000
      3          8           0        0.581500   -1.321500    0.000000
      4          8           0        0.581500    0.158500    0.000000
      5          6           0        0.581500    1.321500    0.000000
      6          8           0        0.581500    2.484500    0.000000
 ---------------------------------------------------------------------

 SCF Done:  E(RHF) =  -375.099920042     A.U. after   15 cycles
 E2 =    -0.1245493387D+01 EUMP2 =    -0.37634541342900D+03
 CCSD(T)
 CCSD(T)= -0.37637651570D+03

 The electronic state is 1-A'.
 Alpha  occ. eigenvalues --  -20.65311 -20.63260 -20.63171 -20.60947 -11.44780
 Alpha  occ. eigenvalues --  -11.43149  -1.60202  -1.51165  -1.48433  -1.44191
 Alpha  occ. eigenvalues --   -0.93267  -0.81149  -0.77089  -0.75019  -0.74437
 Alpha  occ. eigenvalues --   -0.69503  -0.68547  -0.62398  -0.57407  -0.54233
 Alpha  occ. eigenvalues --   -0.50152  -0.38253
 Alpha virt. eigenvalues --    0.15530   0.17296   0.19168   0.21912   0.22931
 Alpha virt. eigenvalues --    0.24497   0.33005   0.36557   0.37633   0.41333
 Alpha virt. eigenvalues --    0.44040   0.46818   0.54862   0.58306   0.64757

 Mulliken charges:
               1
     1  O   -0.291345
     2  C    0.468048
     3  O   -0.189008
     4  O   -0.208723
     5  C    0.509286
     6  O   -0.288258
 Sum of Mulliken charges =  -0.00000

 Dipole moment (field-independent basis, Debye):
    X=              0.6612    Y=              0.4276    Z=              0.0000  Tot=              0.7874
 Quadrupole moment (field-independent basis, Debye-Ang):
   XX=            -34.5149   YY=            -36.8767   ZZ=            -29.2194
   XY=             -0.5024   XZ=              0.0000   YZ=              0.0000

 \CCSD(T)=-376.3765157\RMSD=3.499e-09\PG=CS [SG(C2O4)]\\@
 Normal termination of Gaussian 16 at Fri Feb  9 22:12:24 2024.
