 Gaussian 16, Revision A.03,
 Gaussian 16:  ES64L-G16RevA.03 25-Dec-2016

 ------------------
 #p CCSD(T)/cc-pVTZ
 ------------------

 -----------
 CO2_CO2_234
 -----------
 Symbolic Z-matrix:
 Charge =  0 Multiplicity = 1

                         Standard orientation:
 ---------------------------------------------------------------------
 Center     Atomic      Atomic             Coordinates (Angstroms)
 Number     Number       Type             X           Y           Z
 ---------------------------------------------------------------------
      1          8           0        0.000000    0.000000    4.386000
      2          6           0        0.000000    0.000000    3.223000
      3          8           0        0.000000    0.000000    2.060000
      4          8           0        0.000000    0.000000   -2.060000
      5          6           0        0.000000    0.000000   -3.223000
      6          8           0        0.000000    0.000000   -4.386000
 ---------------------------------------------------------------------

 SCF Done:  E(RHF) =  -375.412839925     A.U. after   10 cycles
 E2 =    -0.1203607385D+01 EUMP2 =    -0.37661644731089D+03
 CCSD(T)
 CCSD(T)= -0.37665432709D+03

 The electronic state is 1-SGG.
 Alpha  occ. eigenvalues --  -20.64766 -20.64766 -20.64733 -20.64733 -11.45718
 Alpha  occ. eigenvalues --  -11.45718  -1.52544  -1.52543  -1.47242  -1.47240
 Alpha  occ. eigenvalues --   -0.79670  -0.79596  -0.73861  -0.73764  -0.71023
 Alpha  occ. eigenvalues --   -0.71023  -0.71017  -0.71017  -0.53994  -0.53994
 Alpha  occ. eigenvalues --   -0.53980  -0.53980
 Alpha virt. eigenvalues --    0.17426   0.17860   0.20716   0.20716   0.20745
 Alpha virt. eigenvalues --    0.20745   0.32721   0.35810   0.39696   0.39696
 Alpha virt. eigenvalues --    0.39729   0.39729   0.54936   0.54972   0.62309

 Mulliken charges:
               1
     1  O   -0.270587
     2  C    0.534743
     3  O   -0.264156
     4  O   -0.264156
     5  C    0.534743
     6  O   -0.270587
 Sum of Mulliken charges =  -0.00000

 Dipole moment (field-independent basis, Debye):
    X=             -0.0000    Y=             -0.0000    Z=              0.0000  Tot=              0.0000
 Quadrupole moment (field-independent basis, Debye-Ang):
   XX=            -29.3923   YY=            -29.3923   ZZ=            -40.0654
   XY=              0.0000   XZ=              0.0000   YZ=             -0.0000

 71561\CCSD(T)=-376.6543271\RMSD=4.697e-09\PG=D*H [C*(O1C1O1.O1C1O1)]\\
 Normal termination of Gaussian 16 at Mon Feb 12 19:03:59 2024.
