 Gaussian 16, Revision A.03,
 Gaussian 16:  ES64L-G16RevA.03 25-Dec-2016

 ------------------
 #p CCSD(T)/cc-pVTZ
 ------------------

 -----------
 CO2_CO2_232
 -----------
 Symbolic Z-matrix:
 Charge =  0 Multiplicity = 1

                         Standard orientation:
 ---------------------------------------------------------------------
 Center     Atomic      Atomic             Coordinates (Angstroms)
 Number     Number       Type             X           Y           Z
 ---------------------------------------------------------------------
      1          8           0        1.233548   -3.855048    0.000000
      2          6           0        0.411183   -3.032683    0.000000
      3          8           0       -0.411183   -2.210318    0.000000
      4          8           0       -0.411183    1.869683   -0.000000
      5          6           0       -0.411183    3.032683   -0.000000
      6          8           0       -0.411183    4.195682   -0.000000
 ---------------------------------------------------------------------

 SCF Done:  E(RHF) =  -375.412943948     A.U. after   11 cycles
 E2 =    -0.1203590004D+01 EUMP2 =    -0.37661653395208D+03
 CCSD(T)
 CCSD(T)= -0.37665442037D+03

 The electronic state is 1-A'.
 Alpha  occ. eigenvalues --  -20.64870 -20.64851 -20.64749 -20.64715 -11.45832
 Alpha  occ. eigenvalues --  -11.45703  -1.52654  -1.52524  -1.47353  -1.47222
 Alpha  occ. eigenvalues --   -0.79757  -0.79615  -0.73944  -0.73791  -0.71130
 Alpha  occ. eigenvalues --   -0.71130  -0.71002  -0.70996  -0.54100  -0.54100
 Alpha  occ. eigenvalues --   -0.53971  -0.53965
 Alpha virt. eigenvalues --    0.17318   0.17874   0.20620   0.20623   0.20748
 Alpha virt. eigenvalues --    0.20756   0.32371   0.36012   0.39587   0.39601
 Alpha virt. eigenvalues --    0.39746   0.39852   0.54823   0.54990   0.63475

 Mulliken charges:
               1
     1  O   -0.270726
     2  C    0.535306
     3  O   -0.264532
     4  O   -0.265613
     5  C    0.535361
     6  O   -0.269796
 Sum of Mulliken charges =  -0.00000

 Dipole moment (field-independent basis, Debye):
    X=             -0.0226    Y=              0.0067    Z=             -0.0000  Tot=              0.0236
 Quadrupole moment (field-independent basis, Debye-Ang):
   XX=            -31.9725   YY=            -37.3763   ZZ=            -29.3916
   XY=              2.6150   XZ=             -0.0000   YZ=              0.0000

 =-376.60544\CCSD=-376.5972512\CCSD(T)=-376.6544204\RMSD=2.603e-09\PG=C
 Normal termination of Gaussian 16 at Mon Feb 12 18:57:07 2024.
