 Gaussian 16, Revision A.03,
 Gaussian 16:  ES64L-G16RevA.03 25-Dec-2016

 ------------------
 #p CCSD(T)/cc-pVTZ
 ------------------

 ---------
 CO2_CO2_9
 ---------
 Symbolic Z-matrix:
 Charge =  0 Multiplicity = 1

                         Standard orientation:
 ---------------------------------------------------------------------
 Center     Atomic      Atomic             Coordinates (Angstroms)
 Number     Number       Type             X           Y           Z
 ---------------------------------------------------------------------
      1          8           0        0.000000    0.000000    2.886000
      2          6           0        0.000000    0.000000    1.723000
      3          8           0        0.000000    0.000000    0.560000
      4          8           0        0.000000    0.000000   -0.560000
      5          6           0        0.000000    0.000000   -1.723000
      6          8           0        0.000000    0.000000   -2.886000
 ---------------------------------------------------------------------

 SCF Done:  E(RHF) =  -374.519951372     A.U. after   12 cycles
 E2 =    -0.1281590058D+01 EUMP2 =    -0.37580154142993D+03
 CCSD(T)
 CCSD(T)= -0.37583750108D+03

 Unable to determine electronic state:  an orbital has unidentified symmetry.
 Alpha  occ. eigenvalues --  -20.85208 -20.85109 -20.59323 -20.59323 -11.41894
 Alpha  occ. eigenvalues --  -11.41893  -1.90038  -1.54057  -1.44854  -1.43480
 Alpha  occ. eigenvalues --   -1.26745  -0.98292  -0.97945  -0.72111  -0.71930
 Alpha  occ. eigenvalues --   -0.71665  -0.71190  -0.61185  -0.57559  -0.53420
 Alpha  occ. eigenvalues --   -0.51238  -0.11879
 Alpha virt. eigenvalues --    0.12924   0.13144   0.14878   0.15174   0.23549
 Alpha virt. eigenvalues --    0.26551   0.27668   0.35479   0.36067   0.41054
 Alpha virt. eigenvalues --    0.41516   0.42426   0.49642   0.64912   0.67132

 Mulliken charges:
               1
     1  O   -0.339346
     2  C    0.122851
     3  O    0.216495
     4  O    0.216495
     5  C    0.122851
     6  O   -0.339346
 Sum of Mulliken charges =   0.00000

 Dipole moment (field-independent basis, Debye):
    X=             -0.0000    Y=              0.0000    Z=              0.0000  Tot=              0.0000
 Quadrupole moment (field-independent basis, Debye-Ang):
   XX=            -28.8650   YY=            -32.6119   ZZ=            -56.0745
   XY=              0.0000   XZ=              0.0000   YZ=              0.0000

 5872\MP4DQ=-375.7453988\MP4SDQ=-375.7667552\CCSD=-375.7625635\CCSD(T)=
 Normal termination of Gaussian 16 at Fri Feb  9 19:16:56 2024.
