 Gaussian 16, Revision A.03,
 Gaussian 16:  ES64L-G16RevA.03 25-Dec-2016

 ------------------
 #p CCSD(T)/cc-pVTZ
 ------------------

 ----------
 CO2_CO2_25
 ----------
 Symbolic Z-matrix:
 Charge =  0 Multiplicity = 1

                         Standard orientation:
 ---------------------------------------------------------------------
 Center     Atomic      Atomic             Coordinates (Angstroms)
 Number     Number       Type             X           Y           Z
 ---------------------------------------------------------------------
      1          8           0        1.233548   -2.475048    0.000000
      2          6           0        0.411183   -1.652682    0.000000
      3          8           0       -0.411183   -0.830317    0.000000
      4          8           0       -0.411183    0.489683   -0.000000
      5          6           0       -0.411183    1.652682   -0.000000
      6          8           0       -0.411183    2.815682   -0.000000
 ---------------------------------------------------------------------

 SCF Done:  E(RHF) =  -374.968040024     A.U. after   15 cycles
 E2 =    -0.1262655148D+01 EUMP2 =    -0.37623069517232D+03
 CCSD(T)
 CCSD(T)= -0.37625679684D+03

 The electronic state is 1-A'.
 Alpha  occ. eigenvalues --  -20.64975 -20.64441 -20.64369 -20.60097 -11.44437
 Alpha  occ. eigenvalues --  -11.39118  -1.63429  -1.50891  -1.46945  -1.43428
 Alpha  occ. eigenvalues --   -1.05437  -0.78146  -0.76876  -0.76809  -0.72777
 Alpha  occ. eigenvalues --   -0.68534  -0.67926  -0.59329  -0.57933  -0.52748
 Alpha  occ. eigenvalues --   -0.49000  -0.31485
 Alpha virt. eigenvalues --    0.15408   0.17763   0.18157   0.20464   0.24553
 Alpha virt. eigenvalues --    0.24995   0.33734   0.36887   0.37203   0.38962
 Alpha virt. eigenvalues --    0.43866   0.48017   0.53754   0.60552   0.67391

 Mulliken charges:
               1
     1  O   -0.328876
     2  C    0.406225
     3  O   -0.132695
     4  O   -0.150972
     5  C    0.498827
     6  O   -0.292510
 Sum of Mulliken charges =  -0.00000

 Dipole moment (field-independent basis, Debye):
    X=             -0.6704    Y=              1.4011    Z=             -0.0000  Tot=              1.5533
 Quadrupole moment (field-independent basis, Debye-Ang):
   XX=            -32.4759   YY=            -42.4271   ZZ=            -29.1267
   XY=              3.5815   XZ=             -0.0000   YZ=              0.0000

 376.2055381\CCSD=-376.1918559\CCSD(T)=-376.2567968\RMSD=9.403e-09\PG=C
 Normal termination of Gaussian 16 at Fri Feb  9 21:01:44 2024.
