 Gaussian 16, Revision A.03,
 Gaussian 16:  ES64L-G16RevA.03 25-Dec-2016

 ------------------
 #p CCSD(T)/cc-pVTZ
 ------------------

 -----------
 CO2_CO2_198
 -----------
 Symbolic Z-matrix:
 Charge =  0 Multiplicity = 1

                         Standard orientation:
 ---------------------------------------------------------------------
 Center     Atomic      Atomic             Coordinates (Angstroms)
 Number     Number       Type             X           Y           Z
 ---------------------------------------------------------------------
      1          8           0        0.000000    0.000000    4.146000
      2          6           0        0.000000    0.000000    2.983000
      3          8           0        0.000000    0.000000    1.820000
      4          8           0        0.000000    0.000000   -1.820000
      5          6           0        0.000000    0.000000   -2.983000
      6          8           0        0.000000    0.000000   -4.146000
 ---------------------------------------------------------------------

 SCF Done:  E(RHF) =  -375.412684631     A.U. after   10 cycles
 E2 =    -0.1203870312D+01 EUMP2 =    -0.37661655494352D+03
 CCSD(T)
 CCSD(T)= -0.37665439974D+03

 The electronic state is 1-SGG.
 Alpha  occ. eigenvalues --  -20.64706 -20.64706 -20.64661 -20.64661 -11.45647
 Alpha  occ. eigenvalues --  -11.45647  -1.52482  -1.52475  -1.47180  -1.47170
 Alpha  occ. eigenvalues --   -0.79671  -0.79449  -0.73873  -0.73590  -0.70965
 Alpha  occ. eigenvalues --   -0.70965  -0.70947  -0.70947  -0.53943  -0.53943
 Alpha  occ. eigenvalues --   -0.53895  -0.53895
 Alpha virt. eigenvalues --    0.17389   0.17980   0.20739   0.20739   0.20840
 Alpha virt. eigenvalues --    0.20840   0.32138   0.36515   0.39707   0.39707
 Alpha virt. eigenvalues --    0.39809   0.39809   0.54900   0.55150   0.59212

 Mulliken charges:
               1
     1  O   -0.272497
     2  C    0.534310
     3  O   -0.261813
     4  O   -0.261813
     5  C    0.534310
     6  O   -0.272497
 Sum of Mulliken charges =   0.00000

 Dipole moment (field-independent basis, Debye):
    X=             -0.0000    Y=              0.0000    Z=              0.0000  Tot=              0.0000
 Quadrupole moment (field-independent basis, Debye-Ang):
   XX=            -29.3940   YY=            -29.3940   ZZ=            -40.1637
   XY=              0.0000   XZ=              0.0000   YZ=             -0.0000

 71919\CCSD(T)=-376.6543997\RMSD=4.655e-09\PG=D*H [C*(O1C1O1.O1C1O1)]\\
 Normal termination of Gaussian 16 at Sat Feb 10 23:01:04 2024.
