 Gaussian 16, Revision A.03,
 Gaussian 16:  ES64L-G16RevA.03 25-Dec-2016

 ------------------
 #p CCSD(T)/cc-pVTZ
 ------------------

 -----------
 CO2_CO2_229
 -----------
 Symbolic Z-matrix:
 Charge =  0 Multiplicity = 1

                         Standard orientation:
 ---------------------------------------------------------------------
 Center     Atomic      Atomic             Coordinates (Angstroms)
 Number     Number       Type             X           Y           Z
 ---------------------------------------------------------------------
      1          8           0        1.233548   -3.835048    0.000000
      2          6           0        0.411183   -3.012683    0.000000
      3          8           0       -0.411183   -2.190317    0.000000
      4          8           0       -0.411183    1.849682   -0.000000
      5          6           0       -0.411183    3.012683   -0.000000
      6          8           0       -0.411183    4.175683   -0.000000
 ---------------------------------------------------------------------

 SCF Done:  E(RHF) =  -375.412937855     A.U. after   11 cycles
 E2 =    -0.1203606977D+01 EUMP2 =    -0.37661654483146D+03
 CCSD(T)
 CCSD(T)= -0.37665442881D+03

 The electronic state is 1-A'.
 Alpha  occ. eigenvalues --  -20.64868 -20.64847 -20.64744 -20.64710 -11.45829
 Alpha  occ. eigenvalues --  -11.45698  -1.52651  -1.52519  -1.47350  -1.47217
 Alpha  occ. eigenvalues --   -0.79754  -0.79608  -0.73942  -0.73783  -0.71127
 Alpha  occ. eigenvalues --   -0.71127  -0.70997  -0.70991  -0.54097  -0.54097
 Alpha  occ. eigenvalues --   -0.53966  -0.53959
 Alpha virt. eigenvalues --    0.17305   0.17888   0.20623   0.20625   0.20752
 Alpha virt. eigenvalues --    0.20760   0.32299   0.36073   0.39586   0.39601
 Alpha virt. eigenvalues --    0.39752   0.39869   0.54827   0.54990   0.63284

 Mulliken charges:
               1
     1  O   -0.270813
     2  C    0.535265
     3  O   -0.264399
     4  O   -0.265514
     5  C    0.535335
     6  O   -0.269875
 Sum of Mulliken charges =  -0.00000

 Dipole moment (field-independent basis, Debye):
    X=             -0.0232    Y=              0.0067    Z=             -0.0000  Tot=              0.0241
 Quadrupole moment (field-independent basis, Debye-Ang):
   XX=            -31.9727   YY=            -37.3813   ZZ=            -29.3917
   XY=              2.6159   XZ=             -0.0000   YZ=              0.0000

 Q=-376.6054474\CCSD=-376.5972573\CCSD(T)=-376.6544288\RMSD=2.616e-09\P
 Normal termination of Gaussian 16 at Mon Feb 12 18:46:17 2024.
