 Gaussian 16, Revision A.03,
 Gaussian 16:  ES64L-G16RevA.03 25-Dec-2016

 ------------------
 #p CCSD(T)/cc-pVTZ
 ------------------

 ----------
 CO2_CO2_81
 ----------
 Symbolic Z-matrix:
 Charge =  0 Multiplicity = 1

                         Standard orientation:
 ---------------------------------------------------------------------
 Center     Atomic      Atomic             Coordinates (Angstroms)
 Number     Number       Type             X           Y           Z
 ---------------------------------------------------------------------
      1          8           0        0.000000    0.000000    3.366000
      2          6           0        0.000000    0.000000    2.203000
      3          8           0        0.000000    0.000000    1.040000
      4          8           0        0.000000    0.000000   -1.040000
      5          6           0        0.000000    0.000000   -2.203000
      6          8           0        0.000000    0.000000   -3.366000
 ---------------------------------------------------------------------

 SCF Done:  E(RHF) =  -375.385803397     A.U. after   10 cycles
 E2 =    -0.1209736686D+01 EUMP2 =    -0.37659554008298D+03
 CCSD(T)
 CCSD(T)= -0.37663242616D+03

 The electronic state is 1-SGG.
 Alpha  occ. eigenvalues --  -20.64139 -20.64139 -20.63374 -20.63373 -11.44757
 Alpha  occ. eigenvalues --  -11.44757  -1.52206  -1.51632  -1.46995  -1.46161
 Alpha  occ. eigenvalues --   -0.83988  -0.77321  -0.75226  -0.70753  -0.70753
 Alpha  occ. eigenvalues --   -0.69986  -0.69986  -0.67426  -0.54156  -0.54156
 Alpha  occ. eigenvalues --   -0.52442  -0.52442
 Alpha virt. eigenvalues --    0.17314   0.18902   0.20367   0.20367   0.22216
 Alpha virt. eigenvalues --    0.22216   0.32868   0.38955   0.38955   0.39316
 Alpha virt. eigenvalues --    0.40899   0.40899   0.53377   0.56124   0.67812

 Mulliken charges:
               1
     1  O   -0.299251
     2  C    0.514917
     3  O   -0.215666
     4  O   -0.215666
     5  C    0.514917
     6  O   -0.299251
 Sum of Mulliken charges =   0.00000

 Dipole moment (field-independent basis, Debye):
    X=             -0.0000    Y=              0.0000    Z=              0.0000  Tot=              0.0000
 Quadrupole moment (field-independent basis, Debye-Ang):
   XX=            -29.4090   YY=            -29.4090   ZZ=            -41.2715
   XY=              0.0000   XZ=              0.0000   YZ=              0.0000

 517\CCSD(T)=-376.6324262\RMSD=6.475e-09\PG=D*H [C*(O1C1O1.O1C1O1)]\\@
 Normal termination of Gaussian 16 at Sat Feb 10 01:48:31 2024.
