 Gaussian 16, Revision A.03,
 Gaussian 16:  ES64L-G16RevA.03 25-Dec-2016

 ------------------
 #p CCSD(T)/cc-pVTZ
 ------------------

 -----------
 CO2_CO2_178
 -----------
 Symbolic Z-matrix:
 Charge =  0 Multiplicity = 1

                         Standard orientation:
 ---------------------------------------------------------------------
 Center     Atomic      Atomic             Coordinates (Angstroms)
 Number     Number       Type             X           Y           Z
 ---------------------------------------------------------------------
      1          8           0        1.233548   -3.495048    0.000000
      2          6           0        0.411183   -2.672683    0.000000
      3          8           0       -0.411183   -1.850317   -0.000000
      4          8           0       -0.411183    1.509683   -0.000000
      5          6           0       -0.411183    2.672683   -0.000000
      6          8           0       -0.411183    3.835682   -0.000000
 ---------------------------------------------------------------------

 SCF Done:  E(RHF) =  -375.412633221     A.U. after   11 cycles
 E2 =    -0.1204102174D+01 EUMP2 =    -0.37661673539590D+03
 CCSD(T)
 CCSD(T)= -0.37665456212D+03

 The electronic state is 1-A'.
 Alpha  occ. eigenvalues --  -20.64803 -20.64764 -20.64639 -20.64579 -11.45747
 Alpha  occ. eigenvalues --  -11.45573  -1.52582  -1.52404  -1.47279  -1.47099
 Alpha  occ. eigenvalues --   -0.79776  -0.79391  -0.73983  -0.73521  -0.71060
 Alpha  occ. eigenvalues --   -0.71060  -0.70882  -0.70866  -0.54034  -0.54030
 Alpha  occ. eigenvalues --   -0.53837  -0.53826
 Alpha virt. eigenvalues --    0.17170   0.18144   0.20669   0.20676   0.20863
 Alpha virt. eigenvalues --    0.20872   0.32001   0.36731   0.39523   0.39532
 Alpha virt. eigenvalues --    0.39933   0.40457   0.54892   0.55089   0.60800

 Mulliken charges:
               1
     1  O   -0.273652
     2  C    0.533669
     3  O   -0.259898
     4  O   -0.261166
     5  C    0.534424
     6  O   -0.273377
 Sum of Mulliken charges =  -0.00000

 Dipole moment (field-independent basis, Debye):
    X=             -0.0381    Y=              0.0089    Z=             -0.0000  Tot=              0.0391
 Quadrupole moment (field-independent basis, Debye-Ang):
   XX=            -31.9789   YY=            -37.5132   ZZ=            -29.3943
   XY=              2.6398   XZ=              0.0000   YZ=              0.0000

 Q=-376.605547\CCSD=-376.5973185\CCSD(T)=-376.6545621\RMSD=2.986e-09\PG
 Normal termination of Gaussian 16 at Sat Feb 10 21:23:03 2024.
