 Gaussian 16, Revision A.03,
 Gaussian 16:  ES64L-G16RevA.03 25-Dec-2016

 ------------------
 #p CCSD(T)/cc-pVTZ
 ------------------

 ----------
 CO2_CO2_12
 ----------
 Symbolic Z-matrix:
 Charge =  0 Multiplicity = 1

                         Standard orientation:
 ---------------------------------------------------------------------
 Center     Atomic      Atomic             Coordinates (Angstroms)
 Number     Number       Type             X           Y           Z
 ---------------------------------------------------------------------
      1          8           0        0.000000    0.000000    2.906000
      2          6           0        0.000000    0.000000    1.743000
      3          8           0        0.000000    0.000000    0.580000
      4          8           0        0.000000    0.000000   -0.580000
      5          6           0        0.000000    0.000000   -1.743000
      6          8           0        0.000000    0.000000   -2.906000
 ---------------------------------------------------------------------

 SCF Done:  E(RHF) =  -374.654271417     A.U. after   13 cycles
 E2 =    -0.1305030762D+01 EUMP2 =    -0.37595930217893D+03
 CCSD(T)
 CCSD(T)= -0.37597862991D+03

 The electronic state is 1-SGG.
 Alpha  occ. eigenvalues --  -20.65837 -20.65779 -20.62204 -20.62204 -11.40893
 Alpha  occ. eigenvalues --  -11.40892  -1.73624  -1.49314  -1.47379  -1.43647
 Alpha  occ. eigenvalues --   -1.15266  -0.82073  -0.82073  -0.75113  -0.74616
 Alpha  occ. eigenvalues --   -0.66902  -0.66902  -0.58955  -0.58955  -0.47395
 Alpha  occ. eigenvalues --   -0.47395  -0.19305
 Alpha virt. eigenvalues --    0.15326   0.16385   0.16385   0.23569   0.25494
 Alpha virt. eigenvalues --    0.25494   0.28958   0.38031   0.38031   0.41158
 Alpha virt. eigenvalues --    0.43472   0.43472   0.49549   0.64807   0.66680

 Mulliken charges:
               1
     1  O   -0.258163
     2  C    0.361141
     3  O   -0.102978
     4  O   -0.102978
     5  C    0.361141
     6  O   -0.258163
 Sum of Mulliken charges =  -0.00000

 Dipole moment (field-independent basis, Debye):
    X=             -0.0000    Y=             -0.0000    Z=              0.0000  Tot=              0.0000
 Quadrupole moment (field-independent basis, Debye-Ang):
   XX=            -29.5589   YY=            -29.5589   ZZ=            -46.9006
   XY=             -0.0000   XZ=              0.0000   YZ=             -0.0000

 3436\CCSD(T)=-375.9786299\RMSD=8.768e-09\PG=D*H [C*(O1C1O1.O1C1O1)]\\@
 Normal termination of Gaussian 16 at Fri Feb  9 19:48:13 2024.
