 Gaussian 16, Revision A.03,
 Gaussian 16:  ES64L-G16RevA.03 25-Dec-2016

 ------------------
 #p CCSD(T)/cc-pVTZ
 ------------------

 ----------
 CO2_CO2_75
 ----------
 Symbolic Z-matrix:
 Charge =  0 Multiplicity = 1

                         Standard orientation:
 ---------------------------------------------------------------------
 Center     Atomic      Atomic             Coordinates (Angstroms)
 Number     Number       Type             X           Y           Z
 ---------------------------------------------------------------------
      1          8           0        0.000000    0.000000    3.326000
      2          6           0        0.000000    0.000000    2.163000
      3          8           0        0.000000    0.000000    1.000000
      4          8           0        0.000000    0.000000   -1.000000
      5          6           0        0.000000    0.000000   -2.163000
      6          8           0        0.000000    0.000000   -3.326000
 ---------------------------------------------------------------------

 SCF Done:  E(RHF) =  -375.376105377     A.U. after   10 cycles
 E2 =    -0.1210968769D+01 EUMP2 =    -0.37658707414591D+03
 CCSD(T)
 CCSD(T)= -0.37662371726D+03

 The electronic state is 1-SGG.
 Alpha  occ. eigenvalues --  -20.64066 -20.64066 -20.63128 -20.63127 -11.44611
 Alpha  occ. eigenvalues --  -11.44610  -1.52235  -1.51505  -1.47036  -1.45989
 Alpha  occ. eigenvalues --   -0.85060  -0.77139  -0.75297  -0.70774  -0.70774
 Alpha  occ. eigenvalues --   -0.69838  -0.69838  -0.66102  -0.54263  -0.54263
 Alpha  occ. eigenvalues --   -0.52198  -0.52198
 Alpha virt. eigenvalues --    0.17290   0.19019   0.20292   0.20292   0.22411
 Alpha virt. eigenvalues --    0.22411   0.32792   0.38864   0.38864   0.39480
 Alpha virt. eigenvalues --    0.41030   0.41030   0.53313   0.56419   0.68201

 Mulliken charges:
               1
     1  O   -0.301904
     2  C    0.515560
     3  O   -0.213656
     4  O   -0.213656
     5  C    0.515560
     6  O   -0.301904
 Sum of Mulliken charges =  -0.00000

 Dipole moment (field-independent basis, Debye):
    X=             -0.0000    Y=             -0.0000    Z=              0.0000  Tot=              0.0000
 Quadrupole moment (field-independent basis, Debye-Ang):
   XX=            -29.4049   YY=            -29.4049   ZZ=            -41.4186
   XY=              0.0000   XZ=              0.0000   YZ=              0.0000

 64\CCSD(T)=-376.6237173\RMSD=6.746e-09\PG=D*H [C*(O1C1O1.O1C1O1)]\\@
 Normal termination of Gaussian 16 at Sat Feb 10 01:19:50 2024.
