 Gaussian 16, Revision A.03,
 Gaussian 16:  ES64L-G16RevA.03 25-Dec-2016

 ------------------
 #p CCSD(T)/cc-pVTZ
 ------------------

 -----------
 CO2_CO2_128
 -----------
 Symbolic Z-matrix:
 Charge =  0 Multiplicity = 1

                         Standard orientation:
 ---------------------------------------------------------------------
 Center     Atomic      Atomic             Coordinates (Angstroms)
 Number     Number       Type             X           Y           Z
 ---------------------------------------------------------------------
      1          8           0       -1.744500   -1.921500    0.000000
      2          6           0       -0.581500   -1.921500    0.000000
      3          8           0        0.581500   -1.921500    0.000000
      4          8           0        0.581500    0.758500    0.000000
      5          6           0        0.581500    1.921500    0.000000
      6          8           0        0.581500    3.084500    0.000000
 ---------------------------------------------------------------------

 SCF Done:  E(RHF) =  -375.410456295     A.U. after   13 cycles
 E2 =    -0.1205678198D+01 EUMP2 =    -0.37661613449299D+03
 CCSD(T)
 CCSD(T)= -0.37665390808D+03

 The electronic state is 1-A'.
 Alpha  occ. eigenvalues --  -20.65417 -20.65377 -20.64256 -20.63919 -11.46409
 Alpha  occ. eigenvalues --  -11.45120  -1.53254  -1.51942  -1.47953  -1.46631
 Alpha  occ. eigenvalues --   -0.80672  -0.79090  -0.75032  -0.73227  -0.71728
 Alpha  occ. eigenvalues --   -0.71709  -0.70424  -0.69862  -0.54735  -0.54713
 Alpha  occ. eigenvalues --   -0.53379  -0.53300
 Alpha virt. eigenvalues --    0.16259   0.19380   0.19661   0.20017   0.21264
 Alpha virt. eigenvalues --    0.22323   0.34371   0.35028   0.37811   0.39303
 Alpha virt. eigenvalues --    0.41511   0.46147   0.53677   0.57238   0.66547

 Mulliken charges:
               1
     1  O   -0.276513
     2  C    0.536193
     3  O   -0.263647
     4  O   -0.256656
     5  C    0.537625
     6  O   -0.277002
 Sum of Mulliken charges =  -0.00000

 Dipole moment (field-independent basis, Debye):
    X=              0.1326    Y=              0.1614    Z=              0.0000  Tot=              0.2089
 Quadrupole moment (field-independent basis, Debye-Ang):
   XX=            -34.6038   YY=            -34.6757   ZZ=            -29.3935
   XY=             -0.0535   XZ=              0.0000   YZ=              0.0000

 4096\CCSD(T)=-376.6539081\RMSD=1.531e-09\PG=CS [SG(C2O4)]\\@
 Normal termination of Gaussian 16 at Sat Feb 10 17:24:58 2024.
