 Gaussian 16, Revision A.03,
 Gaussian 16:  ES64L-G16RevA.03 25-Dec-2016

 ------------------
 #p CCSD(T)/cc-pVTZ
 ------------------

 -----------
 CO2_CO2_148
 -----------
 Symbolic Z-matrix:
 Charge =  0 Multiplicity = 1

                         Standard orientation:
 ---------------------------------------------------------------------
 Center     Atomic      Atomic             Coordinates (Angstroms)
 Number     Number       Type             X           Y           Z
 ---------------------------------------------------------------------
      1          8           0        1.233548   -3.295048   -0.000000
      2          6           0        0.411183   -2.472682   -0.000000
      3          8           0       -0.411183   -1.650317   -0.000000
      4          8           0       -0.411183    1.309683    0.000000
      5          6           0       -0.411183    2.472682    0.000000
      6          8           0       -0.411183    3.635682    0.000000
 ---------------------------------------------------------------------

 SCF Done:  E(RHF) =  -375.411798021     A.U. after   11 cycles
 E2 =    -0.1204742751D+01 EUMP2 =    -0.37661654077216D+03
 CCSD(T)
 CCSD(T)= -0.37665429993D+03

 The electronic state is 1-A'.
 Alpha  occ. eigenvalues --  -20.64742 -20.64664 -20.64534 -20.64429 -11.45662
 Alpha  occ. eigenvalues --  -11.45444  -1.52518  -1.52288  -1.47216  -1.46977
 Alpha  occ. eigenvalues --   -0.79955  -0.79092  -0.74155  -0.73124  -0.71003
 Alpha  occ. eigenvalues --   -0.70999  -0.70762  -0.70713  -0.54002  -0.53981
 Alpha  occ. eigenvalues --   -0.53681  -0.53669
 Alpha virt. eigenvalues --    0.17157   0.18361   0.20671   0.20728   0.20962
 Alpha virt. eigenvalues --    0.21020   0.32721   0.36788   0.39366   0.39424
 Alpha virt. eigenvalues --    0.40165   0.41190   0.54661   0.55210   0.62824

 Mulliken charges:
               1
     1  O   -0.276525
     2  C    0.531207
     3  O   -0.254706
     4  O   -0.253189
     5  C    0.531452
     6  O   -0.278240
 Sum of Mulliken charges =  -0.00000

 Dipole moment (field-independent basis, Debye):
    X=             -0.0541    Y=              0.0150    Z=              0.0000  Tot=              0.0561
 Quadrupole moment (field-independent basis, Debye-Ang):
   XX=            -31.9885   YY=            -37.6616   ZZ=            -29.3984
   XY=              2.6664   XZ=              0.0000   YZ=             -0.0000

 =-376.6052382\CCSD=-376.5969636\CCSD(T)=-376.6542999\RMSD=3.522e-09\PG
 Normal termination of Gaussian 16 at Sat Feb 10 18:58:41 2024.
