 Gaussian 16, Revision A.03,
 Gaussian 16:  ES64L-G16RevA.03 25-Dec-2016

 ------------------
 #p CCSD(T)/cc-pVTZ
 ------------------

 ----------
 CO2_CO2_85
 ----------
 Symbolic Z-matrix:
 Charge =  0 Multiplicity = 1

                         Standard orientation:
 ---------------------------------------------------------------------
 Center     Atomic      Atomic             Coordinates (Angstroms)
 Number     Number       Type             X           Y           Z
 ---------------------------------------------------------------------
      1          8           0        1.233548   -2.875048   -0.000000
      2          6           0        0.411183   -2.052683   -0.000000
      3          8           0       -0.411183   -1.230317   -0.000000
      4          8           0       -0.411183    0.889682    0.000000
      5          6           0       -0.411183    2.052683    0.000000
      6          8           0       -0.411183    3.215683    0.000000
 ---------------------------------------------------------------------

 SCF Done:  E(RHF) =  -375.388338036     A.U. after   11 cycles
 E2 =    -0.1209879595D+01 EUMP2 =    -0.37659821763153D+03
 CCSD(T)
 CCSD(T)= -0.37663513321D+03

 The electronic state is 1-A'.
 Alpha  occ. eigenvalues --  -20.64481 -20.64005 -20.63831 -20.63436 -11.45160
 Alpha  occ. eigenvalues --  -11.44738  -1.52436  -1.51691  -1.47190  -1.46252
 Alpha  occ. eigenvalues --   -0.83097  -0.77711  -0.75234  -0.71516  -0.70956
 Alpha  occ. eigenvalues --   -0.70464  -0.70081  -0.68249  -0.54288  -0.53936
 Alpha  occ. eigenvalues --   -0.52631  -0.52394
 Alpha virt. eigenvalues --    0.16857   0.19184   0.20417   0.20847   0.21480
 Alpha virt. eigenvalues --    0.21871   0.33768   0.36461   0.38475   0.39134
 Alpha virt. eigenvalues --    0.41226   0.43946   0.53807   0.56148   0.65270

 Mulliken charges:
               1
     1  O   -0.285392
     2  C    0.526757
     3  O   -0.244332
     4  O   -0.222818
     5  C    0.519881
     6  O   -0.294097
 Sum of Mulliken charges =  -0.00000

 Dipole moment (field-independent basis, Debye):
    X=             -0.1299    Y=              0.0768    Z=             -0.0000  Tot=              0.1509
 Quadrupole moment (field-independent basis, Debye-Ang):
   XX=            -32.0505   YY=            -38.4445   ZZ=            -29.4050
   XY=              2.8052   XZ=             -0.0000   YZ=             -0.0000

 -376.5858308\CCSD=-376.5771581\CCSD(T)=-376.6351332\RMSD=4.551e-09\PG=
 Normal termination of Gaussian 16 at Sat Feb 10 02:09:53 2024.
