 Gaussian 16, Revision A.03,
 Gaussian 16:  ES64L-G16RevA.03 25-Dec-2016

 ------------------
 #p CCSD(T)/cc-pVTZ
 ------------------

 -----------
 CO2_CO2_215
 -----------
 Symbolic Z-matrix:
 Charge =  0 Multiplicity = 1

                         Standard orientation:
 ---------------------------------------------------------------------
 Center     Atomic      Atomic             Coordinates (Angstroms)
 Number     Number       Type             X           Y           Z
 ---------------------------------------------------------------------
      1          8           0       -1.744500   -2.501500    0.000000
      2          6           0       -0.581500   -2.501500    0.000000
      3          8           0        0.581500   -2.501500    0.000000
      4          8           0        0.581500    1.338500    0.000000
      5          6           0        0.581500    2.501500    0.000000
      6          8           0        0.581500    3.664500    0.000000
 ---------------------------------------------------------------------

 SCF Done:  E(RHF) =  -375.413527824     A.U. after   10 cycles
 E2 =    -0.1203575359D+01 EUMP2 =    -0.37661710318290D+03
 CCSD(T)
 CCSD(T)= -0.37665502288D+03

 The electronic state is 1-A'.
 Alpha  occ. eigenvalues --  -20.65239 -20.65200 -20.64633 -20.64587 -11.46208
 Alpha  occ. eigenvalues --  -11.45597  -1.53008  -1.52400  -1.47711  -1.47103
 Alpha  occ. eigenvalues --   -0.80138  -0.79526  -0.74330  -0.73713  -0.71481
 Alpha  occ. eigenvalues --   -0.71479  -0.70884  -0.70852  -0.54466  -0.54465
 Alpha  occ. eigenvalues --   -0.53864  -0.53849
 Alpha virt. eigenvalues --    0.16509   0.18258   0.20207   0.20271   0.20874
 Alpha virt. eigenvalues --    0.21036   0.32578   0.34791   0.39149   0.39214
 Alpha virt. eigenvalues --    0.39999   0.41454   0.54520   0.54706   0.65246

 Mulliken charges:
               1
     1  O   -0.271279
     2  C    0.537849
     3  O   -0.266982
     4  O   -0.270743
     5  C    0.539315
     6  O   -0.268161
 Sum of Mulliken charges =  -0.00000

 Dipole moment (field-independent basis, Debye):
    X=              0.0379    Y=              0.0610    Z=              0.0000  Tot=              0.0718
 Quadrupole moment (field-independent basis, Debye-Ang):
   XX=            -34.5628   YY=            -34.5074   ZZ=            -29.3886
   XY=             -0.0195   XZ=              0.0000   YZ=              0.0000

 15\CCSD(T)=-376.6550229\RMSD=5.296e-09\PG=CS [SG(C2O4)]\\@
 Normal termination of Gaussian 16 at Sun Feb 11 00:29:10 2024.
