 Gaussian 16, Revision A.03,
 Gaussian 16:  ES64L-G16RevA.03 25-Dec-2016

 ------------------
 #p CCSD(T)/cc-pVTZ
 ------------------

 ----------
 CO2_CO2_31
 ----------
 Symbolic Z-matrix:
 Charge =  0 Multiplicity = 1

                         Standard orientation:
 ---------------------------------------------------------------------
 Center     Atomic      Atomic             Coordinates (Angstroms)
 Number     Number       Type             X           Y           Z
 ---------------------------------------------------------------------
      1          8           0        1.233548   -2.515048    0.000000
      2          6           0        0.411183   -1.692683    0.000000
      3          8           0       -0.411183   -0.870317   -0.000000
      4          8           0       -0.411183    0.529682   -0.000000
      5          6           0       -0.411183    1.692683   -0.000000
      6          8           0       -0.411183    2.855683   -0.000000
 ---------------------------------------------------------------------

 SCF Done:  E(RHF) =  -375.070253694     A.U. after   15 cycles
 E2 =    -0.1249908883D+01 EUMP2 =    -0.37632016257716D+03
 CCSD(T)
 CCSD(T)= -0.37634868802D+03

 The electronic state is 1-A'.
 Alpha  occ. eigenvalues --  -20.64488 -20.62869 -20.62850 -20.61348 -11.43945
 Alpha  occ. eigenvalues --  -11.40869  -1.59230  -1.50543  -1.47472  -1.43793
 Alpha  occ. eigenvalues --   -1.01356  -0.76884  -0.75653  -0.74464  -0.73577
 Alpha  occ. eigenvalues --   -0.68579  -0.68084  -0.59471  -0.57341  -0.52830
 Alpha  occ. eigenvalues --   -0.49364  -0.37019
 Alpha virt. eigenvalues --    0.15822   0.18507   0.19033   0.20698   0.24019
 Alpha virt. eigenvalues --    0.24195   0.33880   0.36790   0.37480   0.39061
 Alpha virt. eigenvalues --    0.43372   0.47316   0.53853   0.59688   0.67688

 Mulliken charges:
               1
     1  O   -0.319087
     2  C    0.454632
     3  O   -0.162888
     4  O   -0.179066
     5  C    0.510168
     6  O   -0.303760
 Sum of Mulliken charges =   0.00000

 Dipole moment (field-independent basis, Debye):
    X=             -0.4874    Y=              0.8699    Z=             -0.0000  Tot=              0.9972
 Quadrupole moment (field-independent basis, Debye-Ang):
   XX=            -32.3125   YY=            -41.3586   ZZ=            -29.1892
   XY=              3.3788   XZ=             -0.0000   YZ=             -0.0000

 76.2984571\CCSD=-376.2857317\CCSD(T)=-376.348688\RMSD=6.517e-09\PG=CS
 Normal termination of Gaussian 16 at Fri Feb  9 21:33:11 2024.
