 Gaussian 16, Revision A.03,
 Gaussian 16:  ES64L-G16RevA.03 25-Dec-2016

 ------------------
 #p CCSD(T)/cc-pVTZ
 ------------------

 -----------
 CO2_CO2_197
 -----------
 Symbolic Z-matrix:
 Charge =  0 Multiplicity = 1

                         Standard orientation:
 ---------------------------------------------------------------------
 Center     Atomic      Atomic             Coordinates (Angstroms)
 Number     Number       Type             X           Y           Z
 ---------------------------------------------------------------------
      1          8           0       -1.744500   -2.381500    0.000000
      2          6           0       -0.581500   -2.381500    0.000000
      3          8           0        0.581500   -2.381500    0.000000
      4          8           0        0.581500    1.218500    0.000000
      5          6           0        0.581500    2.381500    0.000000
      6          8           0        0.581500    3.544500    0.000000
 ---------------------------------------------------------------------

 SCF Done:  E(RHF) =  -375.413565394     A.U. after   10 cycles
 E2 =    -0.1203735713D+01 EUMP2 =    -0.37661730110700D+03
 CCSD(T)
 CCSD(T)= -0.37665521123D+03

 The electronic state is 1-A'.
 Alpha  occ. eigenvalues --  -20.65276 -20.65233 -20.64584 -20.64521 -11.46244
 Alpha  occ. eigenvalues --  -11.45541  -1.53043  -1.52343  -1.47746  -1.47046
 Alpha  occ. eigenvalues --   -0.80180  -0.79472  -0.74379  -0.73657  -0.71516
 Alpha  occ. eigenvalues --   -0.71514  -0.70828  -0.70779  -0.54503  -0.54501
 Alpha  occ. eigenvalues --   -0.53809  -0.53790
 Alpha virt. eigenvalues --    0.16438   0.18402   0.20136   0.20230   0.20930
 Alpha virt. eigenvalues --    0.21205   0.32836   0.34710   0.38986   0.39159
 Alpha virt. eigenvalues --    0.40156   0.42071   0.54497   0.54878   0.64683

 Mulliken charges:
               1
     1  O   -0.271613
     2  C    0.537369
     3  O   -0.266382
     4  O   -0.269785
     5  C    0.539559
     6  O   -0.269147
 Sum of Mulliken charges =  -0.00000

 Dipole moment (field-independent basis, Debye):
    X=              0.0476    Y=              0.0729    Z=              0.0000  Tot=              0.0871
 Quadrupole moment (field-independent basis, Debye-Ang):
   XX=            -34.5669   YY=            -34.5108   ZZ=            -29.3887
   XY=             -0.0222   XZ=              0.0000   YZ=              0.0000

 152\CCSD(T)=-376.6552112\RMSD=5.946e-09\PG=CS [SG(C2O4)]\\@
 Normal termination of Gaussian 16 at Sat Feb 10 22:58:38 2024.
