 Gaussian 16, Revision A.03,
 Gaussian 16:  ES64L-G16RevA.03 25-Dec-2016

 ------------------
 #p CCSD(T)/cc-pVTZ
 ------------------

 ----------
 CO2_CO2_58
 ----------
 Symbolic Z-matrix:
 Charge =  0 Multiplicity = 1

                         Standard orientation:
 ---------------------------------------------------------------------
 Center     Atomic      Atomic             Coordinates (Angstroms)
 Number     Number       Type             X           Y           Z
 ---------------------------------------------------------------------
      1          8           0        1.233548   -2.695048    0.000000
      2          6           0        0.411183   -1.872683    0.000000
      3          8           0       -0.411183   -1.050317    0.000000
      4          8           0       -0.411183    0.709683   -0.000000
      5          6           0       -0.411183    1.872683   -0.000000
      6          8           0       -0.411183    3.035682   -0.000000
 ---------------------------------------------------------------------

 SCF Done:  E(RHF) =  -375.318313227     A.U. after   13 cycles
 E2 =    -0.1219256341D+01 EUMP2 =    -0.37653756956739D+03
 CCSD(T)
 CCSD(T)= -0.37657258541D+03

 The electronic state is 1-A'.
 Alpha  occ. eigenvalues --  -20.64280 -20.63369 -20.62748 -20.62380 -11.44549
 Alpha  occ. eigenvalues --  -11.43817  -1.53094  -1.51062  -1.47561  -1.45314
 Alpha  occ. eigenvalues --   -0.88933  -0.76935  -0.75449  -0.71888  -0.71361
 Alpha  occ. eigenvalues --   -0.69628  -0.69312  -0.63380  -0.55103  -0.53818
 Alpha  occ. eigenvalues --   -0.51369  -0.49686
 Alpha virt. eigenvalues --    0.16602   0.19729   0.19947   0.20708   0.22174
 Alpha virt. eigenvalues --    0.22771   0.34109   0.36324   0.37984   0.39101
 Alpha virt. eigenvalues --    0.42060   0.45420   0.53848   0.57337   0.67224

 Mulliken charges:
               1
     1  O   -0.295355
     2  C    0.515835
     3  O   -0.227707
     4  O   -0.212957
     5  C    0.524460
     6  O   -0.304276
 Sum of Mulliken charges =  -0.00000

 Dipole moment (field-independent basis, Debye):
    X=             -0.2165    Y=              0.1957    Z=             -0.0000  Tot=              0.2918
 Quadrupole moment (field-independent basis, Debye-Ang):
   XX=            -32.1067   YY=            -39.2913   ZZ=            -29.3612
   XY=              2.9709   XZ=             -0.0000   YZ=              0.0000

 -376.5231002\CCSD=-376.5135517\CCSD(T)=-376.5725854\RMSD=6.284e-09\PG=
 Normal termination of Gaussian 16 at Fri Feb  9 23:52:41 2024.
