 Gaussian 16, Revision A.03,
 Gaussian 16:  ES64L-G16RevA.03 25-Dec-2016

 ------------------
 #p CCSD(T)/cc-pVTZ
 ------------------

 ----------
 CO2_CO2_51
 ----------
 Symbolic Z-matrix:
 Charge =  0 Multiplicity = 1

                         Standard orientation:
 ---------------------------------------------------------------------
 Center     Atomic      Atomic             Coordinates (Angstroms)
 Number     Number       Type             X           Y           Z
 ---------------------------------------------------------------------
      1          8           0        0.000000    0.000000    3.166000
      2          6           0        0.000000    0.000000    2.003000
      3          8           0        0.000000    0.000000    0.840000
      4          8           0        0.000000    0.000000   -0.840000
      5          6           0        0.000000    0.000000   -2.003000
      6          8           0        0.000000    0.000000   -3.166000
 ---------------------------------------------------------------------

 SCF Done:  E(RHF) =  -375.288880229     A.U. after   10 cycles
 E2 =    -0.1220272260D+01 EUMP2 =    -0.37650915248930D+03
 CCSD(T)
 CCSD(T)= -0.37654391144D+03

 The electronic state is 1-SGG.
 Alpha  occ. eigenvalues --  -20.63670 -20.63670 -20.61722 -20.61721 -11.43683
 Alpha  occ. eigenvalues --  -11.43683  -1.52920  -1.50804  -1.47436  -1.44938
 Alpha  occ. eigenvalues --   -0.91857  -0.76414  -0.75351  -0.71162  -0.71162
 Alpha  occ. eigenvalues --   -0.68992  -0.68992  -0.57304  -0.55127  -0.55127
 Alpha  occ. eigenvalues --   -0.50739  -0.50739
 Alpha virt. eigenvalues --    0.17192   0.19629   0.19785   0.19785   0.23504
 Alpha virt. eigenvalues --    0.23504   0.32187   0.38526   0.38526   0.40127
 Alpha virt. eigenvalues --    0.41702   0.41702   0.53124   0.58118   0.68544

 Mulliken charges:
               1
     1  O   -0.314858
     2  C    0.518245
     3  O   -0.203387
     4  O   -0.203387
     5  C    0.518245
     6  O   -0.314858
 Sum of Mulliken charges =  -0.00000

 Dipole moment (field-independent basis, Debye):
    X=             -0.0000    Y=             -0.0000    Z=              0.0000  Tot=              0.0000
 Quadrupole moment (field-independent basis, Debye-Ang):
   XX=            -29.3595   YY=            -29.3595   ZZ=            -42.2053
   XY=              0.0000   XZ=              0.0000   YZ=              0.0000

 8485\CCSD(T)=-376.5439114\RMSD=9.715e-09\PG=D*H [C*(O1C1O1.O1C1O1)]\\@
 Normal termination of Gaussian 16 at Fri Feb  9 23:17:04 2024.
