 Gaussian 16, Revision A.03,
 Gaussian 16:  ES64L-G16RevA.03 25-Dec-2016

 ------------------
 #p CCSD(T)/cc-pVTZ
 ------------------

 -----------
 CO2_CO2_156
 -----------
 Symbolic Z-matrix:
 Charge =  0 Multiplicity = 1

                         Standard orientation:
 ---------------------------------------------------------------------
 Center     Atomic      Atomic             Coordinates (Angstroms)
 Number     Number       Type             X           Y           Z
 ---------------------------------------------------------------------
      1          8           0        0.000000    0.000000    3.866000
      2          6           0        0.000000    0.000000    2.703000
      3          8           0        0.000000    0.000000    1.540000
      4          8           0        0.000000    0.000000   -1.540000
      5          6           0        0.000000    0.000000   -2.703000
      6          8           0        0.000000    0.000000   -3.866000
 ---------------------------------------------------------------------

 SCF Done:  E(RHF) =  -375.412044682     A.U. after   10 cycles
 E2 =    -0.1204506629D+01 EUMP2 =    -0.37661655131037D+03
 CCSD(T)
 CCSD(T)= -0.37665432439D+03

 The electronic state is 1-SGG.
 Alpha  occ. eigenvalues --  -20.64599 -20.64599 -20.64516 -20.64516 -11.45512
 Alpha  occ. eigenvalues --  -11.45512  -1.52379  -1.52348  -1.47081  -1.47032
 Alpha  occ. eigenvalues --   -0.79840  -0.79074  -0.74047  -0.73080  -0.70876
 Alpha  occ. eigenvalues --   -0.70876  -0.70807  -0.70807  -0.53883  -0.53883
 Alpha  occ. eigenvalues --   -0.53710  -0.53710
 Alpha virt. eigenvalues --    0.17526   0.18113   0.20726   0.20726   0.21053
 Alpha virt. eigenvalues --    0.21053   0.32776   0.37186   0.39653   0.39653
 Alpha virt. eigenvalues --    0.39994   0.39994   0.54756   0.54925   0.59978

 Mulliken charges:
               1
     1  O   -0.278424
     2  C    0.531153
     3  O   -0.252729
     4  O   -0.252729
     5  C    0.531153
     6  O   -0.278424
 Sum of Mulliken charges =  -0.00000

 Dipole moment (field-independent basis, Debye):
    X=             -0.0000    Y=              0.0000    Z=             -0.0000  Tot=              0.0000
 Quadrupole moment (field-independent basis, Debye-Ang):
   XX=            -29.3986   YY=            -29.3986   ZZ=            -40.3551
   XY=              0.0000   XZ=              0.0000   YZ=              0.0000

 70282\CCSD(T)=-376.6543244\RMSD=4.564e-09\PG=D*H [C*(O1C1O1.O1C1O1)]\\
 Normal termination of Gaussian 16 at Sat Feb 10 19:36:11 2024.
