 Gaussian 16, Revision A.03,
 Gaussian 16:  ES64L-G16RevA.03 25-Dec-2016

 ------------------
 #p CCSD(T)/cc-pVTZ
 ------------------

 -----------
 CO2_CO2_263
 -----------
 Symbolic Z-matrix:
 Charge =  0 Multiplicity = 1

                         Standard orientation:
 ---------------------------------------------------------------------
 Center     Atomic      Atomic             Coordinates (Angstroms)
 Number     Number       Type             X           Y           Z
 ---------------------------------------------------------------------
      1          8           0       -1.744500   -2.821500    0.000000
      2          6           0       -0.581500   -2.821500    0.000000
      3          8           0        0.581500   -2.821500    0.000000
      4          8           0        0.581500    1.658500    0.000000
      5          6           0        0.581500    2.821500    0.000000
      6          8           0        0.581500    3.984500    0.000000
 ---------------------------------------------------------------------

 SCF Done:  E(RHF) =  -375.413364861     A.U. after   10 cycles
 E2 =    -0.1203365988D+01 EUMP2 =    -0.37661673084832D+03
 CCSD(T)
 CCSD(T)= -0.37665466591D+03

 The electronic state is 1-A'.
 Alpha  occ. eigenvalues --  -20.65160 -20.65135 -20.64728 -20.64705 -11.46133
 Alpha  occ. eigenvalues --  -11.45701  -1.52938  -1.52508  -1.47640  -1.47210
 Alpha  occ. eigenvalues --   -0.80060  -0.79628  -0.74247  -0.73815  -0.71412
 Alpha  occ. eigenvalues --   -0.71410  -0.70988  -0.70974  -0.54393  -0.54392
 Alpha  occ. eigenvalues --   -0.53967  -0.53959
 Alpha virt. eigenvalues --    0.16945   0.17954   0.20333   0.20349   0.20767
 Alpha virt. eigenvalues --    0.20790   0.32987   0.34791   0.39341   0.39354
 Alpha virt. eigenvalues --    0.39787   0.40356   0.54494   0.54911   0.65771

 Mulliken charges:
               1
     1  O   -0.270387
     2  C    0.537949
     3  O   -0.267665
     4  O   -0.270911
     5  C    0.538259
     6  O   -0.267245
 Sum of Mulliken charges =  -0.00000

 Dipole moment (field-independent basis, Debye):
    X=              0.0221    Y=              0.0389    Z=              0.0000  Tot=              0.0447
 Quadrupole moment (field-independent basis, Debye-Ang):
   XX=            -34.5546   YY=            -34.5153   ZZ=            -29.3886
   XY=             -0.0164   XZ=              0.0000   YZ=              0.0000

 5257\CCSD(T)=-376.6546659\RMSD=4.546e-09\PG=CS [SG(C2O4)]\\@
 Normal termination of Gaussian 16 at Mon Feb 12 20:51:57 2024.
