 Gaussian 16, Revision A.03,
 Gaussian 16:  ES64L-G16RevA.03 25-Dec-2016

 ------------------
 #p CCSD(T)/cc-pVTZ
 ------------------

 ----------
 CO2_CO2_95
 ----------
 Symbolic Z-matrix:
 Charge =  0 Multiplicity = 1

                         Standard orientation:
 ---------------------------------------------------------------------
 Center     Atomic      Atomic             Coordinates (Angstroms)
 Number     Number       Type             X           Y           Z
 ---------------------------------------------------------------------
      1          8           0       -1.744500   -1.701500    0.000000
      2          6           0       -0.581500   -1.701500    0.000000
      3          8           0        0.581500   -1.701500    0.000000
      4          8           0        0.581500    0.538500    0.000000
      5          6           0        0.581500    1.701500    0.000000
      6          8           0        0.581500    2.864500    0.000000
 ---------------------------------------------------------------------

 SCF Done:  E(RHF) =  -375.394493800     A.U. after   13 cycles
 E2 =    -0.1209204959D+01 EUMP2 =    -0.37660369875864D+03
 CCSD(T)
 CCSD(T)= -0.37664105160D+03

 The electronic state is 1-A'.
 Alpha  occ. eigenvalues --  -20.65526 -20.65133 -20.63980 -20.63071 -11.46401
 Alpha  occ. eigenvalues --  -11.44676  -1.53488  -1.51602  -1.48126  -1.46206
 Alpha  occ. eigenvalues --   -0.81943  -0.78780  -0.76001  -0.72980  -0.71950
 Alpha  occ. eigenvalues --   -0.71662  -0.70006  -0.68127  -0.55008  -0.54834
 Alpha  occ. eigenvalues --   -0.52848  -0.52443
 Alpha virt. eigenvalues --    0.15985   0.19166   0.19907   0.20193   0.21493
 Alpha virt. eigenvalues --    0.23184   0.34151   0.35621   0.37140   0.39745
 Alpha virt. eigenvalues --    0.42594   0.47505   0.53016   0.58089   0.66520

 Mulliken charges:
               1
     1  O   -0.282898
     2  C    0.536682
     3  O   -0.262631
     4  O   -0.241643
     5  C    0.532567
     6  O   -0.282077
 Sum of Mulliken charges =  -0.00000

 Dipole moment (field-independent basis, Debye):
    X=              0.2241    Y=              0.2446    Z=              0.0000  Tot=              0.3318
 Quadrupole moment (field-independent basis, Debye-Ang):
   XX=            -34.6300   YY=            -34.9825   ZZ=            -29.3908
   XY=             -0.0891   XZ=              0.0000   YZ=              0.0000

 6\CCSD(T)=-376.6410516\RMSD=3.618e-09\PG=CS [SG(C2O4)]\\@
 Normal termination of Gaussian 16 at Sat Feb 10 02:58:53 2024.
