 Gaussian 16, Revision A.03,
 Gaussian 16:  ES64L-G16RevA.03 25-Dec-2016

 ------------------
 #p CCSD(T)/cc-pVTZ
 ------------------

 -----------
 CO2_CO2_151
 -----------
 Symbolic Z-matrix:
 Charge =  0 Multiplicity = 1

                         Standard orientation:
 ---------------------------------------------------------------------
 Center     Atomic      Atomic             Coordinates (Angstroms)
 Number     Number       Type             X           Y           Z
 ---------------------------------------------------------------------
      1          8           0        1.233548   -3.315048    0.000000
      2          6           0        0.411183   -2.492683    0.000000
      3          8           0       -0.411183   -1.670317    0.000000
      4          8           0       -0.411183    1.329682    0.000000
      5          6           0       -0.411183    2.492683    0.000000
      6          8           0       -0.411183    3.655683    0.000000
 ---------------------------------------------------------------------

 SCF Done:  E(RHF) =  -375.411940851     A.U. after   11 cycles
 E2 =    -0.1204657910D+01 EUMP2 =    -0.37661659876128D+03
 CCSD(T)
 CCSD(T)= -0.37665436710D+03

 The electronic state is 1-A'.
 Alpha  occ. eigenvalues --  -20.64749 -20.64677 -20.64547 -20.64448 -11.45672
 Alpha  occ. eigenvalues --  -11.45460  -1.52525  -1.52302  -1.47223  -1.46992
 Alpha  occ. eigenvalues --   -0.79925  -0.79131  -0.74129  -0.73178  -0.71009
 Alpha  occ. eigenvalues --   -0.71006  -0.70777  -0.70734  -0.54004  -0.53985
 Alpha  occ. eigenvalues --   -0.53701  -0.53690
 Alpha virt. eigenvalues --    0.17161   0.18335   0.20672   0.20722   0.20950
 Alpha virt. eigenvalues --    0.21001   0.32643   0.36788   0.39389   0.39436
 Alpha virt. eigenvalues --    0.40136   0.41100   0.54700   0.55197   0.62463

 Mulliken charges:
               1
     1  O   -0.276215
     2  C    0.531505
     3  O   -0.255294
     4  O   -0.254250
     5  C    0.531908
     6  O   -0.277654
 Sum of Mulliken charges =  -0.00000

 Dipole moment (field-independent basis, Debye):
    X=             -0.0522    Y=              0.0141    Z=             -0.0000  Tot=              0.0540
 Quadrupole moment (field-independent basis, Debye-Ang):
   XX=            -31.9871   YY=            -37.6431   ZZ=            -29.3978
   XY=              2.6632   XZ=              0.0000   YZ=             -0.0000

 376.6053117\CCSD=-376.5970429\CCSD(T)=-376.6543671\RMSD=3.454e-09\PG=C
 Normal termination of Gaussian 16 at Sat Feb 10 19:14:18 2024.
