 Gaussian 16, Revision A.03,
 Gaussian 16:  ES64L-G16RevA.03 25-Dec-2016

 ------------------
 #p CCSD(T)/cc-pVTZ
 ------------------

 ----------
 CO2_CO2_35
 ----------
 Symbolic Z-matrix:
 Charge =  0 Multiplicity = 1

                         Standard orientation:
 ---------------------------------------------------------------------
 Center     Atomic      Atomic             Coordinates (Angstroms)
 Number     Number       Type             X           Y           Z
 ---------------------------------------------------------------------
      1          8           0       -1.744500   -1.301500    0.000000
      2          6           0       -0.581500   -1.301500    0.000000
      3          8           0        0.581500   -1.301500    0.000000
      4          8           0        0.581500    0.138500    0.000000
      5          6           0        0.581500    1.301500    0.000000
      6          8           0        0.581500    2.464500    0.000000
 ---------------------------------------------------------------------

 SCF Done:  E(RHF) =  -375.053825829     A.U. after   15 cycles
 E2 =    -0.1251134718D+01 EUMP2 =    -0.37630496054674D+03
 CCSD(T)
 CCSD(T)= -0.37633500523D+03

 The electronic state is 1-A'.
 Alpha  occ. eigenvalues --  -20.65271 -20.63261 -20.63163 -20.61296 -11.44580
 Alpha  occ. eigenvalues --  -11.42972  -1.61756  -1.51129  -1.48378  -1.44068
 Alpha  occ. eigenvalues --   -0.94439  -0.81915  -0.77089  -0.75702  -0.74495
 Alpha  occ. eigenvalues --   -0.69378  -0.68442  -0.62232  -0.57701  -0.54171
 Alpha  occ. eigenvalues --   -0.49981  -0.36029
 Alpha virt. eigenvalues --    0.15466   0.17121   0.18984   0.21927   0.23185
 Alpha virt. eigenvalues --    0.24481   0.32906   0.36557   0.37766   0.41465
 Alpha virt. eigenvalues --    0.44085   0.46766   0.54982   0.58213   0.64609

 Mulliken charges:
               1
     1  O   -0.291476
     2  C    0.453066
     3  O   -0.173387
     4  O   -0.203892
     5  C    0.502676
     6  O   -0.286988
 Sum of Mulliken charges =  -0.00000

 Dipole moment (field-independent basis, Debye):
    X=              0.7300    Y=              0.4496    Z=              0.0000  Tot=              0.8574
 Quadrupole moment (field-independent basis, Debye-Ang):
   XX=            -34.5078   YY=            -37.1429   ZZ=            -29.2011
   XY=             -0.5990   XZ=              0.0000   YZ=              0.0000

 608\CCSD(T)=-376.3350052\RMSD=4.606e-09\PG=CS [SG(C2O4)]\\@
 Normal termination of Gaussian 16 at Fri Feb  9 21:55:26 2024.
