 Gaussian 16, Revision A.03,
 Gaussian 16:  ES64L-G16RevA.03 25-Dec-2016

 ------------------
 #p CCSD(T)/cc-pVTZ
 ------------------

 ----------
 CO2_CO2_92
 ----------
 Symbolic Z-matrix:
 Charge =  0 Multiplicity = 1

                         Standard orientation:
 ---------------------------------------------------------------------
 Center     Atomic      Atomic             Coordinates (Angstroms)
 Number     Number       Type             X           Y           Z
 ---------------------------------------------------------------------
      1          8           0       -1.744500   -1.681500    0.000000
      2          6           0       -0.581500   -1.681500    0.000000
      3          8           0        0.581500   -1.681500    0.000000
      4          8           0        0.581500    0.518500    0.000000
      5          6           0        0.581500    1.681500    0.000000
      6          8           0        0.581500    2.844500    0.000000
 ---------------------------------------------------------------------

 SCF Done:  E(RHF) =  -375.391282857     A.U. after   13 cycles
 E2 =    -0.1209757876D+01 EUMP2 =    -0.37660104073232D+03
 CCSD(T)
 CCSD(T)= -0.37663831697D+03

 The electronic state is 1-A'.
 Alpha  occ. eigenvalues --  -20.65534 -20.65081 -20.63951 -20.62957 -11.46388
 Alpha  occ. eigenvalues --  -11.44623  -1.53526  -1.51569  -1.48146  -1.46153
 Alpha  occ. eigenvalues --   -0.82168  -0.78754  -0.76104  -0.72981  -0.71982
 Alpha  occ. eigenvalues --   -0.71626  -0.69956  -0.67882  -0.55048  -0.54840
 Alpha  occ. eigenvalues --   -0.52776  -0.52295
 Alpha virt. eigenvalues --    0.15962   0.19108   0.19898   0.20281   0.21515
 Alpha virt. eigenvalues --    0.23272   0.34122   0.35678   0.37086   0.39798
 Alpha virt. eigenvalues --    0.42695   0.47539   0.53015   0.58137   0.66438

 Mulliken charges:
               1
     1  O   -0.283520
     2  C    0.536114
     3  O   -0.262077
     4  O   -0.240133
     5  C    0.532026
     6  O   -0.282410
 Sum of Mulliken charges =  -0.00000

 Dipole moment (field-independent basis, Debye):
    X=              0.2354    Y=              0.2535    Z=              0.0000  Tot=              0.3459
 Quadrupole moment (field-independent basis, Debye-Ang):
   XX=            -34.6312   YY=            -35.0250   ZZ=            -29.3891
   XY=             -0.0943   XZ=              0.0000   YZ=              0.0000

 75\CCSD(T)=-376.638317\RMSD=3.848e-09\PG=CS [SG(C2O4)]\\@
 Normal termination of Gaussian 16 at Sat Feb 10 02:44:30 2024.
