 Gaussian 16, Revision A.03,
 Gaussian 16:  ES64L-G16RevA.03 25-Dec-2016

 ------------------
 #p CCSD(T)/cc-pVTZ
 ------------------

 -----------
 CO2_CO2_251
 -----------
 Symbolic Z-matrix:
 Charge =  0 Multiplicity = 1

                         Standard orientation:
 ---------------------------------------------------------------------
 Center     Atomic      Atomic             Coordinates (Angstroms)
 Number     Number       Type             X           Y           Z
 ---------------------------------------------------------------------
      1          8           0       -1.744500   -2.741500    0.000000
      2          6           0       -0.581500   -2.741500    0.000000
      3          8           0        0.581500   -2.741500    0.000000
      4          8           0        0.581500    1.578500    0.000000
      5          6           0        0.581500    2.741500    0.000000
      6          8           0        0.581500    3.904500    0.000000
 ---------------------------------------------------------------------

 SCF Done:  E(RHF) =  -375.413401647     A.U. after   10 cycles
 E2 =    -0.1203398675D+01 EUMP2 =    -0.37661680032124D+03
 CCSD(T)
 CCSD(T)= -0.37665473272D+03

 The electronic state is 1-A'.
 Alpha  occ. eigenvalues --  -20.65177 -20.65149 -20.64708 -20.64681 -11.46149
 Alpha  occ. eigenvalues --  -11.45680  -1.52953  -1.52486  -1.47655  -1.47188
 Alpha  occ. eigenvalues --   -0.80076  -0.79607  -0.74264  -0.73794  -0.71426
 Alpha  occ. eigenvalues --   -0.71425  -0.70966  -0.70949  -0.54409  -0.54407
 Alpha  occ. eigenvalues --   -0.53945  -0.53936
 Alpha virt. eigenvalues --    0.16824   0.18024   0.20309   0.20333   0.20789
 Alpha virt. eigenvalues --    0.20827   0.32790   0.34825   0.39315   0.39325
 Alpha virt. eigenvalues --    0.39820   0.40572   0.54471   0.54859   0.65720

 Mulliken charges:
               1
     1  O   -0.270614
     2  C    0.538028
     3  O   -0.267569
     4  O   -0.271054
     5  C    0.538508
     6  O   -0.267299
 Sum of Mulliken charges =  -0.00000

 Dipole moment (field-independent basis, Debye):
    X=              0.0252    Y=              0.0434    Z=              0.0000  Tot=              0.0502
 Quadrupole moment (field-independent basis, Debye-Ang):
   XX=            -34.5564   YY=            -34.5127   ZZ=            -29.3886
   XY=             -0.0171   XZ=              0.0000   YZ=              0.0000

 5877\CCSD(T)=-376.6547327\RMSD=4.629e-09\PG=CS [SG(C2O4)]\\@
 Normal termination of Gaussian 16 at Mon Feb 12 20:08:53 2024.
