 Gaussian 16, Revision A.03,
 Gaussian 16:  ES64L-G16RevA.03 25-Dec-2016

 ------------------
 #p CCSD(T)/cc-pVTZ
 ------------------

 -----------
 CO2_CO2_112
 -----------
 Symbolic Z-matrix:
 Charge =  0 Multiplicity = 1

                         Standard orientation:
 ---------------------------------------------------------------------
 Center     Atomic      Atomic             Coordinates (Angstroms)
 Number     Number       Type             X           Y           Z
 ---------------------------------------------------------------------
      1          8           0        1.233548   -3.055048    0.000000
      2          6           0        0.411183   -2.232683    0.000000
      3          8           0       -0.411183   -1.410317    0.000000
      4          8           0       -0.411183    1.069683   -0.000000
      5          6           0       -0.411183    2.232683   -0.000000
      6          8           0       -0.411183    3.395682   -0.000000
 ---------------------------------------------------------------------

 SCF Done:  E(RHF) =  -375.406620444     A.U. after   11 cycles
 E2 =    -0.1206490212D+01 EUMP2 =    -0.37661311065613D+03
 CCSD(T)
 CCSD(T)= -0.37665062842D+03

 The electronic state is 1-A'.
 Alpha  occ. eigenvalues --  -20.64626 -20.64379 -20.64316 -20.64055 -11.45468
 Alpha  occ. eigenvalues --  -11.45165  -1.52427  -1.52045  -1.47143  -1.46703
 Alpha  occ. eigenvalues --   -0.80840  -0.78434  -0.74685  -0.72141  -0.70935
 Alpha  occ. eigenvalues --   -0.70862  -0.70492  -0.70152  -0.54047  -0.53941
 Alpha  occ. eigenvalues --   -0.53280  -0.53242
 Alpha virt. eigenvalues --    0.17020   0.18757   0.20595   0.20817   0.21161
 Alpha virt. eigenvalues --    0.21368   0.33377   0.36695   0.38944   0.39247
 Alpha virt. eigenvalues --    0.40651   0.42592   0.54065   0.55555   0.64430

 Mulliken charges:
               1
     1  O   -0.280656
     2  C    0.528318
     3  O   -0.248183
     4  O   -0.236432
     5  C    0.523568
     6  O   -0.286615
 Sum of Mulliken charges =  -0.00000

 Dipole moment (field-independent basis, Debye):
    X=             -0.0863    Y=              0.0356    Z=              0.0000  Tot=              0.0934
 Quadrupole moment (field-independent basis, Debye-Ang):
   XX=            -32.0152   YY=            -37.9839   ZZ=            -29.4072
   XY=              2.7226   XZ=             -0.0000   YZ=              0.0000

 376.6014608\CCSD=-376.5930583\CCSD(T)=-376.6506284\RMSD=4.194e-09\PG=C
 Normal termination of Gaussian 16 at Sat Feb 10 16:04:46 2024.
