 Gaussian 16, Revision A.03,
 Gaussian 16:  ES64L-G16RevA.03 25-Dec-2016

 ------------------
 #p CCSD(T)/cc-pVTZ
 ------------------

 -----------
 CO2_CO2_158
 -----------
 Symbolic Z-matrix:
 Charge =  0 Multiplicity = 1

                         Standard orientation:
 ---------------------------------------------------------------------
 Center     Atomic      Atomic             Coordinates (Angstroms)
 Number     Number       Type             X           Y           Z
 ---------------------------------------------------------------------
      1          8           0       -1.744500   -2.121500    0.000000
      2          6           0       -0.581500   -2.121500    0.000000
      3          8           0        0.581500   -2.121500    0.000000
      4          8           0        0.581500    0.958500    0.000000
      5          6           0        0.581500    2.121500    0.000000
      6          8           0        0.581500    3.284500    0.000000
 ---------------------------------------------------------------------

 SCF Done:  E(RHF) =  -375.413141360     A.U. after   11 cycles
 E2 =    -0.1204427956D+01 EUMP2 =    -0.37661756931563D+03
 CCSD(T)
 CCSD(T)= -0.37665544032D+03

 The electronic state is 1-A'.
 Alpha  occ. eigenvalues --  -20.65359 -20.65324 -20.64433 -20.64285 -11.46337
 Alpha  occ. eigenvalues --  -11.45359  -1.53142  -1.52162  -1.47846  -1.46863
 Alpha  occ. eigenvalues --   -0.80339  -0.79301  -0.74594  -0.73469  -0.71614
 Alpha  occ. eigenvalues --   -0.71614  -0.70651  -0.70476  -0.54608  -0.54604
 Alpha  occ. eigenvalues --   -0.53629  -0.53594
 Alpha virt. eigenvalues --    0.16399   0.18859   0.19917   0.20118   0.21094
 Alpha virt. eigenvalues --    0.21735   0.34107   0.34513   0.38414   0.39122
 Alpha virt. eigenvalues --    0.40749   0.44105   0.54273   0.56052   0.63821

 Mulliken charges:
               1
     1  O   -0.273215
     2  C    0.535958
     3  O   -0.264521
     4  O   -0.264666
     5  C    0.539203
     6  O   -0.272758
 Sum of Mulliken charges =  -0.00000

 Dipole moment (field-independent basis, Debye):
    X=              0.0833    Y=              0.1118    Z=              0.0000  Tot=              0.1394
 Quadrupole moment (field-independent basis, Debye-Ang):
   XX=            -34.5821   YY=            -34.5587   ZZ=            -29.3901
   XY=             -0.0354   XZ=              0.0000   YZ=              0.0000

 1346\CCSD(T)=-376.6554403\RMSD=7.362e-09\PG=CS [SG(C2O4)]\\@
 Normal termination of Gaussian 16 at Sat Feb 10 19:49:15 2024.
