 Gaussian 16, Revision A.03,
 Gaussian 16:  ES64L-G16RevA.03 25-Dec-2016

 ------------------
 #p CCSD(T)/cc-pVTZ
 ------------------

 -----------
 CO2_CO2_189
 -----------
 Symbolic Z-matrix:
 Charge =  0 Multiplicity = 1

                         Standard orientation:
 ---------------------------------------------------------------------
 Center     Atomic      Atomic             Coordinates (Angstroms)
 Number     Number       Type             X           Y           Z
 ---------------------------------------------------------------------
      1          8           0        0.000000    0.000000    4.086000
      2          6           0        0.000000    0.000000    2.923000
      3          8           0        0.000000    0.000000    1.760000
      4          8           0        0.000000    0.000000   -1.760000
      5          6           0        0.000000    0.000000   -2.923000
      6          8           0        0.000000    0.000000   -4.086000
 ---------------------------------------------------------------------

 SCF Done:  E(RHF) =  -375.412614209     A.U. after   10 cycles
 E2 =    -0.1203966887D+01 EUMP2 =    -0.37661658109597D+03
 CCSD(T)
 CCSD(T)= -0.37665441472D+03

 The electronic state is 1-SGG.
 Alpha  occ. eigenvalues --  -20.64687 -20.64687 -20.64638 -20.64638 -11.45624
 Alpha  occ. eigenvalues --  -11.45624  -1.52463  -1.52454  -1.47161  -1.47147
 Alpha  occ. eigenvalues --   -0.79683  -0.79393  -0.73890  -0.73520  -0.70948
 Alpha  occ. eigenvalues --   -0.70948  -0.70923  -0.70923  -0.53929  -0.53929
 Alpha  occ. eigenvalues --   -0.53866  -0.53866
 Alpha virt. eigenvalues --    0.17407   0.18006   0.20742   0.20742   0.20874
 Alpha virt. eigenvalues --    0.20874   0.32152   0.36662   0.39704   0.39704
 Alpha virt. eigenvalues --    0.39838   0.39838   0.54868   0.55218   0.58728

 Mulliken charges:
               1
     1  O   -0.273378
     2  C    0.534076
     3  O   -0.260698
     4  O   -0.260698
     5  C    0.534076
     6  O   -0.273378
 Sum of Mulliken charges =   0.00000

 Dipole moment (field-independent basis, Debye):
    X=             -0.0000    Y=             -0.0000    Z=             -0.0000  Tot=              0.0000
 Quadrupole moment (field-independent basis, Debye-Ang):
   XX=            -29.3947   YY=            -29.3947   ZZ=            -40.1960
   XY=              0.0000   XZ=              0.0000   YZ=             -0.0000

 932\CCSD(T)=-376.6544147\RMSD=4.629e-09\PG=D*H [C*(O1C1O1.O1C1O1)]\\@
 Normal termination of Gaussian 16 at Sat Feb 10 22:17:26 2024.
