 Gaussian 16, Revision A.03,
 Gaussian 16:  ES64L-G16RevA.03 25-Dec-2016

 -------------------------------------------------
 #p CCSD(T,MaxCycle=200)/cc-pVTZ SCF(MaxCycle=200)
 -------------------------------------------------

 ---------
 CO2_CO2_4
 ---------
 Symbolic Z-matrix:
 Charge =  0 Multiplicity = 1

                         Standard orientation:
 ---------------------------------------------------------------------
 Center     Atomic      Atomic             Coordinates (Angstroms)
 Number     Number       Type             X           Y           Z
 ---------------------------------------------------------------------
      1          8           0        1.233548   -2.335048    0.000000
      2          6           0        0.411183   -1.512682    0.000000
      3          8           0       -0.411183   -0.690317    0.000000
      4          8           0       -0.411183    0.349683   -0.000000
      5          6           0       -0.411183    1.512682   -0.000000
      6          8           0       -0.411183    2.675682   -0.000000
 ---------------------------------------------------------------------

 SCF Done:  E(RHF) =  -374.542600881     A.U. after   21 cycles
 E2 =    -0.1257035278D+01 EUMP2 =    -0.37579963615890D+03
 CCSD(T)
 CCSD(T)= -0.37584594604D+03

 The electronic state is 1-A'.
 Alpha  occ. eigenvalues --  -20.84718 -20.80258 -20.70519 -20.52605 -11.56156
 Alpha  occ. eigenvalues --  -11.30705  -1.99222  -1.56758  -1.51577  -1.38155
 Alpha  occ. eigenvalues --   -1.26078  -1.00993  -1.00960  -0.81857  -0.73465
 Alpha  occ. eigenvalues --   -0.72400  -0.65815  -0.60396  -0.59183  -0.53572
 Alpha  occ. eigenvalues --   -0.47480  -0.14967
 Alpha virt. eigenvalues --    0.10687   0.10981   0.12303   0.17384   0.25957
 Alpha virt. eigenvalues --    0.29175   0.33261   0.33462   0.35848   0.38142
 Alpha virt. eigenvalues --    0.46231   0.50188   0.56970   0.61602   0.64733

 Mulliken charges:
               1
     1  O   -0.372435
     2  C   -0.113780
     3  O    0.026497
     4  O    0.527425
     5  C    0.107822
     6  O   -0.175529
 Sum of Mulliken charges =   0.00000

 Dipole moment (field-independent basis, Debye):
    X=             -4.1761    Y=              3.9595    Z=             -0.0000  Tot=              5.7547
 Quadrupole moment (field-independent basis, Debye-Ang):
   XX=            -34.7942   YY=            -45.5029   ZZ=            -29.9000
   XY=              4.6612   XZ=             -0.0000   YZ=             -0.0000

 6223\MP4DQ=-375.7518599\MP4SDQ=-375.7835098\CCSD=-375.7726592\CCSD(T)=
 Normal termination of Gaussian 16 at Mon Feb 12 18:19:59 2024.
