 Gaussian 16, Revision A.03,
 Gaussian 16:  ES64L-G16RevA.03 25-Dec-2016

 ------------------
 #p CCSD(T)/cc-pVTZ
 ------------------

 -----------
 CO2_CO2_302
 -----------
 Symbolic Z-matrix:
 Charge =  0 Multiplicity = 1

                         Standard orientation:
 ---------------------------------------------------------------------
 Center     Atomic      Atomic             Coordinates (Angstroms)
 Number     Number       Type             X           Y           Z
 ---------------------------------------------------------------------
      1          8           0       -1.744500   -3.081500    0.000000
      2          6           0       -0.581500   -3.081500    0.000000
      3          8           0        0.581500   -3.081500    0.000000
      4          8           0        0.581500    1.918500    0.000000
      5          6           0        0.581500    3.081500    0.000000
      6          8           0        0.581500    4.244500    0.000000
 ---------------------------------------------------------------------

 SCF Done:  E(RHF) =  -375.413280878     A.U. after   10 cycles
 E2 =    -0.1203307414D+01 EUMP2 =    -0.37661658829240D+03
 CCSD(T)
 CCSD(T)= -0.37665452799D+03

 The electronic state is 1-A'.
 Alpha  occ. eigenvalues --  -20.65117 -20.65100 -20.64783 -20.64767 -11.46092
 Alpha  occ. eigenvalues --  -11.45758  -1.52900  -1.52567  -1.47602  -1.47269
 Alpha  occ. eigenvalues --   -0.80019  -0.79684  -0.74205  -0.73871  -0.71374
 Alpha  occ. eigenvalues --   -0.71373  -0.71045  -0.71036  -0.54354  -0.54353
 Alpha  occ. eigenvalues --   -0.54023  -0.54018
 Alpha virt. eigenvalues --    0.17241   0.17767   0.20387   0.20387   0.20710
 Alpha virt. eigenvalues --    0.20723   0.33606   0.34582   0.39402   0.39406
 Alpha virt. eigenvalues --    0.39718   0.39908   0.54591   0.54966   0.65790

 Mulliken charges:
               1
     1  O   -0.269761
     2  C    0.537625
     3  O   -0.267883
     4  O   -0.270286
     5  C    0.537688
     6  O   -0.267382
 Sum of Mulliken charges =  -0.00000

 Dipole moment (field-independent basis, Debye):
    X=              0.0147    Y=              0.0276    Z=              0.0000  Tot=              0.0312
 Quadrupole moment (field-independent basis, Debye-Ang):
   XX=            -34.5496   YY=            -34.5216   ZZ=            -29.3885
   XY=             -0.0136   XZ=              0.0000   YZ=              0.0000

 65\CCSD(T)=-376.654528\RMSD=4.510e-09\PG=CS [SG(C2O4)]\\@
 Normal termination of Gaussian 16 at Mon Feb 12 23:16:42 2024.
