 Gaussian 16, Revision A.03,
 Gaussian 16:  ES64L-G16RevA.03 25-Dec-2016

 ------------------
 #p CCSD(T)/cc-pVTZ
 ------------------

 -----------
 CO2_CO2_266
 -----------
 Symbolic Z-matrix:
 Charge =  0 Multiplicity = 1

                         Standard orientation:
 ---------------------------------------------------------------------
 Center     Atomic      Atomic             Coordinates (Angstroms)
 Number     Number       Type             X           Y           Z
 ---------------------------------------------------------------------
      1          8           0       -1.744500   -2.841500    0.000000
      2          6           0       -0.581500   -2.841500    0.000000
      3          8           0        0.581500   -2.841500    0.000000
      4          8           0        0.581500    1.678500    0.000000
      5          6           0        0.581500    2.841500    0.000000
      6          8           0        0.581500    4.004500    0.000000
 ---------------------------------------------------------------------

 SCF Done:  E(RHF) =  -375.413356497     A.U. after   10 cycles
 E2 =    -0.1203359197D+01 EUMP2 =    -0.37661671569471D+03
 CCSD(T)
 CCSD(T)= -0.37665465132D+03

 The electronic state is 1-A'.
 Alpha  occ. eigenvalues --  -20.65156 -20.65132 -20.64733 -20.64710 -11.46129
 Alpha  occ. eigenvalues --  -11.45707  -1.52934  -1.52513  -1.47637  -1.47215
 Alpha  occ. eigenvalues --   -0.80056  -0.79633  -0.74243  -0.73820  -0.71408
 Alpha  occ. eigenvalues --   -0.71407  -0.70993  -0.70979  -0.54390  -0.54389
 Alpha  occ. eigenvalues --   -0.53972  -0.53964
 Alpha virt. eigenvalues --    0.16974   0.17938   0.20339   0.20353   0.20762
 Alpha virt. eigenvalues --    0.20782   0.33039   0.34779   0.39347   0.39360
 Alpha virt. eigenvalues --    0.39780   0.40308   0.54501   0.54922   0.65779

 Mulliken charges:
               1
     1  O   -0.270332
     2  C    0.537925
     3  O   -0.267686
     4  O   -0.270867
     5  C    0.538202
     6  O   -0.267242
 Sum of Mulliken charges =  -0.00000

 Dipole moment (field-independent basis, Debye):
    X=              0.0214    Y=              0.0378    Z=              0.0000  Tot=              0.0435
 Quadrupole moment (field-independent basis, Debye-Ang):
   XX=            -34.5541   YY=            -34.5159   ZZ=            -29.3886
   XY=             -0.0162   XZ=              0.0000   YZ=              0.0000

 5121\CCSD(T)=-376.6546513\RMSD=4.533e-09\PG=CS [SG(C2O4)]\\@
 Normal termination of Gaussian 16 at Mon Feb 12 21:03:20 2024.
