 Gaussian 16, Revision A.03,
 Gaussian 16:  ES64L-G16RevA.03 25-Dec-2016

 ------------------
 #p CCSD(T)/cc-pVTZ
 ------------------

 -----------
 CO2_CO2_281
 -----------
 Symbolic Z-matrix:
 Charge =  0 Multiplicity = 1

                         Standard orientation:
 ---------------------------------------------------------------------
 Center     Atomic      Atomic             Coordinates (Angstroms)
 Number     Number       Type             X           Y           Z
 ---------------------------------------------------------------------
      1          8           0       -1.744500   -2.941500    0.000000
      2          6           0       -0.581500   -2.941500    0.000000
      3          8           0        0.581500   -2.941500    0.000000
      4          8           0        0.581500    1.778500    0.000000
      5          6           0        0.581500    2.941500    0.000000
      6          8           0        0.581500    4.104500    0.000000
 ---------------------------------------------------------------------

 SCF Done:  E(RHF) =  -375.413319735     A.U. after   10 cycles
 E2 =    -0.1203331871D+01 EUMP2 =    -0.37661665160548D+03
 CCSD(T)
 CCSD(T)= -0.37665458946D+03

 The electronic state is 1-A'.
 Alpha  occ. eigenvalues --  -20.65138 -20.65117 -20.64755 -20.64736 -11.46112
 Alpha  occ. eigenvalues --  -11.45730  -1.52919  -1.52538  -1.47620  -1.47239
 Alpha  occ. eigenvalues --   -0.80039  -0.79656  -0.74226  -0.73843  -0.71392
 Alpha  occ. eigenvalues --   -0.71391  -0.71016  -0.71005  -0.54373  -0.54372
 Alpha  occ. eigenvalues --   -0.53995  -0.53989
 Alpha virt. eigenvalues --    0.17105   0.17859   0.20362   0.20369   0.20739
 Alpha virt. eigenvalues --    0.20752   0.33297   0.34706   0.39374   0.39384
 Alpha virt. eigenvalues --    0.39749   0.40103   0.54540   0.54958   0.65798

 Mulliken charges:
               1
     1  O   -0.270072
     2  C    0.537798
     3  O   -0.267777
     4  O   -0.270627
     5  C    0.537951
     6  O   -0.267273
 Sum of Mulliken charges =  -0.00000

 Dipole moment (field-independent basis, Debye):
    X=              0.0183    Y=              0.0330    Z=              0.0000  Tot=              0.0378
 Quadrupole moment (field-independent basis, Debye-Ang):
   XX=            -34.5521   YY=            -34.5187   ZZ=            -29.3885
   XY=             -0.0152   XZ=              0.0000   YZ=              0.0000

 543\CCSD(T)=-376.6545895\RMSD=4.500e-09\PG=CS [SG(C2O4)]\\@
 Normal termination of Gaussian 16 at Mon Feb 12 21:57:47 2024.
