 Gaussian 16, Revision A.03,
 Gaussian 16:  ES64L-G16RevA.03 25-Dec-2016

 ------------------
 #p CCSD(T)/cc-pVTZ
 ------------------

 -----------
 CO2_CO2_204
 -----------
 Symbolic Z-matrix:
 Charge =  0 Multiplicity = 1

                         Standard orientation:
 ---------------------------------------------------------------------
 Center     Atomic      Atomic             Coordinates (Angstroms)
 Number     Number       Type             X           Y           Z
 ---------------------------------------------------------------------
      1          8           0        0.000000    0.000000    4.186000
      2          6           0        0.000000    0.000000    3.023000
      3          8           0        0.000000    0.000000    1.860000
      4          8           0        0.000000    0.000000   -1.860000
      5          6           0        0.000000    0.000000   -3.023000
      6          8           0        0.000000    0.000000   -4.186000
 ---------------------------------------------------------------------

 SCF Done:  E(RHF) =  -375.412722045     A.U. after   10 cycles
 E2 =    -0.1203814073D+01 EUMP2 =    -0.37661653611801D+03
 CCSD(T)
 CCSD(T)= -0.37665438772D+03

 The electronic state is 1-SGG.
 Alpha  occ. eigenvalues --  -20.64717 -20.64717 -20.64676 -20.64676 -11.45661
 Alpha  occ. eigenvalues --  -11.45661  -1.52494  -1.52489  -1.47192  -1.47184
 Alpha  occ. eigenvalues --   -0.79666  -0.79481  -0.73866  -0.73629  -0.70976
 Alpha  occ. eigenvalues --   -0.70976  -0.70961  -0.70961  -0.53952  -0.53952
 Alpha  occ. eigenvalues --   -0.53913  -0.53913
 Alpha virt. eigenvalues --    0.17384   0.17962   0.20737   0.20737   0.20820
 Alpha virt. eigenvalues --    0.20820   0.32172   0.36410   0.39707   0.39707
 Alpha virt. eigenvalues --    0.39792   0.39792   0.54919   0.55100   0.59646

 Mulliken charges:
               1
     1  O   -0.272017
     2  C    0.534410
     3  O   -0.262393
     4  O   -0.262393
     5  C    0.534410
     6  O   -0.272017
 Sum of Mulliken charges =  -0.00000

 Dipole moment (field-independent basis, Debye):
    X=             -0.0000    Y=             -0.0000    Z=              0.0000  Tot=              0.0000
 Quadrupole moment (field-independent basis, Debye-Ang):
   XX=            -29.3937   YY=            -29.3937   ZZ=            -40.1441
   XY=              0.0000   XZ=              0.0000   YZ=             -0.0000

 1878\CCSD(T)=-376.6543877\RMSD=4.669e-09\PG=D*H [C*(O1C1O1.O1C1O1)]\\@
 Normal termination of Gaussian 16 at Sat Feb 10 23:31:45 2024.
