 Gaussian 16, Revision A.03,
 Gaussian 16:  ES64L-G16RevA.03 25-Dec-2016

 ------------------
 #p CCSD(T)/cc-pVTZ
 ------------------

 -----------
 CO2_CO2_268
 -----------
 Symbolic Z-matrix:
 Charge =  0 Multiplicity = 1

                         Standard orientation:
 ---------------------------------------------------------------------
 Center     Atomic      Atomic             Coordinates (Angstroms)
 Number     Number       Type             X           Y           Z
 ---------------------------------------------------------------------
      1          8           0        1.233548   -4.095048   -0.000000
      2          6           0        0.411183   -3.272683   -0.000000
      3          8           0       -0.411183   -2.450317   -0.000000
      4          8           0       -0.411183    2.109683    0.000000
      5          6           0       -0.411183    3.272683    0.000000
      6          8           0       -0.411183    4.435682    0.000000
 ---------------------------------------------------------------------

 SCF Done:  E(RHF) =  -375.412992976     A.U. after   10 cycles
 E2 =    -0.1203451265D+01 EUMP2 =    -0.37661644424135D+03
 CCSD(T)
 CCSD(T)= -0.37665435223D+03

 The electronic state is 1-A'.
 Alpha  occ. eigenvalues --  -20.64897 -20.64882 -20.64795 -20.64768 -11.45864
 Alpha  occ. eigenvalues --  -11.45756  -1.52683  -1.52574  -1.47382  -1.47274
 Alpha  occ. eigenvalues --   -0.79784  -0.79676  -0.73968  -0.73859  -0.71158
 Alpha  occ. eigenvalues --   -0.71158  -0.71051  -0.71048  -0.54131  -0.54130
 Alpha  occ. eigenvalues --   -0.54023  -0.54019
 Alpha virt. eigenvalues --    0.17451   0.17733   0.20596   0.20596   0.20701
 Alpha virt. eigenvalues --    0.20707   0.33257   0.35252   0.39588   0.39592
 Alpha virt. eigenvalues --    0.39696   0.39728   0.54812   0.54960   0.65145

 Mulliken charges:
               1
     1  O   -0.270036
     2  C    0.535682
     3  O   -0.265638
     4  O   -0.266450
     5  C    0.535697
     6  O   -0.269255
 Sum of Mulliken charges =  -0.00000

 Dipole moment (field-independent basis, Debye):
    X=             -0.0168    Y=              0.0061    Z=              0.0000  Tot=              0.0179
 Quadrupole moment (field-independent basis, Debye-Ang):
   XX=            -31.9699   YY=            -37.3250   ZZ=            -29.3906
   XY=              2.6058   XZ=              0.0000   YZ=             -0.0000

 =-376.6053787\CCSD=-376.5972023\CCSD(T)=-376.6543522\RMSD=7.041e-09\PG
 Normal termination of Gaussian 16 at Mon Feb 12 21:09:33 2024.
