 Gaussian 16, Revision A.03,
 Gaussian 16:  ES64L-G16RevA.03 25-Dec-2016

 ------------------
 #p CCSD(T)/cc-pVTZ
 ------------------

 ----------
 CO2_CO2_50
 ----------
 Symbolic Z-matrix:
 Charge =  0 Multiplicity = 1

                         Standard orientation:
 ---------------------------------------------------------------------
 Center     Atomic      Atomic             Coordinates (Angstroms)
 Number     Number       Type             X           Y           Z
 ---------------------------------------------------------------------
      1          8           0       -1.744500   -1.401500    0.000000
      2          6           0       -0.581500   -1.401500    0.000000
      3          8           0        0.581500   -1.401500    0.000000
      4          8           0        0.581500    0.238500    0.000000
      5          6           0        0.581500    1.401500    0.000000
      6          8           0        0.581500    2.564500    0.000000
 ---------------------------------------------------------------------

 SCF Done:  E(RHF) =  -375.234989624     A.U. after   14 cycles
 E2 =    -0.1229596562D+01 EUMP2 =    -0.37646458618625D+03
 CCSD(T)
 CCSD(T)= -0.37649859044D+03

 The electronic state is 1-A'.
 Alpha  occ. eigenvalues --  -20.65460 -20.63492 -20.63478 -20.60814 -11.45494
 Alpha  occ. eigenvalues --  -11.43616  -1.56342  -1.51281  -1.48468  -1.44815
 Alpha  occ. eigenvalues --   -0.89352  -0.79407  -0.77062  -0.73987  -0.73400
 Alpha  occ. eigenvalues --   -0.70134  -0.68955  -0.63345  -0.56440  -0.54533
 Alpha  occ. eigenvalues --   -0.50953  -0.44889
 Alpha virt. eigenvalues --    0.15677   0.17868   0.19599   0.21816   0.22067
 Alpha virt. eigenvalues --    0.24411   0.33349   0.36580   0.37086   0.40856
 Alpha virt. eigenvalues --    0.43833   0.47044   0.54271   0.58518   0.65221

 Mulliken charges:
               1
     1  O   -0.290145
     2  C    0.502111
     3  O   -0.226877
     4  O   -0.222374
     5  C    0.525465
     6  O   -0.288179
 Sum of Mulliken charges =  -0.00000

 Dipole moment (field-independent basis, Debye):
    X=              0.4906    Y=              0.3808    Z=              0.0000  Tot=              0.6210
 Quadrupole moment (field-independent basis, Debye-Ang):
   XX=            -34.5685   YY=            -36.1391   ZZ=            -29.2892
   XY=             -0.2893   XZ=              0.0000   YZ=              0.0000

 23\CCSD(T)=-376.4985904\RMSD=6.475e-09\PG=CS [SG(C2O4)]\\@
 Normal termination of Gaussian 16 at Fri Feb  9 23:14:41 2024.
