 Gaussian 16, Revision A.03,
 Gaussian 16:  ES64L-G16RevA.03 25-Dec-2016

 ------------------
 #p CCSD(T)/cc-pVTZ
 ------------------

 ---------
 CO2_CO2_7
 ---------
 Symbolic Z-matrix:
 Charge =  0 Multiplicity = 1

                         Standard orientation:
 ---------------------------------------------------------------------
 Center     Atomic      Atomic             Coordinates (Angstroms)
 Number     Number       Type             X           Y           Z
 ---------------------------------------------------------------------
      1          8           0        1.233548   -2.355048   -0.000000
      2          6           0        0.411183   -1.532683   -0.000000
      3          8           0       -0.411183   -0.710317    0.000000
      4          8           0       -0.411183    0.369682    0.000000
      5          6           0       -0.411183    1.532683    0.000000
      6          8           0       -0.411183    2.695683    0.000000
 ---------------------------------------------------------------------

 SCF Done:  E(RHF) =  -374.600491649     A.U. after   21 cycles
 E2 =    -0.1263210293D+01 EUMP2 =    -0.37586370194144D+03
 CCSD(T)
 CCSD(T)= -0.37590795852D+03

 The electronic state is 1-A'.
 Alpha  occ. eigenvalues --  -20.81844 -20.78179 -20.70439 -20.52561 -11.55299
 Alpha  occ. eigenvalues --  -11.30303  -1.93005  -1.56343  -1.50928  -1.38052
 Alpha  occ. eigenvalues --   -1.23078  -0.96950  -0.96907  -0.81880  -0.73016
 Alpha  occ. eigenvalues --   -0.72016  -0.65793  -0.60191  -0.59120  -0.53508
 Alpha  occ. eigenvalues --   -0.47560  -0.15622
 Alpha virt. eigenvalues --    0.11183   0.11549   0.12569   0.17268   0.26033
 Alpha virt. eigenvalues --    0.29282   0.32932   0.33568   0.35473   0.38299
 Alpha virt. eigenvalues --    0.46300   0.50210   0.56186   0.61599   0.65667

 Mulliken charges:
               1
     1  O   -0.383088
     2  C   -0.017594
     3  O   -0.032221
     4  O    0.424338
     5  C    0.173699
     6  O   -0.165133
 Sum of Mulliken charges =  -0.00000

 Dipole moment (field-independent basis, Debye):
    X=             -3.4168    Y=              4.2678    Z=              0.0000  Tot=              5.4670
 Quadrupole moment (field-independent basis, Debye-Ang):
   XX=            -34.4929   YY=            -46.0990   ZZ=            -29.6744
   XY=              4.6484   XZ=             -0.0000   YZ=             -0.0000

 -375.8469459\CCSD=-375.8345505\CCSD(T)=-375.9079585\RMSD=3.869e-09\PG=
 Normal termination of Gaussian 16 at Fri Feb  9 18:58:20 2024.
