 Gaussian 16, Revision A.03,
 Gaussian 16:  ES64L-G16RevA.03 25-Dec-2016

 ------------------
 #p CCSD(T)/cc-pVTZ
 ------------------

 -----------
 CO2_CO2_220
 -----------
 Symbolic Z-matrix:
 Charge =  0 Multiplicity = 1

                         Standard orientation:
 ---------------------------------------------------------------------
 Center     Atomic      Atomic             Coordinates (Angstroms)
 Number     Number       Type             X           Y           Z
 ---------------------------------------------------------------------
      1          8           0        1.233548   -3.775048    0.000000
      2          6           0        0.411183   -2.952683    0.000000
      3          8           0       -0.411183   -2.130318    0.000000
      4          8           0       -0.411183    1.789683   -0.000000
      5          6           0       -0.411183    2.952683   -0.000000
      6          8           0       -0.411183    4.115682   -0.000000
 ---------------------------------------------------------------------

 SCF Done:  E(RHF) =  -375.412916385     A.U. after   11 cycles
 E2 =    -0.1203663381D+01 EUMP2 =    -0.37661657976577D+03
 CCSD(T)
 CCSD(T)= -0.37665445594D+03

 The electronic state is 1-A'.
 Alpha  occ. eigenvalues --  -20.64859 -20.64837 -20.64730 -20.64693 -11.45818
 Alpha  occ. eigenvalues --  -11.45681  -1.52642  -1.52503  -1.47340  -1.47201
 Alpha  occ. eigenvalues --   -0.79749  -0.79585  -0.73939  -0.73757  -0.71118
 Alpha  occ. eigenvalues --   -0.71118  -0.70981  -0.70974  -0.54088  -0.54088
 Alpha  occ. eigenvalues --   -0.53950  -0.53942
 Alpha virt. eigenvalues --    0.17267   0.17929   0.20630   0.20633   0.20767
 Alpha virt. eigenvalues --    0.20775   0.32103   0.36246   0.39581   0.39600
 Alpha virt. eigenvalues --    0.39771   0.39929   0.54843   0.54990   0.62683

 Mulliken charges:
               1
     1  O   -0.271113
     2  C    0.535126
     3  O   -0.263940
     4  O   -0.265160
     5  C    0.535258
     6  O   -0.270170
 Sum of Mulliken charges =  -0.00000

 Dipole moment (field-independent basis, Debye):
    X=             -0.0251    Y=              0.0068    Z=             -0.0000  Tot=              0.0260
 Quadrupole moment (field-independent basis, Debye-Ang):
   XX=            -31.9735   YY=            -37.3978   ZZ=            -29.3920
   XY=              2.6189   XZ=             -0.0000   YZ=              0.0000

 Q=-376.6054712\CCSD=-376.5972764\CCSD(T)=-376.6544559\RMSD=2.659e-09\P
 Normal termination of Gaussian 16 at Sun Feb 11 00:50:59 2024.
