 Gaussian 16, Revision A.03,
 Gaussian 16:  ES64L-G16RevA.03 25-Dec-2016

 ------------------
 #p CCSD(T)/cc-pVTZ
 ------------------

 -----------
 CO2_CO2_271
 -----------
 Symbolic Z-matrix:
 Charge =  0 Multiplicity = 1

                         Standard orientation:
 ---------------------------------------------------------------------
 Center     Atomic      Atomic             Coordinates (Angstroms)
 Number     Number       Type             X           Y           Z
 ---------------------------------------------------------------------
      1          8           0        1.233548   -4.115048    0.000000
      2          6           0        0.411183   -3.292683    0.000000
      3          8           0       -0.411183   -2.470317    0.000000
      4          8           0       -0.411183    2.129682   -0.000000
      5          6           0       -0.411183    3.292682   -0.000000
      6          8           0       -0.411183    4.455683   -0.000000
 ---------------------------------------------------------------------

 SCF Done:  E(RHF) =  -375.412996196     A.U. after   10 cycles
 E2 =    -0.1203443840D+01 EUMP2 =    -0.37661644003530D+03
 CCSD(T)
 CCSD(T)= -0.37665434926D+03

 The electronic state is 1-A'.
 Alpha  occ. eigenvalues --  -20.64899 -20.64884 -20.64798 -20.64772 -11.45866
 Alpha  occ. eigenvalues --  -11.45760  -1.52685  -1.52578  -1.47384  -1.47277
 Alpha  occ. eigenvalues --   -0.79786  -0.79681  -0.73970  -0.73863  -0.71160
 Alpha  occ. eigenvalues --   -0.71160  -0.71055  -0.71051  -0.54133  -0.54132
 Alpha  occ. eigenvalues --   -0.54027  -0.54023
 Alpha virt. eigenvalues --    0.17458   0.17723   0.20594   0.20594   0.20697
 Alpha virt. eigenvalues --    0.20704   0.33321   0.35193   0.39587   0.39591
 Alpha virt. eigenvalues --    0.39693   0.39722   0.54812   0.54957   0.65229

 Mulliken charges:
               1
     1  O   -0.269996
     2  C    0.535709
     3  O   -0.265707
     4  O   -0.266502
     5  C    0.535726
     6  O   -0.269231
 Sum of Mulliken charges =  -0.00000

 Dipole moment (field-independent basis, Debye):
    X=             -0.0164    Y=              0.0060    Z=              0.0000  Tot=              0.0175
 Quadrupole moment (field-independent basis, Debye-Ang):
   XX=            -31.9697   YY=            -37.3213   ZZ=            -29.3905
   XY=              2.6051   XZ=              0.0000   YZ=              0.0000

 -376.605376\CCSD=-376.5972003\CCSD(T)=-376.6543493\RMSD=6.845e-09\PG=C
 Normal termination of Gaussian 16 at Mon Feb 12 21:20:36 2024.
