 Gaussian 16, Revision A.03,
 Gaussian 16:  ES64L-G16RevA.03 25-Dec-2016

 ------------------
 #p CCSD(T)/cc-pVTZ
 ------------------

 -----------
 CO2_CO2_185
 -----------
 Symbolic Z-matrix:
 Charge =  0 Multiplicity = 1

                         Standard orientation:
 ---------------------------------------------------------------------
 Center     Atomic      Atomic             Coordinates (Angstroms)
 Number     Number       Type             X           Y           Z
 ---------------------------------------------------------------------
      1          8           0       -1.744500   -2.301500    0.000000
      2          6           0       -0.581500   -2.301500    0.000000
      3          8           0        0.581500   -2.301500    0.000000
      4          8           0        0.581500    1.138500    0.000000
      5          6           0        0.581500    2.301500    0.000000
      6          8           0        0.581500    3.464500    0.000000
 ---------------------------------------------------------------------

 SCF Done:  E(RHF) =  -375.413549133     A.U. after   10 cycles
 E2 =    -0.1203885806D+01 EUMP2 =    -0.37661743493885D+03
 CCSD(T)
 CCSD(T)= -0.37665533685D+03

 The electronic state is 1-A'.
 Alpha  occ. eigenvalues --  -20.65302 -20.65258 -20.64545 -20.64466 -11.46270
 Alpha  occ. eigenvalues --  -11.45496  -1.53070  -1.52297  -1.47773  -1.47000
 Alpha  occ. eigenvalues --   -0.80215  -0.79429  -0.74424  -0.73611  -0.71542
 Alpha  occ. eigenvalues --   -0.71541  -0.70784  -0.70715  -0.54530  -0.54529
 Alpha  occ. eigenvalues --   -0.53765  -0.53742
 Alpha virt. eigenvalues --    0.16421   0.18518   0.20080   0.20198   0.20974
 Alpha virt. eigenvalues --    0.21344   0.33152   0.34647   0.38843   0.39127
 Alpha virt. eigenvalues --    0.40297   0.42582   0.54450   0.55137   0.64218

 Mulliken charges:
               1
     1  O   -0.271911
     2  C    0.536928
     3  O   -0.265860
     4  O   -0.268706
     5  C    0.539589
     6  O   -0.270041
 Sum of Mulliken charges =  -0.00000

 Dipole moment (field-independent basis, Debye):
    X=              0.0560    Y=              0.0827    Z=              0.0000  Tot=              0.0999
 Quadrupole moment (field-independent basis, Debye-Ang):
   XX=            -34.5704   YY=            -34.5180   ZZ=            -29.3888
   XY=             -0.0250   XZ=              0.0000   YZ=              0.0000

 1173\CCSD(T)=-376.6553369\RMSD=6.601e-09\PG=CS [SG(C2O4)]\\@
 Normal termination of Gaussian 16 at Sat Feb 10 21:59:14 2024.
