 Gaussian 16, Revision A.03,
 Gaussian 16:  ES64L-G16RevA.03 25-Dec-2016

 ------------------
 #p CCSD(T)/cc-pVTZ
 ------------------

 -----------
 CO2_CO2_113
 -----------
 Symbolic Z-matrix:
 Charge =  0 Multiplicity = 1

                         Standard orientation:
 ---------------------------------------------------------------------
 Center     Atomic      Atomic             Coordinates (Angstroms)
 Number     Number       Type             X           Y           Z
 ---------------------------------------------------------------------
      1          8           0       -1.744500   -1.821500    0.000000
      2          6           0       -0.581500   -1.821500    0.000000
      3          8           0        0.581500   -1.821500    0.000000
      4          8           0        0.581500    0.658500    0.000000
      5          6           0        0.581500    1.821500    0.000000
      6          8           0        0.581500    2.984500    0.000000
 ---------------------------------------------------------------------

 SCF Done:  E(RHF) =  -375.406280950     A.U. after   13 cycles
 E2 =    -0.1206839295D+01 EUMP2 =    -0.37661312024445D+03
 CCSD(T)
 CCSD(T)= -0.37665077313D+03

 The electronic state is 1-A'.
 Alpha  occ. eigenvalues --  -20.65469 -20.65325 -20.64142 -20.63615 -11.46428
 Alpha  occ. eigenvalues --  -11.44947  -1.53335  -1.51798  -1.48022  -1.46467
 Alpha  occ. eigenvalues --   -0.81048  -0.78954  -0.75414  -0.73085  -0.71808
 Alpha  occ. eigenvalues --   -0.71737  -0.70262  -0.69266  -0.54832  -0.54773
 Alpha  occ. eigenvalues --   -0.53186  -0.53033
 Alpha virt. eigenvalues --    0.16137   0.19454   0.19730   0.19965   0.21363
 Alpha virt. eigenvalues --    0.22689   0.34286   0.35322   0.37495   0.39473
 Alpha virt. eigenvalues --    0.41986   0.46971   0.53278   0.57709   0.66692

 Mulliken charges:
               1
     1  O   -0.279146
     2  C    0.537152
     3  O   -0.263731
     4  O   -0.250645
     5  C    0.535850
     6  O   -0.279481
 Sum of Mulliken charges =  -0.00000

 Dipole moment (field-independent basis, Debye):
    X=              0.1679    Y=              0.1955    Z=              0.0000  Tot=              0.2577
 Quadrupole moment (field-independent basis, Debye-Ang):
   XX=            -34.6171   YY=            -34.7838   ZZ=            -29.3946
   XY=             -0.0661   XZ=              0.0000   YZ=              0.0000

 1068\CCSD(T)=-376.6507731\RMSD=1.791e-09\PG=CS [SG(C2O4)]\\@
 Normal termination of Gaussian 16 at Sat Feb 10 16:10:59 2024.
