 Gaussian 16, Revision A.03,
 Gaussian 16:  ES64L-G16RevA.03 25-Dec-2016

 ------------------
 #p CCSD(T)/cc-pVTZ
 ------------------

 -----------
 CO2_CO2_165
 -----------
 Symbolic Z-matrix:
 Charge =  0 Multiplicity = 1

                         Standard orientation:
 ---------------------------------------------------------------------
 Center     Atomic      Atomic             Coordinates (Angstroms)
 Number     Number       Type             X           Y           Z
 ---------------------------------------------------------------------
      1          8           0        0.000000    0.000000    3.926000
      2          6           0        0.000000    0.000000    2.763000
      3          8           0        0.000000    0.000000    1.600000
      4          8           0        0.000000    0.000000   -1.600000
      5          6           0        0.000000    0.000000   -2.763000
      6          8           0        0.000000    0.000000   -3.926000
 ---------------------------------------------------------------------

 SCF Done:  E(RHF) =  -375.412277627     A.U. after   10 cycles
 E2 =    -0.1204322084D+01 EUMP2 =    -0.37661659971108D+03
 CCSD(T)
 CCSD(T)= -0.37665439372D+03

 The electronic state is 1-SGG.
 Alpha  occ. eigenvalues --  -20.64626 -20.64626 -20.64556 -20.64556 -11.45548
 Alpha  occ. eigenvalues --  -11.45548  -1.52404  -1.52382  -1.47104  -1.47069
 Alpha  occ. eigenvalues --   -0.79772  -0.79183  -0.73984  -0.73239  -0.70897
 Alpha  occ. eigenvalues --   -0.70897  -0.70845  -0.70845  -0.53894  -0.53894
 Alpha  occ. eigenvalues --   -0.53762  -0.53762
 Alpha virt. eigenvalues --    0.17493   0.18078   0.20735   0.20735   0.20994
 Alpha virt. eigenvalues --    0.20994   0.32551   0.37032   0.39676   0.39676
 Alpha virt. eigenvalues --    0.39942   0.39942   0.54777   0.55096   0.59074

 Mulliken charges:
               1
     1  O   -0.276771
     2  C    0.532399
     3  O   -0.255628
     4  O   -0.255628
     5  C    0.532399
     6  O   -0.276771
 Sum of Mulliken charges =  -0.00000

 Dipole moment (field-independent basis, Debye):
    X=             -0.0000    Y=             -0.0000    Z=              0.0000  Tot=              0.0000
 Quadrupole moment (field-independent basis, Debye-Ang):
   XX=            -29.3972   YY=            -29.3972   ZZ=            -40.3043
   XY=              0.0000   XZ=              0.0000   YZ=              0.0000

 1228\CCSD(T)=-376.6543937\RMSD=4.563e-09\PG=D*H [C*(O1C1O1.O1C1O1)]\\@
 Normal termination of Gaussian 16 at Sat Feb 10 20:20:31 2024.
