 Gaussian 16, Revision A.03,
 Gaussian 16:  ES64L-G16RevA.03 25-Dec-2016

 ------------------
 #p CCSD(T)/cc-pVTZ
 ------------------

 -----------
 CO2_CO2_279
 -----------
 Symbolic Z-matrix:
 Charge =  0 Multiplicity = 1

                         Standard orientation:
 ---------------------------------------------------------------------
 Center     Atomic      Atomic             Coordinates (Angstroms)
 Number     Number       Type             X           Y           Z
 ---------------------------------------------------------------------
      1          8           0        0.000000    0.000000    4.686000
      2          6           0        0.000000    0.000000    3.523000
      3          8           0        0.000000    0.000000    2.360000
      4          8           0        0.000000    0.000000   -2.360000
      5          6           0        0.000000    0.000000   -3.523000
      6          8           0        0.000000    0.000000   -4.686000
 ---------------------------------------------------------------------

 SCF Done:  E(RHF) =  -375.412931978     A.U. after   10 cycles
 E2 =    -0.1203450214D+01 EUMP2 =    -0.37661638219162D+03
 CCSD(T)
 CCSD(T)= -0.37665428776D+03

 The electronic state is 1-SGG.
 Alpha  occ. eigenvalues --  -20.64818 -20.64818 -20.64794 -20.64794 -11.45779
 Alpha  occ. eigenvalues --  -11.45779  -1.52600  -1.52600  -1.47299  -1.47299
 Alpha  occ. eigenvalues --   -0.79706  -0.79690  -0.73891  -0.73869  -0.71076
 Alpha  occ. eigenvalues --   -0.71076  -0.71075  -0.71075  -0.54047  -0.54047
 Alpha  occ. eigenvalues --   -0.54045  -0.54045
 Alpha virt. eigenvalues --    0.17535   0.17707   0.20675   0.20675   0.20679
 Alpha virt. eigenvalues --    0.20679   0.33685   0.34935   0.39666   0.39666
 Alpha virt. eigenvalues --    0.39673   0.39673   0.54883   0.54948   0.65069

 Mulliken charges:
               1
     1  O   -0.269825
     2  C    0.535307
     3  O   -0.265482
     4  O   -0.265482
     5  C    0.535307
     6  O   -0.269825
 Sum of Mulliken charges =  -0.00000

 Dipole moment (field-independent basis, Debye):
    X=             -0.0000    Y=              0.0000    Z=              0.0000  Tot=              0.0000
 Quadrupole moment (field-independent basis, Debye-Ang):
   XX=            -29.3909   YY=            -29.3909   ZZ=            -39.9805
   XY=              0.0000   XZ=              0.0000   YZ=             -0.0000

 384\CCSD(T)=-376.6542878\RMSD=4.694e-09\PG=D*H [C*(O1C1O1.O1C1O1)]\\@
 Normal termination of Gaussian 16 at Mon Feb 12 21:48:37 2024.
