 Gaussian 16, Revision A.03,
 Gaussian 16:  ES64L-G16RevA.03 25-Dec-2016

 ------------------
 #p CCSD(T)/cc-pVTZ
 ------------------

 -----------
 CO2_CO2_290
 -----------
 Symbolic Z-matrix:
 Charge =  0 Multiplicity = 1

                         Standard orientation:
 ---------------------------------------------------------------------
 Center     Atomic      Atomic             Coordinates (Angstroms)
 Number     Number       Type             X           Y           Z
 ---------------------------------------------------------------------
      1          8           0       -1.744500   -3.001500    0.000000
      2          6           0       -0.581500   -3.001500    0.000000
      3          8           0        0.581500   -3.001500    0.000000
      4          8           0        0.581500    1.838500    0.000000
      5          6           0        0.581500    3.001500    0.000000
      6          8           0        0.581500    4.164500    0.000000
 ---------------------------------------------------------------------

 SCF Done:  E(RHF) =  -375.413301461     A.U. after   10 cycles
 E2 =    -0.1203319782D+01 EUMP2 =    -0.37661662124347D+03
 CCSD(T)
 CCSD(T)= -0.37665456004D+03

 The electronic state is 1-A'.
 Alpha  occ. eigenvalues --  -20.65128 -20.65109 -20.64768 -20.64750 -11.46103
 Alpha  occ. eigenvalues --  -11.45743  -1.52910  -1.52551  -1.47612  -1.47253
 Alpha  occ. eigenvalues --   -0.80030  -0.79669  -0.74216  -0.73855  -0.71384
 Alpha  occ. eigenvalues --   -0.71383  -0.71029  -0.71019  -0.54364  -0.54363
 Alpha  occ. eigenvalues --   -0.54008  -0.54002
 Alpha virt. eigenvalues --    0.17171   0.17817   0.20374   0.20377   0.20726
 Alpha virt. eigenvalues --    0.20738   0.33440   0.34655   0.39387   0.39395
 Alpha virt. eigenvalues --    0.39735   0.40008   0.54563   0.54967   0.65798

 Mulliken charges:
               1
     1  O   -0.269931
     2  C    0.537721
     3  O   -0.267825
     4  O   -0.270478
     5  C    0.537827
     6  O   -0.267315
 Sum of Mulliken charges =  -0.00000

 Dipole moment (field-independent basis, Debye):
    X=              0.0166    Y=              0.0305    Z=              0.0000  Tot=              0.0348
 Quadrupole moment (field-independent basis, Debye-Ang):
   XX=            -34.5510   YY=            -34.5201   ZZ=            -29.3885
   XY=             -0.0145   XZ=              0.0000   YZ=              0.0000

 67\CCSD(T)=-376.65456\RMSD=4.499e-09\PG=CS [SG(C2O4)]\\@
 Normal termination of Gaussian 16 at Mon Feb 12 22:31:40 2024.
