 Gaussian 16, Revision A.03,
 Gaussian 16:  ES64L-G16RevA.03 25-Dec-2016

 ------------------
 #p CCSD(T)/cc-pVTZ
 ------------------

 ----------
 CO2_CO2_72
 ----------
 Symbolic Z-matrix:
 Charge =  0 Multiplicity = 1

                         Standard orientation:
 ---------------------------------------------------------------------
 Center     Atomic      Atomic             Coordinates (Angstroms)
 Number     Number       Type             X           Y           Z
 ---------------------------------------------------------------------
      1          8           0        0.000000    0.000000    3.306000
      2          6           0        0.000000    0.000000    2.143000
      3          8           0        0.000000    0.000000    0.980000
      4          8           0        0.000000    0.000000   -0.980000
      5          6           0        0.000000    0.000000   -2.143000
      6          8           0        0.000000    0.000000   -3.306000
 ---------------------------------------------------------------------

 SCF Done:  E(RHF) =  -375.370028772     A.U. after   10 cycles
 E2 =    -0.1211698355D+01 EUMP2 =    -0.37658172712746D+03
 CCSD(T)
 CCSD(T)= -0.37661822427D+03

 The electronic state is 1-SGG.
 Alpha  occ. eigenvalues --  -20.64027 -20.64027 -20.62989 -20.62988 -11.44528
 Alpha  occ. eigenvalues --  -11.44527  -1.52260  -1.51435  -1.47063  -1.45892
 Alpha  occ. eigenvalues --   -0.85677  -0.77049  -0.75325  -0.70792  -0.70792
 Alpha  occ. eigenvalues --   -0.69756  -0.69756  -0.65338  -0.54329  -0.54329
 Alpha  occ. eigenvalues --   -0.52061  -0.52061
 Alpha virt. eigenvalues --    0.17279   0.19081   0.20249   0.20249   0.22519
 Alpha virt. eigenvalues --    0.22519   0.32747   0.38818   0.38818   0.39561
 Alpha virt. eigenvalues --    0.41100   0.41100   0.53287   0.56582   0.68338

 Mulliken charges:
               1
     1  O   -0.303338
     2  C    0.516039
     3  O   -0.212702
     4  O   -0.212702
     5  C    0.516039
     6  O   -0.303338
 Sum of Mulliken charges =   0.00000

 Dipole moment (field-independent basis, Debye):
    X=             -0.0000    Y=             -0.0000    Z=              0.0000  Tot=              0.0000
 Quadrupole moment (field-independent basis, Debye-Ang):
   XX=            -29.4020   YY=            -29.4020   ZZ=            -41.4986
   XY=              0.0000   XZ=              0.0000   YZ=              0.0000

 1058\CCSD(T)=-376.6182243\RMSD=6.878e-09\PG=D*H [C*(O1C1O1.O1C1O1)]\\@
 Normal termination of Gaussian 16 at Sat Feb 10 01:04:14 2024.
