 Gaussian 16, Revision A.03,
 Gaussian 16:  ES64L-G16RevA.03 25-Dec-2016

 ------------------
 #p CCSD(T)/cc-pVTZ
 ------------------

 -----------
 CO2_CO2_230
 -----------
 Symbolic Z-matrix:
 Charge =  0 Multiplicity = 1

                         Standard orientation:
 ---------------------------------------------------------------------
 Center     Atomic      Atomic             Coordinates (Angstroms)
 Number     Number       Type             X           Y           Z
 ---------------------------------------------------------------------
      1          8           0       -1.744500   -2.601500    0.000000
      2          6           0       -0.581500   -2.601500    0.000000
      3          8           0        0.581500   -2.601500    0.000000
      4          8           0        0.581500    1.438500    0.000000
      5          6           0        0.581500    2.601500    0.000000
      6          8           0        0.581500    3.764500    0.000000
 ---------------------------------------------------------------------

 SCF Done:  E(RHF) =  -375.413475708     A.U. after   10 cycles
 E2 =    -0.1203483767D+01 EUMP2 =    -0.37661695947522D+03
 CCSD(T)
 CCSD(T)= -0.37665488538D+03

 The electronic state is 1-A'.
 Alpha  occ. eigenvalues --  -20.65211 -20.65177 -20.64667 -20.64631 -11.46181
 Alpha  occ. eigenvalues --  -11.45635  -1.52983  -1.52440  -1.47686  -1.47142
 Alpha  occ. eigenvalues --   -0.80109  -0.79563  -0.74299  -0.73750  -0.71456
 Alpha  occ. eigenvalues --   -0.71454  -0.70922  -0.70898  -0.54440  -0.54439
 Alpha  occ. eigenvalues --   -0.53902  -0.53890
 Alpha virt. eigenvalues --    0.16619   0.18155   0.20255   0.20300   0.20835
 Alpha virt. eigenvalues --    0.20929   0.32568   0.34830   0.39242   0.39260
 Alpha virt. eigenvalues --    0.39907   0.41040   0.54476   0.54748   0.65526

 Mulliken charges:
               1
     1  O   -0.271012
     2  C    0.538033
     3  O   -0.267306
     4  O   -0.271067
     5  C    0.538995
     6  O   -0.267643
 Sum of Mulliken charges =  -0.00000

 Dipole moment (field-independent basis, Debye):
    X=              0.0318    Y=              0.0528    Z=              0.0000  Tot=              0.0617
 Quadrupole moment (field-independent basis, Debye-Ang):
   XX=            -34.5599   YY=            -34.5086   ZZ=            -29.3886
   XY=             -0.0183   XZ=              0.0000   YZ=              0.0000

 7278\CCSD(T)=-376.6548854\RMSD=4.931e-09\PG=CS [SG(C2O4)]\\@
 Normal termination of Gaussian 16 at Mon Feb 12 18:50:51 2024.
