 Gaussian 16, Revision A.03,
 Gaussian 16:  ES64L-G16RevA.03 25-Dec-2016

 ------------------
 #p CCSD(T)/cc-pVTZ
 ------------------

 -----------
 CO2_CO2_194
 -----------
 Symbolic Z-matrix:
 Charge =  0 Multiplicity = 1

                         Standard orientation:
 ---------------------------------------------------------------------
 Center     Atomic      Atomic             Coordinates (Angstroms)
 Number     Number       Type             X           Y           Z
 ---------------------------------------------------------------------
      1          8           0       -1.744500   -2.361500    0.000000
      2          6           0       -0.581500   -2.361500    0.000000
      3          8           0        0.581500   -2.361500    0.000000
      4          8           0        0.581500    1.198500    0.000000
      5          6           0        0.581500    2.361500    0.000000
      6          8           0        0.581500    3.524500    0.000000
 ---------------------------------------------------------------------

 SCF Done:  E(RHF) =  -375.413565794     A.U. after   10 cycles
 E2 =    -0.1203769442D+01 EUMP2 =    -0.37661733523590D+03
 CCSD(T)
 CCSD(T)= -0.37665524348D+03

 The electronic state is 1-A'.
 Alpha  occ. eigenvalues --  -20.65282 -20.65239 -20.64575 -20.64508 -11.46250
 Alpha  occ. eigenvalues --  -11.45531  -1.53050  -1.52332  -1.47753  -1.47035
 Alpha  occ. eigenvalues --   -0.80188  -0.79462  -0.74389  -0.73646  -0.71522
 Alpha  occ. eigenvalues --   -0.71520  -0.70818  -0.70765  -0.54509  -0.54508
 Alpha  occ. eigenvalues --   -0.53799  -0.53779
 Alpha virt. eigenvalues --    0.16432   0.18429   0.20123   0.20222   0.20941
 Alpha virt. eigenvalues --    0.21238   0.32905   0.34695   0.38953   0.39150
 Alpha virt. eigenvalues --    0.40189   0.42190   0.54486   0.54933   0.64569

 Mulliken charges:
               1
     1  O   -0.271679
     2  C    0.537265
     3  O   -0.266259
     4  O   -0.269552
     5  C    0.539577
     6  O   -0.269353
 Sum of Mulliken charges =  -0.00000

 Dipole moment (field-independent basis, Debye):
    X=              0.0495    Y=              0.0752    Z=              0.0000  Tot=              0.0901
 Quadrupole moment (field-independent basis, Debye-Ang):
   XX=            -34.5677   YY=            -34.5121   ZZ=            -29.3887
   XY=             -0.0228   XZ=              0.0000   YZ=              0.0000

 0422\CCSD(T)=-376.6552435\RMSD=6.086e-09\PG=CS [SG(C2O4)]\\@
 Normal termination of Gaussian 16 at Sat Feb 10 22:44:01 2024.
