 Gaussian 16, Revision A.03,
 Gaussian 16:  ES64L-G16RevA.03 25-Dec-2016

 ------------------
 #p CCSD(T)/cc-pVTZ
 ------------------

 ----------
 CO2_CO2_14
 ----------
 Symbolic Z-matrix:
 Charge =  0 Multiplicity = 1

                         Standard orientation:
 ---------------------------------------------------------------------
 Center     Atomic      Atomic             Coordinates (Angstroms)
 Number     Number       Type             X           Y           Z
 ---------------------------------------------------------------------
      1          8           0       -1.744500   -1.161500    0.000000
      2          6           0       -0.581500   -1.161500    0.000000
      3          8           0        0.581500   -1.161500    0.000000
      4          8           0        0.581500   -0.001500    0.000000
      5          6           0        0.581500    1.161500    0.000000
      6          8           0        0.581500    2.324500    0.000000
 ---------------------------------------------------------------------

 SCF Done:  E(RHF) =  -374.598682664     A.U. after   22 cycles
 E2 =    -0.1280872590D+01 EUMP2 =    -0.37587955525440D+03
 CCSD(T)
 CCSD(T)= -0.37591741719D+03

 The electronic state is 1-A'.
 Alpha  occ. eigenvalues --  -20.79796 -20.77476 -20.65798 -20.57595 -11.48330
 Alpha  occ. eigenvalues --  -11.33981  -1.90442  -1.53012  -1.48159  -1.42478
 Alpha  occ. eigenvalues --   -1.11455  -0.98004  -0.94007  -0.77675  -0.73419
 Alpha  occ. eigenvalues --   -0.69964  -0.69850  -0.61444  -0.58100  -0.56202
 Alpha  occ. eigenvalues --   -0.51790  -0.16127
 Alpha virt. eigenvalues --    0.13102   0.14635   0.15325   0.18743   0.21496
 Alpha virt. eigenvalues --    0.29397   0.31756   0.35890   0.38030   0.41457
 Alpha virt. eigenvalues --    0.44646   0.46562   0.54062   0.57205   0.60439

 Mulliken charges:
               1
     1  O   -0.325997
     2  C    0.051392
     3  O    0.034740
     4  O    0.202614
     5  C    0.254754
     6  O   -0.217504
 Sum of Mulliken charges =  -0.00000

 Dipole moment (field-independent basis, Debye):
    X=              2.5966    Y=              0.5215    Z=              0.0000  Tot=              2.6484
 Quadrupole moment (field-independent basis, Debye-Ang):
   XX=            -37.4938   YY=            -40.3775   ZZ=            -29.1663
   XY=             -4.7145   XZ=              0.0000   YZ=              0.0000

 302\CCSD(T)=-375.9174172\RMSD=6.025e-09\PG=CS [SG(C2O4)]\\@
 Normal termination of Gaussian 16 at Fri Feb  9 20:05:43 2024.
