 Gaussian 16, Revision A.03,
 Gaussian 16:  ES64L-G16RevA.03 25-Dec-2016

 ------------------
 #p CCSD(T)/cc-pVTZ
 ------------------

 -----------
 CO2_CO2_248
 -----------
 Symbolic Z-matrix:
 Charge =  0 Multiplicity = 1

                         Standard orientation:
 ---------------------------------------------------------------------
 Center     Atomic      Atomic             Coordinates (Angstroms)
 Number     Number       Type             X           Y           Z
 ---------------------------------------------------------------------
      1          8           0       -1.744500   -2.721500    0.000000
      2          6           0       -0.581500   -2.721500    0.000000
      3          8           0        0.581500   -2.721500    0.000000
      4          8           0        0.581500    1.558500    0.000000
      5          6           0        0.581500    2.721500    0.000000
      6          8           0        0.581500    3.884500    0.000000
 ---------------------------------------------------------------------

 SCF Done:  E(RHF) =  -375.413411618     A.U. after   10 cycles
 E2 =    -0.1203408423D+01 EUMP2 =    -0.37661682004034D+03
 CCSD(T)
 CCSD(T)= -0.37665475166D+03

 The electronic state is 1-A'.
 Alpha  occ. eigenvalues --  -20.65181 -20.65152 -20.64702 -20.64674 -11.46153
 Alpha  occ. eigenvalues --  -11.45674  -1.52957  -1.52480  -1.47659  -1.47182
 Alpha  occ. eigenvalues --   -0.80080  -0.79601  -0.74268  -0.73788  -0.71430
 Alpha  occ. eigenvalues --   -0.71429  -0.70960  -0.70943  -0.54413  -0.54411
 Alpha  occ. eigenvalues --   -0.53940  -0.53930
 Alpha virt. eigenvalues --    0.16793   0.18042   0.20302   0.20329   0.20795
 Alpha virt. eigenvalues --    0.20839   0.32747   0.34830   0.39308   0.39316
 Alpha virt. eigenvalues --    0.39830   0.40631   0.54468   0.54844   0.65702

 Mulliken charges:
               1
     1  O   -0.270671
     2  C    0.538041
     3  O   -0.267541
     4  O   -0.271078
     5  C    0.538575
     6  O   -0.267327
 Sum of Mulliken charges =  -0.00000

 Dipole moment (field-independent basis, Debye):
    X=              0.0260    Y=              0.0446    Z=              0.0000  Tot=              0.0517
 Quadrupole moment (field-independent basis, Debye-Ang):
   XX=            -34.5569   YY=            -34.5120   ZZ=            -29.3886
   XY=             -0.0172   XZ=              0.0000   YZ=              0.0000

 2\CCSD(T)=-376.6547517\RMSD=4.659e-09\PG=CS [SG(C2O4)]\\@
 Normal termination of Gaussian 16 at Mon Feb 12 19:56:39 2024.
