 Gaussian 16, Revision A.03,
 Gaussian 16:  ES64L-G16RevA.03 25-Dec-2016

 ------------------
 #p CCSD(T)/cc-pVTZ
 ------------------

 -----------
 CO2_CO2_118
 -----------
 Symbolic Z-matrix:
 Charge =  0 Multiplicity = 1

                         Standard orientation:
 ---------------------------------------------------------------------
 Center     Atomic      Atomic             Coordinates (Angstroms)
 Number     Number       Type             X           Y           Z
 ---------------------------------------------------------------------
      1          8           0        1.233548   -3.095048    0.000000
      2          6           0        0.411183   -2.272683    0.000000
      3          8           0       -0.411183   -1.450317    0.000000
      4          8           0       -0.411183    1.109682   -0.000000
      5          6           0       -0.411183    2.272683   -0.000000
      6          8           0       -0.411183    3.435683   -0.000000
 ---------------------------------------------------------------------

 SCF Done:  E(RHF) =  -375.408247568     A.U. after   11 cycles
 E2 =    -0.1206064912D+01 EUMP2 =    -0.37661431248010D+03
 CCSD(T)
 CCSD(T)= -0.37665189584D+03

 The electronic state is 1-A'.
 Alpha  occ. eigenvalues --  -20.64650 -20.64450 -20.64363 -20.64143 -11.45512
 Alpha  occ. eigenvalues --  -11.45227  -1.52441  -1.52099  -1.47150  -1.46766
 Alpha  occ. eigenvalues --   -0.80591  -0.78570  -0.74569  -0.72344  -0.70944
 Alpha  occ. eigenvalues --   -0.70897  -0.70553  -0.70317  -0.54026  -0.53945
 Alpha  occ. eigenvalues --   -0.53373  -0.53346
 Alpha virt. eigenvalues --    0.17053   0.18679   0.20616   0.20802   0.21117
 Alpha virt. eigenvalues --    0.21291   0.33301   0.36727   0.39033   0.39277
 Alpha virt. eigenvalues --    0.40550   0.42320   0.54161   0.55469   0.64396

 Mulliken charges:
               1
     1  O   -0.279884
     2  C    0.528588
     3  O   -0.249040
     4  O   -0.239654
     5  C    0.525068
     6  O   -0.285078
 Sum of Mulliken charges =  -0.00000

 Dipole moment (field-independent basis, Debye):
    X=             -0.0796    Y=              0.0303    Z=             -0.0000  Tot=              0.0852
 Quadrupole moment (field-independent basis, Debye-Ang):
   XX=            -32.0092   YY=            -37.9131   ZZ=            -29.4057
   XY=              2.7104   XZ=             -0.0000   YZ=              0.0000

 Q=-376.602751\CCSD=-376.5943802\CCSD(T)=-376.6518958\RMSD=4.152e-09\PG
 Normal termination of Gaussian 16 at Sat Feb 10 16:34:07 2024.
