 Gaussian 16, Revision A.03,
 Gaussian 16:  ES64L-G16RevA.03 25-Dec-2016

 ------------------
 #p CCSD(T)/cc-pVTZ
 ------------------

 -----------
 CO2_CO2_244
 -----------
 Symbolic Z-matrix:
 Charge =  0 Multiplicity = 1

                         Standard orientation:
 ---------------------------------------------------------------------
 Center     Atomic      Atomic             Coordinates (Angstroms)
 Number     Number       Type             X           Y           Z
 ---------------------------------------------------------------------
      1          8           0        1.233548   -3.935048    0.000000
      2          6           0        0.411183   -3.112683    0.000000
      3          8           0       -0.411183   -2.290317    0.000000
      4          8           0       -0.411183    1.949683   -0.000000
      5          6           0       -0.411183    3.112683   -0.000000
      6          8           0       -0.411183    4.275682   -0.000000
 ---------------------------------------------------------------------

 SCF Done:  E(RHF) =  -375.412963407     A.U. after   10 cycles
 E2 =    -0.1203532160D+01 EUMP2 =    -0.37661649556717D+03
 CCSD(T)
 CCSD(T)= -0.37665439065D+03

 The electronic state is 1-A'.
 Alpha  occ. eigenvalues --  -20.64880 -20.64863 -20.64765 -20.64734 -11.45844
 Alpha  occ. eigenvalues --  -11.45723  -1.52665  -1.52542  -1.47364  -1.47241
 Alpha  occ. eigenvalues --   -0.79766  -0.79639  -0.73951  -0.73818  -0.71141
 Alpha  occ. eigenvalues --   -0.71140  -0.71020  -0.71015  -0.54112  -0.54111
 Alpha  occ. eigenvalues --   -0.53990  -0.53985
 Alpha virt. eigenvalues --    0.17368   0.17823   0.20611   0.20613   0.20730
 Alpha virt. eigenvalues --    0.20738   0.32675   0.35758   0.39590   0.39600
 Alpha virt. eigenvalues --    0.39726   0.39797   0.54814   0.54984   0.64172

 Mulliken charges:
               1
     1  O   -0.270437
     2  C    0.535447
     3  O   -0.264981
     4  O   -0.265951
     5  C    0.535470
     6  O   -0.269547
 Sum of Mulliken charges =  -0.00000

 Dipole moment (field-independent basis, Debye):
    X=             -0.0204    Y=              0.0065    Z=             -0.0000  Tot=              0.0214
 Quadrupole moment (field-independent basis, Debye-Ang):
   XX=            -31.9716   YY=            -37.3575   ZZ=            -29.3912
   XY=              2.6116   XZ=             -0.0000   YZ=              0.0000

 =-376.6054133\CCSD=-376.5972296\CCSD(T)=-376.6543906\RMSD=9.000e-09\PG
 Normal termination of Gaussian 16 at Mon Feb 12 19:41:09 2024.
