 Gaussian 16, Revision A.03,
 Gaussian 16:  ES64L-G16RevA.03 25-Dec-2016

 ------------------
 #p CCSD(T)/cc-pVTZ
 ------------------

 -----------
 CO2_CO2_208
 -----------
 Symbolic Z-matrix:
 Charge =  0 Multiplicity = 1

                         Standard orientation:
 ---------------------------------------------------------------------
 Center     Atomic      Atomic             Coordinates (Angstroms)
 Number     Number       Type             X           Y           Z
 ---------------------------------------------------------------------
      1          8           0        1.233548   -3.695048    0.000000
      2          6           0        0.411183   -2.872683    0.000000
      3          8           0       -0.411183   -2.050317   -0.000000
      4          8           0       -0.411183    1.709682   -0.000000
      5          6           0       -0.411183    2.872683   -0.000000
      6          8           0       -0.411183    4.035683   -0.000000
 ---------------------------------------------------------------------

 SCF Done:  E(RHF) =  -375.412874198     A.U. after   11 cycles
 E2 =    -0.1203755890D+01 EUMP2 =    -0.37661663008780D+03
 CCSD(T)
 CCSD(T)= -0.37665449446D+03

 The electronic state is 1-A'.
 Alpha  occ. eigenvalues --  -20.64846 -20.64821 -20.64709 -20.64667 -11.45802
 Alpha  occ. eigenvalues --  -11.45656  -1.52627  -1.52480  -1.47325  -1.47178
 Alpha  occ. eigenvalues --   -0.79746  -0.79547  -0.73939  -0.73711  -0.71104
 Alpha  occ. eigenvalues --   -0.71104  -0.70958  -0.70950  -0.54073  -0.54073
 Alpha  occ. eigenvalues --   -0.53925  -0.53916
 Alpha virt. eigenvalues --    0.17222   0.17985   0.20641   0.20645   0.20790
 Alpha virt. eigenvalues --    0.20796   0.31914   0.36444   0.39572   0.39592
 Alpha virt. eigenvalues --    0.39803   0.40033   0.54875   0.54990   0.61888

 Mulliken charges:
               1
     1  O   -0.271632
     2  C    0.534876
     3  O   -0.263144
     4  O   -0.264517
     5  C    0.535148
     6  O   -0.270731
 Sum of Mulliken charges =  -0.00000

 Dipole moment (field-independent basis, Debye):
    X=             -0.0280    Y=              0.0070    Z=             -0.0000  Tot=              0.0289
 Quadrupole moment (field-independent basis, Debye-Ang):
   XX=            -31.9746   YY=            -37.4231   ZZ=            -29.3925
   XY=              2.6235   XZ=             -0.0000   YZ=             -0.0000

 Q=-376.6055039\CCSD=-376.5973016\CCSD(T)=-376.6544945\RMSD=2.726e-09\P
 Normal termination of Gaussian 16 at Sat Feb 10 23:51:56 2024.
