 Gaussian 16, Revision A.03,
 Gaussian 16:  ES64L-G16RevA.03 25-Dec-2016

 ------------------
 #p CCSD(T)/cc-pVTZ
 ------------------

 ----------
 CO2_CO2_55
 ----------
 Symbolic Z-matrix:
 Charge =  0 Multiplicity = 1

                         Standard orientation:
 ---------------------------------------------------------------------
 Center     Atomic      Atomic             Coordinates (Angstroms)
 Number     Number       Type             X           Y           Z
 ---------------------------------------------------------------------
      1          8           0        1.233548   -2.675048    0.000000
      2          6           0        0.411183   -1.852683    0.000000
      3          8           0       -0.411183   -1.030318    0.000000
      4          8           0       -0.411183    0.689683   -0.000000
      5          6           0       -0.411183    1.852683   -0.000000
      6          8           0       -0.411183    3.015682   -0.000000
 ---------------------------------------------------------------------

 SCF Done:  E(RHF) =  -375.303274099     A.U. after   13 cycles
 E2 =    -0.1221110521D+01 EUMP2 =    -0.37652438461962D+03
 CCSD(T)
 CCSD(T)= -0.37655901140D+03

 The electronic state is 1-A'.
 Alpha  occ. eigenvalues --  -20.64260 -20.63258 -20.62608 -20.62261 -11.44456
 Alpha  occ. eigenvalues --  -11.43651  -1.53307  -1.50974  -1.47625  -1.45166
 Alpha  occ. eigenvalues --   -0.89926  -0.76859  -0.75430  -0.72014  -0.71477
 Alpha  occ. eigenvalues --   -0.69512  -0.69196  -0.62721  -0.55265  -0.53767
 Alpha  occ. eigenvalues --   -0.51176  -0.49053
 Alpha virt. eigenvalues --    0.16555   0.19781   0.19858   0.20682   0.22292
 Alpha virt. eigenvalues --    0.22904   0.34115   0.36339   0.37934   0.39102
 Alpha virt. eigenvalues --    0.42173   0.45591   0.53862   0.57525   0.67490

 Mulliken charges:
               1
     1  O   -0.297051
     2  C    0.513340
     3  O   -0.224063
     4  O   -0.211241
     5  C    0.524514
     6  O   -0.305499
 Sum of Mulliken charges =  -0.00000

 Dipole moment (field-independent basis, Debye):
    X=             -0.2314    Y=              0.2221    Z=             -0.0000  Tot=              0.3207
 Quadrupole moment (field-independent basis, Debye-Ang):
   XX=            -32.1161   YY=            -39.4269   ZZ=            -29.3508
   XY=              2.9981   XZ=             -0.0000   YZ=              0.0000

 =-376.5095024\CCSD=-376.499765\CCSD(T)=-376.5590114\RMSD=7.195e-09\PG=
 Normal termination of Gaussian 16 at Fri Feb  9 23:37:54 2024.
