 Gaussian 16, Revision A.03,
 Gaussian 16:  ES64L-G16RevA.03 25-Dec-2016

 ------------------
 #p CCSD(T)/cc-pVTZ
 ------------------

 -----------
 CO2_CO2_154
 -----------
 Symbolic Z-matrix:
 Charge =  0 Multiplicity = 1

                         Standard orientation:
 ---------------------------------------------------------------------
 Center     Atomic      Atomic             Coordinates (Angstroms)
 Number     Number       Type             X           Y           Z
 ---------------------------------------------------------------------
      1          8           0        1.233548   -3.335048    0.000000
      2          6           0        0.411183   -2.512683    0.000000
      3          8           0       -0.411183   -1.690318    0.000000
      4          8           0       -0.411183    1.349683    0.000000
      5          6           0       -0.411183    2.512683    0.000000
      6          8           0       -0.411183    3.675682    0.000000
 ---------------------------------------------------------------------

 SCF Done:  E(RHF) =  -375.412065177     A.U. after   11 cycles
 E2 =    -0.1204578378D+01 EUMP2 =    -0.37661664355463D+03
 CCSD(T)
 CCSD(T)= -0.37665442060D+03

 The electronic state is 1-A'.
 Alpha  occ. eigenvalues --  -20.64756 -20.64690 -20.64559 -20.64466 -11.45682
 Alpha  occ. eigenvalues --  -11.45475  -1.52532  -1.52315  -1.47230  -1.47007
 Alpha  occ. eigenvalues --   -0.79898  -0.79168  -0.74105  -0.73228  -0.71015
 Alpha  occ. eigenvalues --   -0.71013  -0.70791  -0.70753  -0.54006  -0.53990
 Alpha  occ. eigenvalues --   -0.53721  -0.53709
 Alpha virt. eigenvalues --    0.17164   0.18310   0.20674   0.20716   0.20939
 Alpha virt. eigenvalues --    0.20983   0.32564   0.36787   0.39411   0.39448
 Alpha virt. eigenvalues --    0.40108   0.41014   0.54736   0.55185   0.62128

 Mulliken charges:
               1
     1  O   -0.275909
     2  C    0.531795
     3  O   -0.255872
     4  O   -0.255249
     5  C    0.532325
     6  O   -0.277090
 Sum of Mulliken charges =  -0.00000

 Dipole moment (field-independent basis, Debye):
    X=             -0.0503    Y=              0.0133    Z=              0.0000  Tot=              0.0520
 Quadrupole moment (field-independent basis, Debye-Ang):
   XX=            -31.9859   YY=            -37.6257   ZZ=            -29.3973
   XY=              2.6600   XZ=             -0.0000   YZ=             -0.0000

 -376.6053709\CCSD=-376.5971078\CCSD(T)=-376.6544206\RMSD=3.388e-09\PG=
 Normal termination of Gaussian 16 at Sat Feb 10 19:28:24 2024.
