 Gaussian 16, Revision A.03,
 Gaussian 16:  ES64L-G16RevA.03 25-Dec-2016

 ------------------
 #p CCSD(T)/cc-pVTZ
 ------------------

 -----------
 CO2_CO2_269
 -----------
 Symbolic Z-matrix:
 Charge =  0 Multiplicity = 1

                         Standard orientation:
 ---------------------------------------------------------------------
 Center     Atomic      Atomic             Coordinates (Angstroms)
 Number     Number       Type             X           Y           Z
 ---------------------------------------------------------------------
      1          8           0       -1.744500   -2.861500    0.000000
      2          6           0       -0.581500   -2.861500    0.000000
      3          8           0        0.581500   -2.861500    0.000000
      4          8           0        0.581500    1.698500    0.000000
      5          6           0        0.581500    2.861500    0.000000
      6          8           0        0.581500    4.024500    0.000000
 ---------------------------------------------------------------------

 SCF Done:  E(RHF) =  -375.413348476     A.U. after   10 cycles
 E2 =    -0.1203352889D+01 EUMP2 =    -0.37661670136513D+03
 CCSD(T)
 CCSD(T)= -0.37665463751D+03

 The electronic state is 1-A'.
 Alpha  occ. eigenvalues --  -20.65152 -20.65129 -20.64738 -20.64716 -11.46125
 Alpha  occ. eigenvalues --  -11.45711  -1.52931  -1.52518  -1.47633  -1.47220
 Alpha  occ. eigenvalues --   -0.80053  -0.79638  -0.74240  -0.73825  -0.71405
 Alpha  occ. eigenvalues --   -0.71403  -0.70998  -0.70985  -0.54386  -0.54385
 Alpha  occ. eigenvalues --   -0.53977  -0.53970
 Alpha virt. eigenvalues --    0.17002   0.17921   0.20344   0.20356   0.20757
 Alpha virt. eigenvalues --    0.20775   0.33091   0.34766   0.39353   0.39366
 Alpha virt. eigenvalues --    0.39773   0.40263   0.54509   0.54931   0.65785

 Mulliken charges:
               1
     1  O   -0.270278
     2  C    0.537900
     3  O   -0.267705
     4  O   -0.270822
     5  C    0.538147
     6  O   -0.267243
 Sum of Mulliken charges =  -0.00000

 Dipole moment (field-independent basis, Debye):
    X=              0.0207    Y=              0.0368    Z=              0.0000  Tot=              0.0422
 Quadrupole moment (field-independent basis, Debye-Ang):
   XX=            -34.5537   YY=            -34.5165   ZZ=            -29.3886
   XY=             -0.0160   XZ=              0.0000   YZ=              0.0000

 92\CCSD(T)=-376.6546375\RMSD=4.522e-09\PG=CS [SG(C2O4)]\\@
 Normal termination of Gaussian 16 at Mon Feb 12 21:14:11 2024.
