 Gaussian 16, Revision A.03,
 Gaussian 16:  ES64L-G16RevA.03 25-Dec-2016

 ------------------
 #p CCSD(T)/cc-pVTZ
 ------------------

 -----------
 CO2_CO2_175
 -----------
 Symbolic Z-matrix:
 Charge =  0 Multiplicity = 1

                         Standard orientation:
 ---------------------------------------------------------------------
 Center     Atomic      Atomic             Coordinates (Angstroms)
 Number     Number       Type             X           Y           Z
 ---------------------------------------------------------------------
      1          8           0        1.233548   -3.475048    0.000000
      2          6           0        0.411183   -2.652683    0.000000
      3          8           0       -0.411183   -1.830318    0.000000
      4          8           0       -0.411183    1.489683   -0.000000
      5          6           0       -0.411183    2.652683   -0.000000
      6          8           0       -0.411183    3.815683   -0.000000
 ---------------------------------------------------------------------

 SCF Done:  E(RHF) =  -375.412589811     A.U. after   11 cycles
 E2 =    -0.1204149307D+01 EUMP2 =    -0.37661673911809D+03
 CCSD(T)
 CCSD(T)= -0.37665456106D+03

 The electronic state is 1-A'.
 Alpha  occ. eigenvalues --  -20.64798 -20.64757 -20.64631 -20.64568 -11.45741
 Alpha  occ. eigenvalues --  -11.45563  -1.52576  -1.52394  -1.47273  -1.47089
 Alpha  occ. eigenvalues --   -0.79785  -0.79369  -0.73992  -0.73493  -0.71055
 Alpha  occ. eigenvalues --   -0.71055  -0.70873  -0.70855  -0.54030  -0.54025
 Alpha  occ. eigenvalues --   -0.53825  -0.53814
 Alpha virt. eigenvalues --    0.17169   0.18162   0.20671   0.20680   0.20871
 Alpha virt. eigenvalues --    0.20883   0.32055   0.36745   0.39515   0.39521
 Alpha virt. eigenvalues --    0.39951   0.40515   0.54883   0.55104   0.60832

 Mulliken charges:
               1
     1  O   -0.273909
     2  C    0.533483
     3  O   -0.259461
     4  O   -0.260618
     5  C    0.534265
     6  O   -0.273760
 Sum of Mulliken charges =  -0.00000

 Dipole moment (field-independent basis, Debye):
    X=             -0.0394    Y=              0.0093    Z=              0.0000  Tot=              0.0404
 Quadrupole moment (field-independent basis, Debye-Ang):
   XX=            -31.9795   YY=            -37.5250   ZZ=            -29.3945
   XY=              2.6419   XZ=             -0.0000   YZ=              0.0000

 -376.6055424\CCSD=-376.5973105\CCSD(T)=-376.6545611\RMSD=3.025e-09\PG=
 Normal termination of Gaussian 16 at Sat Feb 10 21:09:37 2024.
