 Gaussian 16, Revision A.03,
 Gaussian 16:  ES64L-G16RevA.03 25-Dec-2016

 ------------------
 #p CCSD(T)/cc-pVTZ
 ------------------

 ----------
 CO2_CO2_63
 ----------
 Symbolic Z-matrix:
 Charge =  0 Multiplicity = 1

                         Standard orientation:
 ---------------------------------------------------------------------
 Center     Atomic      Atomic             Coordinates (Angstroms)
 Number     Number       Type             X           Y           Z
 ---------------------------------------------------------------------
      1          8           0        0.000000    0.000000    3.246000
      2          6           0        0.000000    0.000000    2.083000
      3          8           0        0.000000    0.000000    0.920000
      4          8           0        0.000000    0.000000   -0.920000
      5          6           0        0.000000    0.000000   -2.083000
      6          8           0        0.000000    0.000000   -3.246000
 ---------------------------------------------------------------------

 SCF Done:  E(RHF) =  -375.345164117     A.U. after   10 cycles
 E2 =    -0.1214486010D+01 EUMP2 =    -0.37655965012682D+03
 CCSD(T)
 CCSD(T)= -0.37659558281D+03

 The electronic state is 1-SGG.
 Alpha  occ. eigenvalues --  -20.63893 -20.63893 -20.62507 -20.62505 -11.44230
 Alpha  occ. eigenvalues --  -11.44230  -1.52405  -1.51197  -1.47183  -1.45547
 Alpha  occ. eigenvalues --   -0.87897  -0.76777  -0.75373  -0.70883  -0.70883
 Alpha  occ. eigenvalues --   -0.69472  -0.69472  -0.62544  -0.54588  -0.54588
 Alpha  occ. eigenvalues --   -0.51580  -0.51580
 Alpha virt. eigenvalues --    0.17246   0.19289   0.20090   0.20090   0.22887
 Alpha virt. eigenvalues --    0.22887   0.32564   0.38685   0.38685   0.39802
 Alpha virt. eigenvalues --    0.41332   0.41332   0.53220   0.57146   0.68492

 Mulliken charges:
               1
     1  O   -0.308043
     2  C    0.517656
     3  O   -0.209613
     4  O   -0.209613
     5  C    0.517656
     6  O   -0.308043
 Sum of Mulliken charges =  -0.00000

 Dipole moment (field-independent basis, Debye):
    X=             -0.0000    Y=             -0.0000    Z=             -0.0000  Tot=              0.0000
 Quadrupole moment (field-independent basis, Debye-Ang):
   XX=            -29.3894   YY=            -29.3894   ZZ=            -41.7670
   XY=              0.0000   XZ=              0.0000   YZ=              0.0000

 166\CCSD(T)=-376.5955828\RMSD=7.469e-09\PG=D*H [C*(O1C1O1.O1C1O1)]\\@
 Normal termination of Gaussian 16 at Sat Feb 10 00:17:30 2024.
