 Gaussian 16, Revision A.03,
 Gaussian 16:  ES64L-G16RevA.03 25-Dec-2016

 ------------------
 #p CCSD(T)/cc-pVTZ
 ------------------

 -----------
 CO2_CO2_162
 -----------
 Symbolic Z-matrix:
 Charge =  0 Multiplicity = 1

                         Standard orientation:
 ---------------------------------------------------------------------
 Center     Atomic      Atomic             Coordinates (Angstroms)
 Number     Number       Type             X           Y           Z
 ---------------------------------------------------------------------
      1          8           0        0.000000    0.000000    3.906000
      2          6           0        0.000000    0.000000    2.743000
      3          8           0        0.000000    0.000000    1.580000
      4          8           0        0.000000    0.000000   -1.580000
      5          6           0        0.000000    0.000000   -2.743000
      6          8           0        0.000000    0.000000   -3.906000
 ---------------------------------------------------------------------

 SCF Done:  E(RHF) =  -375.412209547     A.U. after   10 cycles
 E2 =    -0.1204379777D+01 EUMP2 =    -0.37661658932384D+03
 CCSD(T)
 CCSD(T)= -0.37665437688D+03

 The electronic state is 1-SGG.
 Alpha  occ. eigenvalues --  -20.64618 -20.64618 -20.64543 -20.64543 -11.45536
 Alpha  occ. eigenvalues --  -11.45536  -1.52396  -1.52371  -1.47097  -1.47057
 Alpha  occ. eigenvalues --   -0.79792  -0.79149  -0.74003  -0.73190  -0.70890
 Alpha  occ. eigenvalues --   -0.70890  -0.70833  -0.70833  -0.53890  -0.53890
 Alpha  occ. eigenvalues --   -0.53746  -0.53746
 Alpha virt. eigenvalues --    0.17505   0.18089   0.20733   0.20733   0.21013
 Alpha virt. eigenvalues --    0.21013   0.32625   0.37081   0.39669   0.39669
 Alpha virt. eigenvalues --    0.39958   0.39958   0.54769   0.55043   0.59327

 Mulliken charges:
               1
     1  O   -0.277301
     2  C    0.532027
     3  O   -0.254726
     4  O   -0.254726
     5  C    0.532027
     6  O   -0.277301
 Sum of Mulliken charges =  -0.00000

 Dipole moment (field-independent basis, Debye):
    X=             -0.0000    Y=              0.0000    Z=              0.0000  Tot=              0.0000
 Quadrupole moment (field-independent basis, Debye-Ang):
   XX=            -29.3976   YY=            -29.3976   ZZ=            -40.3205
   XY=              0.0000   XZ=              0.0000   YZ=              0.0000

 7098\CCSD(T)=-376.6543769\RMSD=4.561e-09\PG=D*H [C*(O1C1O1.O1C1O1)]\\@
 Normal termination of Gaussian 16 at Sat Feb 10 20:07:01 2024.
