 Gaussian 16, Revision A.03,
 Gaussian 16:  ES64L-G16RevA.03 25-Dec-2016

 ------------------
 #p CCSD(T)/cc-pVTZ
 ------------------

 -----------
 CO2_CO2_100
 -----------
 Symbolic Z-matrix:
 Charge =  0 Multiplicity = 1

                         Standard orientation:
 ---------------------------------------------------------------------
 Center     Atomic      Atomic             Coordinates (Angstroms)
 Number     Number       Type             X           Y           Z
 ---------------------------------------------------------------------
      1          8           0        1.233548   -2.975048    0.000000
      2          6           0        0.411183   -2.152683    0.000000
      3          8           0       -0.411183   -1.330317    0.000000
      4          8           0       -0.411183    0.989683   -0.000000
      5          6           0       -0.411183    2.152683   -0.000000
      6          8           0       -0.411183    3.315682   -0.000000
 ---------------------------------------------------------------------

 SCF Done:  E(RHF) =  -375.401392951     A.U. after   11 cycles
 E2 =    -0.1207625084D+01 EUMP2 =    -0.37660901803491D+03
 CCSD(T)
 CCSD(T)= -0.37664634662D+03

 The electronic state is 1-A'.
 Alpha  occ. eigenvalues --  -20.64570 -20.64202 -20.64190 -20.63832 -11.45357
 Alpha  occ. eigenvalues --  -11.45011  -1.52410  -1.51915  -1.47141  -1.46543
 Alpha  occ. eigenvalues --   -0.81562  -0.78132  -0.74936  -0.71761  -0.70928
 Alpha  occ. eigenvalues --   -0.70745  -0.70342  -0.69610  -0.54117  -0.53937
 Alpha  occ. eigenvalues --   -0.53045  -0.52961
 Alpha virt. eigenvalues --    0.16948   0.18930   0.20535   0.20842   0.21273
 Alpha virt. eigenvalues --    0.21555   0.33532   0.36604   0.38747   0.39190
 Alpha virt. eigenvalues --    0.40880   0.43173   0.53909   0.55770   0.64649

 Mulliken charges:
               1
     1  O   -0.282423
     2  C    0.527949
     3  O   -0.246769
     4  O   -0.229904
     5  C    0.520943
     6  O   -0.289797
 Sum of Mulliken charges =  -0.00000

 Dipole moment (field-independent basis, Debye):
    X=             -0.1025    Y=              0.0496    Z=              0.0000  Tot=              0.1139
 Quadrupole moment (field-independent basis, Debye-Ang):
   XX=            -32.0292   YY=            -38.1557   ZZ=            -29.4087
   XY=              2.7526   XZ=             -0.0000   YZ=              0.0000

 -376.5971259\CCSD=-376.5886364\CCSD(T)=-376.6463466\RMSD=4.112e-09\PG=
 Normal termination of Gaussian 16 at Sat Feb 10 03:23:33 2024.
