 Gaussian 16, Revision A.03,
 Gaussian 16:  ES64L-G16RevA.03 25-Dec-2016

 ------------------
 #p CCSD(T)/cc-pVTZ
 ------------------

 -----------
 CO2_CO2_125
 -----------
 Symbolic Z-matrix:
 Charge =  0 Multiplicity = 1

                         Standard orientation:
 ---------------------------------------------------------------------
 Center     Atomic      Atomic             Coordinates (Angstroms)
 Number     Number       Type             X           Y           Z
 ---------------------------------------------------------------------
      1          8           0       -1.744500   -1.901500    0.000000
      2          6           0       -0.581500   -1.901500    0.000000
      3          8           0        0.581500   -1.901500    0.000000
      4          8           0        0.581500    0.738500    0.000000
      5          6           0        0.581500    1.901500    0.000000
      6          8           0        0.581500    3.064500    0.000000
 ---------------------------------------------------------------------

 SCF Done:  E(RHF) =  -375.409861990     A.U. after   13 cycles
 E2 =    -0.1205870450D+01 EUMP2 =    -0.37661573243997D+03
 CCSD(T)
 CCSD(T)= -0.37665348815D+03

 The electronic state is 1-A'.
 Alpha  occ. eigenvalues --  -20.65427 -20.65371 -20.64235 -20.63867 -11.46414
 Alpha  occ. eigenvalues --  -11.45089  -1.53268  -1.51915  -1.47966  -1.46601
 Alpha  occ. eigenvalues --   -0.80730  -0.79065  -0.75099  -0.73199  -0.71742
 Alpha  occ. eigenvalues --   -0.71718  -0.70395  -0.69763  -0.54752  -0.54725
 Alpha  occ. eigenvalues --   -0.53345  -0.53256
 Alpha virt. eigenvalues --    0.16236   0.19437   0.19633   0.20006   0.21283
 Alpha virt. eigenvalues --    0.22393   0.34356   0.35094   0.37748   0.39333
 Alpha virt. eigenvalues --    0.41602   0.46332   0.53595   0.57343   0.66576

 Mulliken charges:
               1
     1  O   -0.276985
     2  C    0.536365
     3  O   -0.263652
     4  O   -0.255582
     5  C    0.537345
     6  O   -0.277491
 Sum of Mulliken charges =  -0.00000

 Dipole moment (field-independent basis, Debye):
    X=              0.1389    Y=              0.1677    Z=              0.0000  Tot=              0.2178
 Quadrupole moment (field-independent basis, Debye-Ang):
   XX=            -34.6064   YY=            -34.6939   ZZ=            -29.3938
   XY=             -0.0558   XZ=              0.0000   YZ=              0.0000

 13\CCSD(T)=-376.6534882\RMSD=1.498e-09\PG=CS [SG(C2O4)]\\@
 Normal termination of Gaussian 16 at Sat Feb 10 17:10:23 2024.
