 Gaussian 16, Revision A.03,
 Gaussian 16:  ES64L-G16RevA.03 25-Dec-2016

 ------------------
 #p CCSD(T)/cc-pVTZ
 ------------------

 -----------
 CO2_CO2_292
 -----------
 Symbolic Z-matrix:
 Charge =  0 Multiplicity = 1

                         Standard orientation:
 ---------------------------------------------------------------------
 Center     Atomic      Atomic             Coordinates (Angstroms)
 Number     Number       Type             X           Y           Z
 ---------------------------------------------------------------------
      1          8           0        1.233548   -4.255048    0.000000
      2          6           0        0.411183   -3.432682    0.000000
      3          8           0       -0.411183   -2.610317    0.000000
      4          8           0       -0.411183    2.269683   -0.000000
      5          6           0       -0.411183    3.432682   -0.000000
      6          8           0       -0.411183    4.595682   -0.000000
 ---------------------------------------------------------------------

 SCF Done:  E(RHF) =  -375.413019215     A.U. after   10 cycles
 E2 =    -0.1203400874D+01 EUMP2 =    -0.37661642008977D+03
 CCSD(T)
 CCSD(T)= -0.37665433644D+03

 The electronic state is 1-A'.
 Alpha  occ. eigenvalues --  -20.64911 -20.64898 -20.64819 -20.64797 -11.45880
 Alpha  occ. eigenvalues --  -11.45784  -1.52698  -1.52601  -1.47397  -1.47301
 Alpha  occ. eigenvalues --   -0.79801  -0.79706  -0.73985  -0.73889  -0.71173
 Alpha  occ. eigenvalues --   -0.71173  -0.71077  -0.71075  -0.54146  -0.54146
 Alpha  occ. eigenvalues --   -0.54050  -0.54047
 Alpha virt. eigenvalues --    0.17498   0.17666   0.20582   0.20583   0.20676
 Alpha virt. eigenvalues --    0.20681   0.33691   0.34837   0.39581   0.39583
 Alpha virt. eigenvalues --    0.39674   0.39690   0.54813   0.54930   0.65640

 Mulliken charges:
               1
     1  O   -0.269755
     2  C    0.535887
     3  O   -0.266131
     4  O   -0.266824
     5  C    0.535905
     6  O   -0.269082
 Sum of Mulliken charges =  -0.00000

 Dipole moment (field-independent basis, Debye):
    X=             -0.0139    Y=              0.0055    Z=             -0.0000  Tot=              0.0149
 Quadrupole moment (field-independent basis, Debye-Ang):
   XX=            -31.9686   YY=            -37.2969   ZZ=            -29.3901
   XY=              2.6009   XZ=             -0.0000   YZ=              0.0000

 Q=-376.6053649\CCSD=-376.5971934\CCSD(T)=-376.6543364\RMSD=5.724e-09\P
 Normal termination of Gaussian 16 at Mon Feb 12 22:37:57 2024.
