 Gaussian 16, Revision A.03,
 Gaussian 16:  ES64L-G16RevA.03 25-Dec-2016

 ------------------
 #p CCSD(T)/cc-pVTZ
 ------------------

 -----------
 CO2_CO2_105
 -----------
 Symbolic Z-matrix:
 Charge =  0 Multiplicity = 1

                         Standard orientation:
 ---------------------------------------------------------------------
 Center     Atomic      Atomic             Coordinates (Angstroms)
 Number     Number       Type             X           Y           Z
 ---------------------------------------------------------------------
      1          8           0        0.000000    0.000000    3.526000
      2          6           0        0.000000    0.000000    2.363000
      3          8           0        0.000000    0.000000    1.200000
      4          8           0        0.000000    0.000000   -1.200000
      5          6           0        0.000000    0.000000   -2.363000
      6          8           0        0.000000    0.000000   -3.526000
 ---------------------------------------------------------------------

 SCF Done:  E(RHF) =  -375.404873953     A.U. after   10 cycles
 E2 =    -0.1206751786D+01 EUMP2 =    -0.37661162573896D+03
 CCSD(T)
 CCSD(T)= -0.37664906610D+03

 The electronic state is 1-SGG.
 Alpha  occ. eigenvalues --  -20.64356 -20.64356 -20.64022 -20.64022 -11.45151
 Alpha  occ. eigenvalues --  -11.45151  -1.52222  -1.51997  -1.46960  -1.46625
 Alpha  occ. eigenvalues --   -0.81356  -0.78028  -0.74800  -0.70757  -0.70757
 Alpha  occ. eigenvalues --   -0.70749  -0.70407  -0.70407  -0.53932  -0.53932
 Alpha  occ. eigenvalues --   -0.53112  -0.53112
 Alpha virt. eigenvalues --    0.17445   0.18531   0.20564   0.20564   0.21645
 Alpha virt. eigenvalues --    0.21645   0.33144   0.38592   0.39286   0.39286
 Alpha virt. eigenvalues --    0.40486   0.40486   0.53795   0.55276   0.67113

 Mulliken charges:
               1
     1  O   -0.290918
     2  C    0.518090
     3  O   -0.227172
     4  O   -0.227172
     5  C    0.518090
     6  O   -0.290918
 Sum of Mulliken charges =  -0.00000

 Dipole moment (field-independent basis, Debye):
    X=             -0.0000    Y=             -0.0000    Z=             -0.0000  Tot=              0.0000
 Quadrupole moment (field-independent basis, Debye-Ang):
   XX=            -29.4115   YY=            -29.4115   ZZ=            -40.8301
   XY=              0.0000   XZ=              0.0000   YZ=              0.0000

 879\CCSD(T)=-376.6490661\RMSD=5.499e-09\PG=D*H [C*(O1C1O1.O1C1O1)]\\@
 Normal termination of Gaussian 16 at Sat Feb 10 15:26:35 2024.
