 Gaussian 16, Revision A.03,
 Gaussian 16:  ES64L-G16RevA.03 25-Dec-2016

 ------------------
 #p CCSD(T)/cc-pVTZ
 ------------------

 -----------
 CO2_CO2_210
 -----------
 Symbolic Z-matrix:
 Charge =  0 Multiplicity = 1

                         Standard orientation:
 ---------------------------------------------------------------------
 Center     Atomic      Atomic             Coordinates (Angstroms)
 Number     Number       Type             X           Y           Z
 ---------------------------------------------------------------------
      1          8           0        0.000000    0.000000    4.226000
      2          6           0        0.000000    0.000000    3.063000
      3          8           0        0.000000    0.000000    1.900000
      4          8           0        0.000000    0.000000   -1.900000
      5          6           0        0.000000    0.000000   -3.063000
      6          8           0        0.000000    0.000000   -4.226000
 ---------------------------------------------------------------------

 SCF Done:  E(RHF) =  -375.412753543     A.U. after   10 cycles
 E2 =    -0.1203763486D+01 EUMP2 =    -0.37661651702965D+03
 CCSD(T)
 CCSD(T)= -0.37665437501D+03

 The electronic state is 1-SGG.
 Alpha  occ. eigenvalues --  -20.64728 -20.64728 -20.64689 -20.64689 -11.45674
 Alpha  occ. eigenvalues --  -11.45674  -1.52505  -1.52501  -1.47203  -1.47197
 Alpha  occ. eigenvalues --   -0.79664  -0.79509  -0.73862  -0.73663  -0.70986
 Alpha  occ. eigenvalues --   -0.70986  -0.70973  -0.70973  -0.53961  -0.53961
 Alpha  occ. eigenvalues --   -0.53929  -0.53929
 Alpha virt. eigenvalues --    0.17384   0.17943   0.20733   0.20733   0.20801
 Alpha virt. eigenvalues --    0.20801   0.32239   0.36299   0.39706   0.39706
 Alpha virt. eigenvalues --    0.39777   0.39777   0.54935   0.55054   0.60140

 Mulliken charges:
               1
     1  O   -0.271614
     2  C    0.534487
     3  O   -0.262873
     4  O   -0.262873
     5  C    0.534487
     6  O   -0.271614
 Sum of Mulliken charges =  -0.00000

 Dipole moment (field-independent basis, Debye):
    X=             -0.0000    Y=             -0.0000    Z=              0.0000  Tot=              0.0000
 Quadrupole moment (field-independent basis, Debye-Ang):
   XX=            -29.3933   YY=            -29.3933   ZZ=            -40.1261
   XY=              0.0000   XZ=              0.0000   YZ=             -0.0000

 822\CCSD(T)=-376.654375\RMSD=4.680e-09\PG=D*H [C*(O1C1O1.O1C1O1)]\\@
 Normal termination of Gaussian 16 at Sun Feb 11 00:00:16 2024.
