 Gaussian 16, Revision A.03,
 Gaussian 16:  ES64L-G16RevA.03 25-Dec-2016

 ------------------
 #p CCSD(T)/cc-pVTZ
 ------------------

 -----------
 CO2_CO2_203
 -----------
 Symbolic Z-matrix:
 Charge =  0 Multiplicity = 1

                         Standard orientation:
 ---------------------------------------------------------------------
 Center     Atomic      Atomic             Coordinates (Angstroms)
 Number     Number       Type             X           Y           Z
 ---------------------------------------------------------------------
      1          8           0       -1.744500   -2.421500    0.000000
      2          6           0       -0.581500   -2.421500    0.000000
      3          8           0        0.581500   -2.421500    0.000000
      4          8           0        0.581500    1.258500    0.000000
      5          6           0        0.581500    2.421500    0.000000
      6          8           0        0.581500    3.584500    0.000000
 ---------------------------------------------------------------------

 SCF Done:  E(RHF) =  -375.413558340     A.U. after   10 cycles
 E2 =    -0.1203674815D+01 EUMP2 =    -0.37661723315572D+03
 CCSD(T)
 CCSD(T)= -0.37665514677D+03

 The electronic state is 1-A'.
 Alpha  occ. eigenvalues --  -20.65263 -20.65222 -20.64601 -20.64545 -11.46231
 Alpha  occ. eigenvalues --  -11.45561  -1.53031  -1.52364  -1.47734  -1.47066
 Alpha  occ. eigenvalues --   -0.80164  -0.79492  -0.74361  -0.73677  -0.71504
 Alpha  occ. eigenvalues --   -0.71502  -0.70848  -0.70806  -0.54490  -0.54488
 Alpha  occ. eigenvalues --   -0.53829  -0.53811
 Alpha virt. eigenvalues --    0.16454   0.18351   0.20162   0.20244   0.20910
 Alpha virt. eigenvalues --    0.21144   0.32720   0.34740   0.39047   0.39177
 Alpha virt. eigenvalues --    0.40097   0.41848   0.54516   0.54788   0.64898

 Mulliken charges:
               1
     1  O   -0.271494
     2  C    0.537559
     3  O   -0.266608
     4  O   -0.270186
     5  C    0.539501
     6  O   -0.268772
 Sum of Mulliken charges =  -0.00000

 Dipole moment (field-independent basis, Debye):
    X=              0.0440    Y=              0.0687    Z=              0.0000  Tot=              0.0816
 Quadrupole moment (field-independent basis, Debye-Ang):
   XX=            -34.5654   YY=            -34.5089   ZZ=            -29.3886
   XY=             -0.0211   XZ=              0.0000   YZ=              0.0000

 9602\CCSD(T)=-376.6551468\RMSD=5.698e-09\PG=CS [SG(C2O4)]\\@
 Normal termination of Gaussian 16 at Sat Feb 10 23:29:18 2024.
