 Gaussian 16, Revision A.03,
 Gaussian 16:  ES64L-G16RevA.03 25-Dec-2016

 ------------------
 #p CCSD(T)/cc-pVTZ
 ------------------

 -----------
 CO2_CO2_257
 -----------
 Symbolic Z-matrix:
 Charge =  0 Multiplicity = 1

                         Standard orientation:
 ---------------------------------------------------------------------
 Center     Atomic      Atomic             Coordinates (Angstroms)
 Number     Number       Type             X           Y           Z
 ---------------------------------------------------------------------
      1          8           0       -1.744500   -2.781500    0.000000
      2          6           0       -0.581500   -2.781500    0.000000
      3          8           0        0.581500   -2.781500    0.000000
      4          8           0        0.581500    1.618500    0.000000
      5          6           0        0.581500    2.781500    0.000000
      6          8           0        0.581500    3.944500    0.000000
 ---------------------------------------------------------------------

 SCF Done:  E(RHF) =  -375.413382603     A.U. after   10 cycles
 E2 =    -0.1203381152D+01 EUMP2 =    -0.37661676375498D+03
 CCSD(T)
 CCSD(T)= -0.37665469757D+03

 The electronic state is 1-A'.
 Alpha  occ. eigenvalues --  -20.65168 -20.65142 -20.64718 -20.64693 -11.46141
 Alpha  occ. eigenvalues --  -11.45691  -1.52945  -1.52497  -1.47647  -1.47199
 Alpha  occ. eigenvalues --   -0.80068  -0.79618  -0.74255  -0.73805  -0.71419
 Alpha  occ. eigenvalues --   -0.71417  -0.70977  -0.70962  -0.54401  -0.54400
 Alpha  occ. eigenvalues --   -0.53956  -0.53948
 Alpha virt. eigenvalues --    0.16885   0.17989   0.20322   0.20341   0.20778
 Alpha virt. eigenvalues --    0.20807   0.32885   0.34810   0.39328   0.39341
 Alpha virt. eigenvalues --    0.39803   0.40459   0.54481   0.54887   0.65749

 Mulliken charges:
               1
     1  O   -0.270499
     2  C    0.537992
     3  O   -0.267620
     4  O   -0.270990
     5  C    0.538379
     6  O   -0.267262
 Sum of Mulliken charges =  -0.00000

 Dipole moment (field-independent basis, Debye):
    X=              0.0236    Y=              0.0411    Z=              0.0000  Tot=              0.0474
 Quadrupole moment (field-independent basis, Debye-Ang):
   XX=            -34.5555   YY=            -34.5140   ZZ=            -29.3886
   XY=             -0.0167   XZ=              0.0000   YZ=              0.0000

 551\CCSD(T)=-376.6546976\RMSD=4.581e-09\PG=CS [SG(C2O4)]\\@
 Normal termination of Gaussian 16 at Mon Feb 12 20:30:22 2024.
