 Gaussian 16, Revision A.03,
 Gaussian 16:  ES64L-G16RevA.03 25-Dec-2016

 ------------------
 #p CCSD(T)/cc-pVTZ
 ------------------

 ----------
 CO2_CO2_47
 ----------
 Symbolic Z-matrix:
 Charge =  0 Multiplicity = 1

                         Standard orientation:
 ---------------------------------------------------------------------
 Center     Atomic      Atomic             Coordinates (Angstroms)
 Number     Number       Type             X           Y           Z
 ---------------------------------------------------------------------
      1          8           0       -1.744500   -1.381500    0.000000
      2          6           0       -0.581500   -1.381500    0.000000
      3          8           0        0.581500   -1.381500    0.000000
      4          8           0        0.581500    0.218500    0.000000
      5          6           0        0.581500    1.381500    0.000000
      6          8           0        0.581500    2.544500    0.000000
 ---------------------------------------------------------------------

 SCF Done:  E(RHF) =  -375.207630720     A.U. after   14 cycles
 E2 =    -0.1232774115D+01 EUMP2 =    -0.37644040483552D+03
 CCSD(T)
 CCSD(T)= -0.37647384101D+03

 The electronic state is 1-A'.
 Alpha  occ. eigenvalues --  -20.65429 -20.63436 -20.63358 -20.60732 -11.45340
 Alpha  occ. eigenvalues --  -11.43519  -1.57036  -1.51260  -1.48475  -1.44659
 Alpha  occ. eigenvalues --   -0.90234  -0.79695  -0.77078  -0.74114  -0.73689
 Alpha  occ. eigenvalues --   -0.69972  -0.68858  -0.63066  -0.56648  -0.54463
 Alpha  occ. eigenvalues --   -0.50753  -0.43538
 Alpha virt. eigenvalues --    0.15649   0.17739   0.19525   0.21840   0.22259
 Alpha virt. eigenvalues --    0.24455   0.33268   0.36569   0.37221   0.40966
 Alpha virt. eigenvalues --    0.43889   0.46985   0.54422   0.58490   0.65116

 Mulliken charges:
               1
     1  O   -0.290510
     2  C    0.496059
     3  O   -0.219998
     4  O   -0.219633
     5  C    0.522702
     6  O   -0.288621
 Sum of Mulliken charges =  -0.00000

 Dipole moment (field-independent basis, Debye):
    X=              0.5235    Y=              0.3899    Z=              0.0000  Tot=              0.6527
 Quadrupole moment (field-independent basis, Debye-Ang):
   XX=            -34.5551   YY=            -36.2885   ZZ=            -29.2734
   XY=             -0.3262   XZ=              0.0000   YZ=              0.0000

 64\CCSD(T)=-376.473841\RMSD=7.549e-09\PG=CS [SG(C2O4)]\\@
 Normal termination of Gaussian 16 at Fri Feb  9 22:58:23 2024.
