 Gaussian 16, Revision A.03,
 Gaussian 16:  ES64L-G16RevA.03 25-Dec-2016

 ------------------
 #p CCSD(T)/cc-pVTZ
 ------------------

 -----------
 CO2_CO2_287
 -----------
 Symbolic Z-matrix:
 Charge =  0 Multiplicity = 1

                         Standard orientation:
 ---------------------------------------------------------------------
 Center     Atomic      Atomic             Coordinates (Angstroms)
 Number     Number       Type             X           Y           Z
 ---------------------------------------------------------------------
      1          8           0       -1.744500   -2.981500    0.000000
      2          6           0       -0.581500   -2.981500    0.000000
      3          8           0        0.581500   -2.981500    0.000000
      4          8           0        0.581500    1.818500    0.000000
      5          6           0        0.581500    2.981500    0.000000
      6          8           0        0.581500    4.144500    0.000000
 ---------------------------------------------------------------------

 SCF Done:  E(RHF) =  -375.413307261     A.U. after   10 cycles
 E2 =    -0.1203323510D+01 EUMP2 =    -0.37661663077113D+03
 CCSD(T)
 CCSD(T)= -0.37665456928D+03

 The electronic state is 1-A'.
 Alpha  occ. eigenvalues --  -20.65131 -20.65112 -20.64764 -20.64745 -11.46106
 Alpha  occ. eigenvalues --  -11.45739  -1.52913  -1.52547  -1.47615  -1.47248
 Alpha  occ. eigenvalues --   -0.80033  -0.79665  -0.74219  -0.73851  -0.71387
 Alpha  occ. eigenvalues --   -0.71386  -0.71025  -0.71015  -0.54367  -0.54366
 Alpha  occ. eigenvalues --   -0.54003  -0.53998
 Alpha virt. eigenvalues --    0.17150   0.17830   0.20370   0.20375   0.20730
 Alpha virt. eigenvalues --    0.20742   0.33394   0.34672   0.39383   0.39391
 Alpha virt. eigenvalues --    0.39739   0.40037   0.54556   0.54965   0.65799

 Mulliken charges:
               1
     1  O   -0.269977
     2  C    0.537746
     3  O   -0.267809
     4  O   -0.270527
     5  C    0.537866
     6  O   -0.267300
 Sum of Mulliken charges =  -0.00000

 Dipole moment (field-independent basis, Debye):
    X=              0.0171    Y=              0.0314    Z=              0.0000  Tot=              0.0357
 Quadrupole moment (field-independent basis, Debye-Ang):
   XX=            -34.5513   YY=            -34.5196   ZZ=            -29.3885
   XY=             -0.0147   XZ=              0.0000   YZ=              0.0000

 354\CCSD(T)=-376.6545693\RMSD=4.498e-09\PG=CS [SG(C2O4)]\\@
 Normal termination of Gaussian 16 at Mon Feb 12 22:20:55 2024.
