 Gaussian 16, Revision A.03,
 Gaussian 16:  ES64L-G16RevA.03 25-Dec-2016

 ------------------
 #p CCSD(T)/cc-pVTZ
 ------------------

 ----------
 CO2_CO2_26
 ----------
 Symbolic Z-matrix:
 Charge =  0 Multiplicity = 1

                         Standard orientation:
 ---------------------------------------------------------------------
 Center     Atomic      Atomic             Coordinates (Angstroms)
 Number     Number       Type             X           Y           Z
 ---------------------------------------------------------------------
      1          8           0       -1.744500   -1.241500    0.000000
      2          6           0       -0.581500   -1.241500    0.000000
      3          8           0        0.581500   -1.241500    0.000000
      4          8           0        0.581500    0.078500    0.000000
      5          6           0        0.581500    1.241500    0.000000
      6          8           0        0.581500    2.404500    0.000000
 ---------------------------------------------------------------------

 SCF Done:  E(RHF) =  -374.879735533     A.U. after   17 cycles
 E2 =    -0.1273498759D+01 EUMP2 =    -0.37615323429242D+03
 CCSD(T)
 CCSD(T)= -0.37617917087D+03

 The electronic state is 1-A'.
 Alpha  occ. eigenvalues --  -20.65286 -20.64762 -20.64242 -20.62476 -11.44306
 Alpha  occ. eigenvalues --  -11.41872  -1.68910  -1.51163  -1.47847  -1.44129
 Alpha  occ. eigenvalues --   -0.98820  -0.85669  -0.79254  -0.77220  -0.74246
 Alpha  occ. eigenvalues --   -0.69375  -0.68227  -0.61825  -0.58583  -0.54294
 Alpha  occ. eigenvalues --   -0.49872  -0.27894
 Alpha virt. eigenvalues --    0.15037   0.16429   0.18102   0.21833   0.23328
 Alpha virt. eigenvalues --    0.24995   0.32514   0.36519   0.38097   0.41825
 Alpha virt. eigenvalues --    0.44222   0.46641   0.55056   0.57880   0.63870

 Mulliken charges:
               1
     1  O   -0.291422
     2  C    0.366915
     3  O   -0.096557
     4  O   -0.176054
     5  C    0.470315
     6  O   -0.273197
 Sum of Mulliken charges =  -0.00000

 Dipole moment (field-independent basis, Debye):
    X=              1.1141    Y=              0.6129    Z=              0.0000  Tot=              1.2715
 Quadrupole moment (field-independent basis, Debye-Ang):
   XX=            -34.6099   YY=            -38.3407   ZZ=            -29.1715
   XY=             -1.1827   XZ=              0.0000   YZ=              0.0000

 561\CCSD(T)=-376.1791709\RMSD=6.382e-09\PG=CS [SG(C2O4)]\\@
 Normal termination of Gaussian 16 at Fri Feb  9 21:10:05 2024.
