 Gaussian 16, Revision A.03,
 Gaussian 16:  ES64L-G16RevA.03 25-Dec-2016

 ------------------
 #p CCSD(T)/cc-pVTZ
 ------------------

 -----------
 CO2_CO2_193
 -----------
 Symbolic Z-matrix:
 Charge =  0 Multiplicity = 1

                         Standard orientation:
 ---------------------------------------------------------------------
 Center     Atomic      Atomic             Coordinates (Angstroms)
 Number     Number       Type             X           Y           Z
 ---------------------------------------------------------------------
      1          8           0        1.233548   -3.595048   -0.000000
      2          6           0        0.411183   -2.772683   -0.000000
      3          8           0       -0.411183   -1.950317   -0.000000
      4          8           0       -0.411183    1.609682    0.000000
      5          6           0       -0.411183    2.772682    0.000000
      6          8           0       -0.411183    3.935683    0.000000
 ---------------------------------------------------------------------

 SCF Done:  E(RHF) =  -375.412787151     A.U. after   11 cycles
 E2 =    -0.1203904558D+01 EUMP2 =    -0.37661669170944D+03
 CCSD(T)
 CCSD(T)= -0.37665453905D+03

 The electronic state is 1-A'.
 Alpha  occ. eigenvalues --  -20.64826 -20.64796 -20.64678 -20.64629 -11.45778
 Alpha  occ. eigenvalues --  -11.45619  -1.52606  -1.52446  -1.47304  -1.47142
 Alpha  occ. eigenvalues --   -0.79751  -0.79482  -0.73951  -0.73633  -0.71084
 Alpha  occ. eigenvalues --   -0.71084  -0.70924  -0.70913  -0.54054  -0.54053
 Alpha  occ. eigenvalues --   -0.53886  -0.53876
 Alpha virt. eigenvalues --    0.17185   0.18061   0.20657   0.20658   0.20825
 Alpha virt. eigenvalues --    0.20827   0.31849   0.36625   0.39552   0.39571
 Alpha virt. eigenvalues --    0.39858   0.40212   0.54909   0.55016   0.61090

 Mulliken charges:
               1
     1  O   -0.272509
     2  C    0.534403
     3  O   -0.261768
     4  O   -0.263250
     5  C    0.534925
     6  O   -0.271800
 Sum of Mulliken charges =  -0.00000

 Dipole moment (field-independent basis, Debye):
    X=             -0.0325    Y=              0.0076    Z=             -0.0000  Tot=              0.0333
 Quadrupole moment (field-independent basis, Debye-Ang):
   XX=            -31.9764   YY=            -37.4626   ZZ=            -29.3932
   XY=              2.6307   XZ=             -0.0000   YZ=             -0.0000

 76.6055382\CCSD=-376.5973244\CCSD(T)=-376.654539\RMSD=2.834e-09\PG=CS
 Normal termination of Gaussian 16 at Sat Feb 10 22:38:09 2024.
