 Gaussian 16, Revision A.03,
 Gaussian 16:  ES64L-G16RevA.03 25-Dec-2016

 ------------------
 #p CCSD(T)/cc-pVTZ
 ------------------

 -----------
 CO2_CO2_285
 -----------
 Symbolic Z-matrix:
 Charge =  0 Multiplicity = 1

                         Standard orientation:
 ---------------------------------------------------------------------
 Center     Atomic      Atomic             Coordinates (Angstroms)
 Number     Number       Type             X           Y           Z
 ---------------------------------------------------------------------
      1          8           0        0.000000    0.000000    4.726000
      2          6           0        0.000000    0.000000    3.563000
      3          8           0        0.000000    0.000000    2.400000
      4          8           0        0.000000    0.000000   -2.400000
      5          6           0        0.000000    0.000000   -3.563000
      6          8           0        0.000000    0.000000   -4.726000
 ---------------------------------------------------------------------

 SCF Done:  E(RHF) =  -375.412941920     A.U. after   10 cycles
 E2 =    -0.1203437503D+01 EUMP2 =    -0.37661637942307D+03
 CCSD(T)
 CCSD(T)= -0.37665428723D+03

 The electronic state is 1-SGG.
 Alpha  occ. eigenvalues --  -20.64824 -20.64824 -20.64801 -20.64801 -11.45786
 Alpha  occ. eigenvalues --  -11.45786  -1.52606  -1.52606  -1.47305  -1.47305
 Alpha  occ. eigenvalues --   -0.79711  -0.79698  -0.73896  -0.73878  -0.71082
 Alpha  occ. eigenvalues --   -0.71082  -0.71081  -0.71081  -0.54054  -0.54054
 Alpha  occ. eigenvalues --   -0.54051  -0.54051
 Alpha virt. eigenvalues --    0.17545   0.17690   0.20670   0.20670   0.20673
 Alpha virt. eigenvalues --    0.20673   0.33773   0.34845   0.39662   0.39662
 Alpha virt. eigenvalues --    0.39668   0.39668   0.54881   0.54940   0.65257

 Mulliken charges:
               1
     1  O   -0.269762
     2  C    0.535378
     3  O   -0.265616
     4  O   -0.265616
     5  C    0.535378
     6  O   -0.269762
 Sum of Mulliken charges =   0.00000

 Dipole moment (field-independent basis, Debye):
    X=             -0.0000    Y=             -0.0000    Z=             -0.0000  Tot=              0.0000
 Quadrupole moment (field-independent basis, Debye-Ang):
   XX=            -29.3907   YY=            -29.3907   ZZ=            -39.9709
   XY=              0.0000   XZ=              0.0000   YZ=             -0.0000

 395\CCSD(T)=-376.6542872\RMSD=4.694e-09\PG=D*H [C*(O1C1O1.O1C1O1)]\\@
 Normal termination of Gaussian 16 at Mon Feb 12 22:11:58 2024.
