 Gaussian 16, Revision A.03,
 Gaussian 16:  ES64L-G16RevA.03 25-Dec-2016

 ------------------
 #p CCSD(T)/cc-pVTZ
 ------------------

 -----------
 CO2_CO2_144
 -----------
 Symbolic Z-matrix:
 Charge =  0 Multiplicity = 1

                         Standard orientation:
 ---------------------------------------------------------------------
 Center     Atomic      Atomic             Coordinates (Angstroms)
 Number     Number       Type             X           Y           Z
 ---------------------------------------------------------------------
      1          8           0        0.000000    0.000000    3.786000
      2          6           0        0.000000    0.000000    2.623000
      3          8           0        0.000000    0.000000    1.460000
      4          8           0        0.000000    0.000000   -1.460000
      5          6           0        0.000000    0.000000   -2.623000
      6          8           0        0.000000    0.000000   -3.786000
 ---------------------------------------------------------------------

 SCF Done:  E(RHF) =  -375.411547647     A.U. after   10 cycles
 E2 =    -0.1204815075D+01 EUMP2 =    -0.37661636272187D+03
 CCSD(T)
 CCSD(T)= -0.37665409891D+03

 The electronic state is 1-SGG.
 Alpha  occ. eigenvalues --  -20.64557 -20.64557 -20.64449 -20.64449 -11.45456
 Alpha  occ. eigenvalues --  -11.45456  -1.52343  -1.52293  -1.47048  -1.46971
 Alpha  occ. eigenvalues --   -0.79981  -0.78897  -0.74161  -0.72797  -0.70847
 Alpha  occ. eigenvalues --   -0.70847  -0.70746  -0.70746  -0.53874  -0.53874
 Alpha  occ. eigenvalues --   -0.53623  -0.53623
 Alpha virt. eigenvalues --    0.17555   0.18174   0.20707   0.20707   0.21148
 Alpha virt. eigenvalues --    0.21148   0.33053   0.37433   0.39607   0.39607
 Alpha virt. eigenvalues --    0.40076   0.40076   0.54666   0.54759   0.61880

 Mulliken charges:
               1
     1  O   -0.280906
     2  C    0.528889
     3  O   -0.247983
     4  O   -0.247983
     5  C    0.528889
     6  O   -0.280906
 Sum of Mulliken charges =  -0.00000

 Dipole moment (field-independent basis, Debye):
    X=             -0.0000    Y=             -0.0000    Z=             -0.0000  Tot=              0.0000
 Quadrupole moment (field-independent basis, Debye-Ang):
   XX=            -29.4010   YY=            -29.4010   ZZ=            -40.4340
   XY=              0.0000   XZ=              0.0000   YZ=              0.0000

 7612\CCSD(T)=-376.6540989\RMSD=4.617e-09\PG=D*H [C*(O1C1O1.O1C1O1)]\\@
 Normal termination of Gaussian 16 at Sat Feb 10 18:38:31 2024.
