 Gaussian 16, Revision A.03,
 Gaussian 16:  ES64L-G16RevA.03 25-Dec-2016

 ------------------
 #p CCSD(T)/cc-pVTZ
 ------------------

 -----------
 CO2_CO2_168
 -----------
 Symbolic Z-matrix:
 Charge =  0 Multiplicity = 1

                         Standard orientation:
 ---------------------------------------------------------------------
 Center     Atomic      Atomic             Coordinates (Angstroms)
 Number     Number       Type             X           Y           Z
 ---------------------------------------------------------------------
      1          8           0        0.000000    0.000000    3.946000
      2          6           0        0.000000    0.000000    2.783000
      3          8           0        0.000000    0.000000    1.620000
      4          8           0        0.000000    0.000000   -1.620000
      5          6           0        0.000000    0.000000   -2.783000
      6          8           0        0.000000    0.000000   -3.946000
 ---------------------------------------------------------------------

 SCF Done:  E(RHF) =  -375.412337903     A.U. after   10 cycles
 E2 =    -0.1204267859D+01 EUMP2 =    -0.37661660576202D+03
 CCSD(T)
 CCSD(T)= -0.37665440579D+03

 The electronic state is 1-SGG.
 Alpha  occ. eigenvalues --  -20.64635 -20.64635 -20.64568 -20.64568 -11.45559
 Alpha  occ. eigenvalues --  -11.45559  -1.52412  -1.52392  -1.47112  -1.47081
 Alpha  occ. eigenvalues --   -0.79755  -0.79215  -0.73967  -0.73284  -0.70904
 Alpha  occ. eigenvalues --   -0.70904  -0.70856  -0.70856  -0.53898  -0.53898
 Alpha  occ. eigenvalues --   -0.53778  -0.53778
 Alpha virt. eigenvalues --    0.17481   0.18068   0.20737   0.20737   0.20976
 Alpha virt. eigenvalues --    0.20976   0.32480   0.36984   0.39682   0.39682
 Alpha virt. eigenvalues --    0.39927   0.39927   0.54787   0.55143   0.58870

 Mulliken charges:
               1
     1  O   -0.276264
     2  C    0.532729
     3  O   -0.256465
     4  O   -0.256465
     5  C    0.532729
     6  O   -0.276264
 Sum of Mulliken charges =   0.00000

 Dipole moment (field-independent basis, Debye):
    X=             -0.0000    Y=             -0.0000    Z=              0.0000  Tot=              0.0000
 Quadrupole moment (field-independent basis, Debye-Ang):
   XX=            -29.3968   YY=            -29.3968   ZZ=            -40.2888
   XY=              0.0000   XZ=              0.0000   YZ=              0.0000

 71423\CCSD(T)=-376.6544058\RMSD=4.568e-09\PG=D*H [C*(O1C1O1.O1C1O1)]\\
 Normal termination of Gaussian 16 at Sat Feb 10 20:34:40 2024.
