 Gaussian 16, Revision A.03,
 Gaussian 16:  ES64L-G16RevA.03 25-Dec-2016

 ------------------
 #p CCSD(T)/cc-pVTZ
 ------------------

 -----------
 CO2_CO2_212
 -----------
 Symbolic Z-matrix:
 Charge =  0 Multiplicity = 1

                         Standard orientation:
 ---------------------------------------------------------------------
 Center     Atomic      Atomic             Coordinates (Angstroms)
 Number     Number       Type             X           Y           Z
 ---------------------------------------------------------------------
      1          8           0       -1.744500   -2.481500    0.000000
      2          6           0       -0.581500   -2.481500    0.000000
      3          8           0        0.581500   -2.481500    0.000000
      4          8           0        0.581500    1.318500    0.000000
      5          6           0        0.581500    2.481500    0.000000
      6          8           0        0.581500    3.644500    0.000000
 ---------------------------------------------------------------------

 SCF Done:  E(RHF) =  -375.413536888     A.U. after   10 cycles
 E2 =    -0.1203597740D+01 EUMP2 =    -0.37661713462879D+03
 CCSD(T)
 CCSD(T)= -0.37665505290D+03

 The electronic state is 1-A'.
 Alpha  occ. eigenvalues --  -20.65245 -20.65206 -20.64625 -20.64577 -11.46213
 Alpha  occ. eigenvalues --  -11.45589  -1.53014  -1.52392  -1.47717  -1.47094
 Alpha  occ. eigenvalues --   -0.80144  -0.79518  -0.74337  -0.73704  -0.71487
 Alpha  occ. eigenvalues --   -0.71485  -0.70875  -0.70841  -0.54472  -0.54470
 Alpha  occ. eigenvalues --   -0.53856  -0.53840
 Alpha virt. eigenvalues --    0.16492   0.18280   0.20196   0.20264   0.20883
 Alpha virt. eigenvalues --    0.21061   0.32602   0.34780   0.39126   0.39205
 Alpha virt. eigenvalues --    0.40021   0.41547   0.54525   0.54713   0.65170

 Mulliken charges:
               1
     1  O   -0.271332
     2  C    0.537789
     3  O   -0.266898
     4  O   -0.270632
     5  C    0.539369
     6  O   -0.268296
 Sum of Mulliken charges =  -0.00000

 Dipole moment (field-independent basis, Debye):
    X=              0.0393    Y=              0.0628    Z=              0.0000  Tot=              0.0741
 Quadrupole moment (field-independent basis, Debye-Ang):
   XX=            -34.5634   YY=            -34.5075   ZZ=            -29.3886
   XY=             -0.0199   XZ=              0.0000   YZ=              0.0000

 781\CCSD(T)=-376.6550529\RMSD=5.386e-09\PG=CS [SG(C2O4)]\\@
 Normal termination of Gaussian 16 at Sun Feb 11 00:14:12 2024.
