 Gaussian 16, Revision A.03,
 Gaussian 16:  ES64L-G16RevA.03 25-Dec-2016

 ------------------
 #p CCSD(T)/cc-pVTZ
 ------------------

 -----------
 CO2_CO2_126
 -----------
 Symbolic Z-matrix:
 Charge =  0 Multiplicity = 1

                         Standard orientation:
 ---------------------------------------------------------------------
 Center     Atomic      Atomic             Coordinates (Angstroms)
 Number     Number       Type             X           Y           Z
 ---------------------------------------------------------------------
      1          8           0        0.000000    0.000000    3.666000
      2          6           0        0.000000    0.000000    2.503000
      3          8           0        0.000000    0.000000    1.340000
      4          8           0        0.000000    0.000000   -1.340000
      5          6           0        0.000000    0.000000   -2.503000
      6          8           0        0.000000    0.000000   -3.666000
 ---------------------------------------------------------------------

 SCF Done:  E(RHF) =  -375.409976708     A.U. after   10 cycles
 E2 =    -0.1205469862D+01 EUMP2 =    -0.37661544656962D+03
 CCSD(T)
 CCSD(T)= -0.37665309333D+03

 The electronic state is 1-SGG.
 Alpha  occ. eigenvalues --  -20.64479 -20.64479 -20.64307 -20.64307 -11.45346
 Alpha  occ. eigenvalues --  -11.45345  -1.52285  -1.52186  -1.47000  -1.46849
 Alpha  occ. eigenvalues --   -0.80372  -0.78552  -0.74409  -0.72142  -0.70802
 Alpha  occ. eigenvalues --   -0.70802  -0.70623  -0.70623  -0.53876  -0.53876
 Alpha  occ. eigenvalues --   -0.53443  -0.53443
 Alpha virt. eigenvalues --    0.17544   0.18305   0.20659   0.20659   0.21333
 Alpha virt. eigenvalues --    0.21333   0.33267   0.37917   0.39495   0.39495
 Alpha virt. eigenvalues --    0.40234   0.40234   0.54268   0.54881   0.66171

 Mulliken charges:
               1
     1  O   -0.285163
     2  C    0.524363
     3  O   -0.239200
     4  O   -0.239200
     5  C    0.524363
     6  O   -0.285163
 Sum of Mulliken charges =   0.00000

 Dipole moment (field-independent basis, Debye):
    X=             -0.0000    Y=             -0.0000    Z=             -0.0000  Tot=              0.0000
 Quadrupole moment (field-independent basis, Debye-Ang):
   XX=            -29.4057   YY=            -29.4057   ZZ=            -40.5838
   XY=              0.0000   XZ=              0.0000   YZ=              0.0000

 56706\CCSD(T)=-376.6530933\RMSD=4.872e-09\PG=D*H [C*(O1C1O1.O1C1O1)]\\
 Normal termination of Gaussian 16 at Sat Feb 10 17:12:33 2024.
