 Gaussian 16, Revision A.03,
 Gaussian 16:  ES64L-G16RevA.03 25-Dec-2016

 ------------------
 #p CCSD(T)/cc-pVTZ
 ------------------

 ----------
 CO2_CO2_79
 ----------
 Symbolic Z-matrix:
 Charge =  0 Multiplicity = 1

                         Standard orientation:
 ---------------------------------------------------------------------
 Center     Atomic      Atomic             Coordinates (Angstroms)
 Number     Number       Type             X           Y           Z
 ---------------------------------------------------------------------
      1          8           0        1.233548   -2.835048    0.000000
      2          6           0        0.411183   -2.012683    0.000000
      3          8           0       -0.411183   -1.190317    0.000000
      4          8           0       -0.411183    0.849683   -0.000000
      5          6           0       -0.411183    2.012683   -0.000000
      6          8           0       -0.411183    3.175682   -0.000000
 ---------------------------------------------------------------------

 SCF Done:  E(RHF) =  -375.379681157     A.U. after   11 cycles
 E2 =    -0.1211188603D+01 EUMP2 =    -0.37659086976016D+03
 CCSD(T)
 CCSD(T)= -0.37662753241D+03

 The electronic state is 1-A'.
 Alpha  occ. eigenvalues --  -20.64439 -20.63903 -20.63639 -20.63235 -11.45057
 Alpha  occ. eigenvalues --  -11.44594  -1.52480  -1.51579  -1.47235  -1.46097
 Alpha  occ. eigenvalues --   -0.83990  -0.77536  -0.75329  -0.71508  -0.70989
 Alpha  occ. eigenvalues --   -0.70312  -0.69947  -0.67431  -0.54396  -0.53932
 Alpha  occ. eigenvalues --   -0.52417  -0.52056
 Alpha virt. eigenvalues --    0.16817   0.19298   0.20350   0.20836   0.21591
 Alpha virt. eigenvalues --    0.22029   0.33870   0.36405   0.38363   0.39118
 Alpha virt. eigenvalues --    0.41386   0.44265   0.53796   0.56346   0.65622

 Mulliken charges:
               1
     1  O   -0.286966
     2  C    0.525593
     3  O   -0.242483
     4  O   -0.220610
     5  C    0.520500
     6  O   -0.296034
 Sum of Mulliken charges =  -0.00000

 Dipole moment (field-independent basis, Debye):
    X=             -0.1440    Y=              0.0925    Z=             -0.0000  Tot=              0.1712
 Quadrupole moment (field-independent basis, Debye-Ang):
   XX=            -32.0604   YY=            -38.5895   ZZ=            -29.4007
   XY=              2.8327   XZ=             -0.0000   YZ=              0.0000

 =-376.5781927\CCSD=-376.569408\CCSD(T)=-376.6275324\RMSD=5.902e-09\PG=
 Normal termination of Gaussian 16 at Sat Feb 10 01:40:11 2024.
