 Gaussian 16, Revision A.03,
 Gaussian 16:  ES64L-G16RevA.03 25-Dec-2016

 ------------------
 #p CCSD(T)/cc-pVTZ
 ------------------

 -----------
 CO2_CO2_192
 -----------
 Symbolic Z-matrix:
 Charge =  0 Multiplicity = 1

                         Standard orientation:
 ---------------------------------------------------------------------
 Center     Atomic      Atomic             Coordinates (Angstroms)
 Number     Number       Type             X           Y           Z
 ---------------------------------------------------------------------
      1          8           0        0.000000    0.000000    4.106000
      2          6           0        0.000000    0.000000    2.943000
      3          8           0        0.000000    0.000000    1.780000
      4          8           0        0.000000    0.000000   -1.780000
      5          6           0        0.000000    0.000000   -2.943000
      6          8           0        0.000000    0.000000   -4.106000
 ---------------------------------------------------------------------

 SCF Done:  E(RHF) =  -375.412639890     A.U. after   10 cycles
 E2 =    -0.1203932922D+01 EUMP2 =    -0.37661657281260D+03
 CCSD(T)
 CCSD(T)= -0.37665441031D+03

 The electronic state is 1-SGG.
 Alpha  occ. eigenvalues --  -20.64693 -20.64693 -20.64646 -20.64646 -11.45632
 Alpha  occ. eigenvalues --  -11.45632  -1.52469  -1.52461  -1.47167  -1.47155
 Alpha  occ. eigenvalues --   -0.79678  -0.79413  -0.73883  -0.73545  -0.70954
 Alpha  occ. eigenvalues --   -0.70954  -0.70932  -0.70932  -0.53934  -0.53934
 Alpha  occ. eigenvalues --   -0.53876  -0.53876
 Alpha virt. eigenvalues --    0.17399   0.17997   0.20741   0.20741   0.20862
 Alpha virt. eigenvalues --    0.20862   0.32138   0.36614   0.39706   0.39706
 Alpha virt. eigenvalues --    0.39828   0.39828   0.54879   0.55198   0.58863

 Mulliken charges:
               1
     1  O   -0.273062
     2  C    0.534169
     3  O   -0.261107
     4  O   -0.261107
     5  C    0.534169
     6  O   -0.273062
 Sum of Mulliken charges =   0.00000

 Dipole moment (field-independent basis, Debye):
    X=             -0.0000    Y=              0.0000    Z=             -0.0000  Tot=              0.0000
 Quadrupole moment (field-independent basis, Debye-Ang):
   XX=            -29.3944   YY=            -29.3944   ZZ=            -40.1848
   XY=              0.0000   XZ=              0.0000   YZ=             -0.0000

 1936\CCSD(T)=-376.6544103\RMSD=4.638e-09\PG=D*H [C*(O1C1O1.O1C1O1)]\\@
 Normal termination of Gaussian 16 at Sat Feb 10 22:31:57 2024.
