 Gaussian 16, Revision A.03,
 Gaussian 16:  ES64L-G16RevA.03 25-Dec-2016

 ------------------
 #p CCSD(T)/cc-pVTZ
 ------------------

 -----------
 CO2_CO2_107
 -----------
 Symbolic Z-matrix:
 Charge =  0 Multiplicity = 1

                         Standard orientation:
 ---------------------------------------------------------------------
 Center     Atomic      Atomic             Coordinates (Angstroms)
 Number     Number       Type             X           Y           Z
 ---------------------------------------------------------------------
      1          8           0       -1.744500   -1.781500    0.000000
      2          6           0       -0.581500   -1.781500    0.000000
      3          8           0        0.581500   -1.781500    0.000000
      4          8           0        0.581500    0.618500    0.000000
      5          6           0        0.581500    1.781500    0.000000
      6          8           0        0.581500    2.944500    0.000000
 ---------------------------------------------------------------------

 SCF Done:  E(RHF) =  -375.403464685     A.U. after   13 cycles
 E2 =    -0.1207478465D+01 EUMP2 =    -0.37661094314931D+03
 CCSD(T)
 CCSD(T)= -0.37664852058D+03

 The electronic state is 1-A'.
 Alpha  occ. eigenvalues --  -20.65489 -20.65281 -20.64091 -20.63459 -11.46427
 Alpha  occ. eigenvalues --  -11.44865  -1.53376  -1.51734  -1.48054  -1.46389
 Alpha  occ. eigenvalues --   -0.81276  -0.78896  -0.75598  -0.73035  -0.71849
 Alpha  occ. eigenvalues --   -0.71732  -0.70185  -0.68945  -0.54881  -0.54796
 Alpha  occ. eigenvalues --   -0.53089  -0.52880
 Alpha virt. eigenvalues --    0.16085   0.19371   0.19871   0.19945   0.21406
 Alpha virt. eigenvalues --    0.22848   0.34247   0.35420   0.37373   0.39556
 Alpha virt. eigenvalues --    0.42187   0.47212   0.53149   0.57857   0.66722

 Mulliken charges:
               1
     1  O   -0.280362
     2  C    0.537395
     3  O   -0.263659
     4  O   -0.247791
     5  C    0.534854
     6  O   -0.280437
 Sum of Mulliken charges =  -0.00000

 Dipole moment (field-independent basis, Debye):
    X=              0.1847    Y=              0.2110    Z=              0.0000  Tot=              0.2804
 Quadrupole moment (field-independent basis, Debye-Ang):
   XX=            -34.6221   YY=            -34.8404   ZZ=            -29.3942
   XY=             -0.0724   XZ=              0.0000   YZ=              0.0000

 653\CCSD(T)=-376.6485206\RMSD=2.472e-09\PG=CS [SG(C2O4)]\\@
 Normal termination of Gaussian 16 at Sat Feb 10 15:39:31 2024.
