 Gaussian 16, Revision A.03,
 Gaussian 16:  ES64L-G16RevA.03 25-Dec-2016

 ------------------
 #p CCSD(T)/cc-pVTZ
 ------------------

 -----------
 CO2_CO2_253
 -----------
 Symbolic Z-matrix:
 Charge =  0 Multiplicity = 1

                         Standard orientation:
 ---------------------------------------------------------------------
 Center     Atomic      Atomic             Coordinates (Angstroms)
 Number     Number       Type             X           Y           Z
 ---------------------------------------------------------------------
      1          8           0        1.233548   -3.995048    0.000000
      2          6           0        0.411183   -3.172683    0.000000
      3          8           0       -0.411183   -2.350318    0.000000
      4          8           0       -0.411183    2.009683   -0.000000
      5          6           0       -0.411183    3.172683   -0.000000
      6          8           0       -0.411183    4.335683   -0.000000
 ---------------------------------------------------------------------

 SCF Done:  E(RHF) =  -375.412975289     A.U. after   10 cycles
 E2 =    -0.1203497125D+01 EUMP2 =    -0.37661647241372D+03
 CCSD(T)
 CCSD(T)= -0.37665437298D+03

 The electronic state is 1-A'.
 Alpha  occ. eigenvalues --  -20.64887 -20.64870 -20.64777 -20.64748 -11.45852
 Alpha  occ. eigenvalues --  -11.45736  -1.52672  -1.52555  -1.47371  -1.47254
 Alpha  occ. eigenvalues --   -0.79773  -0.79654  -0.73957  -0.73835  -0.71148
 Alpha  occ. eigenvalues --   -0.71148  -0.71032  -0.71028  -0.54119  -0.54119
 Alpha  occ. eigenvalues --   -0.54003  -0.53999
 Alpha virt. eigenvalues --    0.17403   0.17787   0.20605   0.20606   0.20719
 Alpha virt. eigenvalues --    0.20726   0.32905   0.35563   0.39590   0.39597
 Alpha virt. eigenvalues --    0.39714   0.39766   0.54812   0.54977   0.64604

 Mulliken charges:
               1
     1  O   -0.270266
     2  C    0.535540
     3  O   -0.265256
     4  O   -0.266159
     5  C    0.535555
     6  O   -0.269414
 Sum of Mulliken charges =  -0.00000

 Dipole moment (field-independent basis, Debye):
    X=             -0.0190    Y=              0.0064    Z=             -0.0000  Tot=              0.0200
 Quadrupole moment (field-independent basis, Debye-Ang):
   XX=            -31.9709   YY=            -37.3447   ZZ=            -29.3910
   XY=              2.6093   XZ=             -0.0000   YZ=              0.0000

 =-376.6053974\CCSD=-376.5972168\CCSD(T)=-376.654373\RMSD=8.183e-09\PG=
 Normal termination of Gaussian 16 at Mon Feb 12 20:15:10 2024.
