 Gaussian 16, Revision A.03,
 Gaussian 16:  ES64L-G16RevA.03 25-Dec-2016

 ------------------
 #p CCSD(T)/cc-pVTZ
 ------------------

 -----------
 CO2_CO2_205
 -----------
 Symbolic Z-matrix:
 Charge =  0 Multiplicity = 1

                         Standard orientation:
 ---------------------------------------------------------------------
 Center     Atomic      Atomic             Coordinates (Angstroms)
 Number     Number       Type             X           Y           Z
 ---------------------------------------------------------------------
      1          8           0        1.233548   -3.675048    0.000000
      2          6           0        0.411183   -2.852683    0.000000
      3          8           0       -0.411183   -2.030317    0.000000
      4          8           0       -0.411183    1.689682    0.000000
      5          6           0       -0.411183    2.852682    0.000000
      6          8           0       -0.411183    4.015683    0.000000
 ---------------------------------------------------------------------

 SCF Done:  E(RHF) =  -375.412860457     A.U. after   11 cycles
 E2 =    -0.1203782391D+01 EUMP2 =    -0.37661664284836D+03
 CCSD(T)
 CCSD(T)= -0.37665450403D+03

 The electronic state is 1-A'.
 Alpha  occ. eigenvalues --  -20.64842 -20.64816 -20.64703 -20.64660 -11.45797
 Alpha  occ. eigenvalues --  -11.45649  -1.52623  -1.52474  -1.47321  -1.47171
 Alpha  occ. eigenvalues --   -0.79746  -0.79536  -0.73940  -0.73698  -0.71100
 Alpha  occ. eigenvalues --   -0.71100  -0.70952  -0.70943  -0.54070  -0.54069
 Alpha  occ. eigenvalues --   -0.53918  -0.53908
 Alpha virt. eigenvalues --    0.17213   0.18000   0.20644   0.20647   0.20796
 Alpha virt. eigenvalues --    0.20802   0.31885   0.36486   0.39568   0.39589
 Alpha virt. eigenvalues --    0.39813   0.40064   0.54884   0.54992   0.61703

 Mulliken charges:
               1
     1  O   -0.271786
     2  C    0.534798
     3  O   -0.262905
     4  O   -0.264310
     5  C    0.535115
     6  O   -0.270911
 Sum of Mulliken charges =  -0.00000

 Dipole moment (field-independent basis, Debye):
    X=             -0.0288    Y=              0.0071    Z=              0.0000  Tot=              0.0297
 Quadrupole moment (field-independent basis, Debye-Ang):
   XX=            -31.9749   YY=            -37.4303   ZZ=            -29.3926
   XY=              2.6248   XZ=             -0.0000   YZ=              0.0000

 Q=-376.6055117\CCSD=-376.5973073\CCSD(T)=-376.654504\RMSD=2.745e-09\PG
 Normal termination of Gaussian 16 at Sat Feb 10 23:37:49 2024.
