 Gaussian 16, Revision A.03,
 Gaussian 16:  ES64L-G16RevA.03 25-Dec-2016

 ------------------
 #p CCSD(T)/cc-pVTZ
 ------------------

 ----------
 CO2_CO2_73
 ----------
 Symbolic Z-matrix:
 Charge =  0 Multiplicity = 1

                         Standard orientation:
 ---------------------------------------------------------------------
 Center     Atomic      Atomic             Coordinates (Angstroms)
 Number     Number       Type             X           Y           Z
 ---------------------------------------------------------------------
      1          8           0        1.233548   -2.795048    0.000000
      2          6           0        0.411183   -1.972683    0.000000
      3          8           0       -0.411183   -1.150317   -0.000000
      4          8           0       -0.411183    0.809682   -0.000000
      5          6           0       -0.411183    1.972682   -0.000000
      6          8           0       -0.411183    3.135683   -0.000000
 ---------------------------------------------------------------------

 SCF Done:  E(RHF) =  -375.368022146     A.U. after   11 cycles
 E2 =    -0.1212839310D+01 EUMP2 =    -0.37658086145535D+03
 CCSD(T)
 CCSD(T)= -0.37661719663D+03

 The electronic state is 1-A'.
 Alpha  occ. eigenvalues --  -20.64395 -20.63783 -20.63417 -20.63009 -11.44937
 Alpha  occ. eigenvalues --  -11.44422  -1.52560  -1.51450  -1.47300  -1.45914
 Alpha  occ. eigenvalues --   -0.85087  -0.77359  -0.75401  -0.71546  -0.71045
 Alpha  occ. eigenvalues --   -0.70140  -0.69794  -0.66448  -0.54538  -0.53923
 Alpha  occ. eigenvalues --   -0.52168  -0.51615
 Alpha virt. eigenvalues --    0.16770   0.19419   0.20265   0.20815   0.21723
 Alpha virt. eigenvalues --    0.22209   0.33965   0.36358   0.38252   0.39107
 Alpha virt. eigenvalues --    0.41559   0.44590   0.53799   0.56578   0.66025

 Mulliken charges:
               1
     1  O   -0.288848
     2  C    0.523830
     3  O   -0.239776
     4  O   -0.218675
     5  C    0.521636
     6  O   -0.298167
 Sum of Mulliken charges =  -0.00000

 Dipole moment (field-independent basis, Debye):
    X=             -0.1605    Y=              0.1124    Z=             -0.0000  Tot=              0.1960
 Quadrupole moment (field-independent basis, Debye-Ang):
   XX=            -32.0714   YY=            -38.7554   ZZ=            -29.3940
   XY=              2.8648   XZ=             -0.0000   YZ=              0.0000

 376.5678178\CCSD=-376.5588861\CCSD(T)=-376.6171966\RMSD=8.936e-09\PG=C
 Normal termination of Gaussian 16 at Sat Feb 10 01:10:50 2024.
