 Gaussian 16, Revision A.03,
 Gaussian 16:  ES64L-G16RevA.03 25-Dec-2016

 ------------------
 #p CCSD(T)/cc-pVTZ
 ------------------

 ----------
 CO2_CO2_86
 ----------
 Symbolic Z-matrix:
 Charge =  0 Multiplicity = 1

                         Standard orientation:
 ---------------------------------------------------------------------
 Center     Atomic      Atomic             Coordinates (Angstroms)
 Number     Number       Type             X           Y           Z
 ---------------------------------------------------------------------
      1          8           0       -1.744500   -1.641500    0.000000
      2          6           0       -0.581500   -1.641500    0.000000
      3          8           0        0.581500   -1.641500    0.000000
      4          8           0        0.581500    0.478500    0.000000
      5          6           0        0.581500    1.641500    0.000000
      6          8           0        0.581500    2.804500    0.000000
 ---------------------------------------------------------------------

 SCF Done:  E(RHF) =  -375.383252284     A.U. after   13 cycles
 E2 =    -0.1211053445D+01 EUMP2 =    -0.37659430572963D+03
 CCSD(T)
 CCSD(T)= -0.37663139595D+03

 The electronic state is 1-A'.
 Alpha  occ. eigenvalues --  -20.65548 -20.64954 -20.63889 -20.62704 -11.46349
 Alpha  occ. eigenvalues --  -11.44509  -1.53620  -1.51505  -1.48189  -1.46036
 Alpha  occ. eigenvalues --   -0.82703  -0.78707  -0.76305  -0.73007  -0.72056
 Alpha  occ. eigenvalues --   -0.71528  -0.69848  -0.67341  -0.55141  -0.54847
 Alpha  occ. eigenvalues --   -0.52615  -0.51930
 Alpha virt. eigenvalues --    0.15918   0.18981   0.19880   0.20470   0.21559
 Alpha virt. eigenvalues --    0.23449   0.34056   0.35808   0.36982   0.39910
 Alpha virt. eigenvalues --    0.42892   0.47564   0.53055   0.58224   0.66267

 Mulliken charges:
               1
     1  O   -0.284710
     2  C    0.534380
     3  O   -0.260485
     4  O   -0.237333
     5  C    0.531143
     6  O   -0.282995
 Sum of Mulliken charges =  -0.00000

 Dipole moment (field-independent basis, Debye):
    X=              0.2597    Y=              0.2718    Z=              0.0000  Tot=              0.3759
 Quadrupole moment (field-independent basis, Debye-Ang):
   XX=            -34.6325   YY=            -35.1197   ZZ=            -29.3844
   XY=             -0.1065   XZ=              0.0000   YZ=              0.0000

 692\CCSD(T)=-376.631396\RMSD=4.349e-09\PG=CS [SG(C2O4)]\\@
 Normal termination of Gaussian 16 at Sat Feb 10 02:15:49 2024.
