 Gaussian 16, Revision A.03,
 Gaussian 16:  ES64L-G16RevA.03 25-Dec-2016

 ------------------
 #p CCSD(T)/cc-pVTZ
 ------------------

 -----------
 CO2_CO2_163
 -----------
 Symbolic Z-matrix:
 Charge =  0 Multiplicity = 1

                         Standard orientation:
 ---------------------------------------------------------------------
 Center     Atomic      Atomic             Coordinates (Angstroms)
 Number     Number       Type             X           Y           Z
 ---------------------------------------------------------------------
      1          8           0        1.233548   -3.395048    0.000000
      2          6           0        0.411183   -2.572683    0.000000
      3          8           0       -0.411183   -1.750317    0.000000
      4          8           0       -0.411183    1.409682   -0.000000
      5          6           0       -0.411183    2.572683   -0.000000
      6          8           0       -0.411183    3.735683   -0.000000
 ---------------------------------------------------------------------

 SCF Done:  E(RHF) =  -375.412349488     A.U. after   11 cycles
 E2 =    -0.1204370535D+01 EUMP2 =    -0.37661672002288D+03
 CCSD(T)
 CCSD(T)= -0.37665451905D+03

 The electronic state is 1-A'.
 Alpha  occ. eigenvalues --  -20.64775 -20.64722 -20.64592 -20.64515 -11.45710
 Alpha  occ. eigenvalues --  -11.45516  -1.52552  -1.52352  -1.47249  -1.47045
 Alpha  occ. eigenvalues --   -0.79836  -0.79265  -0.74046  -0.73358  -0.71033
 Alpha  occ. eigenvalues --   -0.71032  -0.70830  -0.70803  -0.54015  -0.54005
 Alpha  occ. eigenvalues --   -0.53771  -0.53759
 Alpha virt. eigenvalues --    0.17167   0.18242   0.20675   0.20699   0.20908
 Alpha virt. eigenvalues --    0.20935   0.32328   0.36778   0.39466   0.39480
 Alpha virt. eigenvalues --    0.40033   0.40779   0.54819   0.55154   0.61334

 Mulliken charges:
               1
     1  O   -0.275016
     2  C    0.532600
     3  O   -0.257518
     4  O   -0.257896
     5  C    0.533356
     6  O   -0.275526
 Sum of Mulliken charges =  -0.00000

 Dipole moment (field-independent basis, Debye):
    X=             -0.0452    Y=              0.0112    Z=             -0.0000  Tot=              0.0466
 Quadrupole moment (field-independent basis, Debye-Ang):
   XX=            -31.9827   YY=            -37.5782   ZZ=            -29.3959
   XY=              2.6515   XZ=              0.0000   YZ=              0.0000

 -376.6054845\CCSD=-376.5972362\CCSD(T)=-376.6545191\RMSD=3.212e-09\PG=
 Normal termination of Gaussian 16 at Sat Feb 10 20:12:46 2024.
