 Gaussian 16, Revision A.03,
 Gaussian 16:  ES64L-G16RevA.03 25-Dec-2016

 ------------------
 #p CCSD(T)/cc-pVTZ
 ------------------

 ----------
 CO2_CO2_62
 ----------
 Symbolic Z-matrix:
 Charge =  0 Multiplicity = 1

                         Standard orientation:
 ---------------------------------------------------------------------
 Center     Atomic      Atomic             Coordinates (Angstroms)
 Number     Number       Type             X           Y           Z
 ---------------------------------------------------------------------
      1          8           0       -1.744500   -1.481500    0.000000
      2          6           0       -0.581500   -1.481500    0.000000
      3          8           0        0.581500   -1.481500    0.000000
      4          8           0        0.581500    0.318500    0.000000
      5          6           0        0.581500    1.481500    0.000000
      6          8           0        0.581500    2.644500    0.000000
 ---------------------------------------------------------------------

 SCF Done:  E(RHF) =  -375.313457499     A.U. after   13 cycles
 E2 =    -0.1220335366D+01 EUMP2 =    -0.37653379286527D+03
 CCSD(T)
 CCSD(T)= -0.37656940206D+03

 The electronic state is 1-A'.
 Alpha  occ. eigenvalues --  -20.65538 -20.64089 -20.63625 -20.61416 -11.45951
 Alpha  occ. eigenvalues --  -11.43958  -1.54656  -1.51333  -1.48391  -1.45355
 Alpha  occ. eigenvalues --   -0.86376  -0.78810  -0.76920  -0.73510  -0.72655
 Alpha  occ. eigenvalues --   -0.70738  -0.69305  -0.64660  -0.55802  -0.54736
 Alpha  occ. eigenvalues --   -0.51663  -0.48712
 Alpha virt. eigenvalues --    0.15763   0.18318   0.19769   0.21416   0.21728
 Alpha virt. eigenvalues --    0.24145   0.33644   0.36578   0.36663   0.40474
 Alpha virt. eigenvalues --    0.43575   0.47277   0.53717   0.58504   0.65598

 Mulliken charges:
               1
     1  O   -0.288551
     2  C    0.518476
     3  O   -0.245033
     4  O   -0.229459
     5  C    0.530405
     6  O   -0.285838
 Sum of Mulliken charges =  -0.00000

 Dipole moment (field-independent basis, Debye):
    X=              0.3899    Y=              0.3460    Z=              0.0000  Tot=              0.5213
 Quadrupole moment (field-independent basis, Debye-Ang):
   XX=            -34.6087   YY=            -35.6782   ZZ=            -29.3382
   XY=             -0.1931   XZ=              0.0000   YZ=              0.0000

 4\CCSD(T)=-376.5694021\RMSD=9.123e-09\PG=CS [SG(C2O4)]\\@
 Normal termination of Gaussian 16 at Sat Feb 10 00:15:14 2024.
