 Gaussian 16, Revision A.03,
 Gaussian 16:  ES64L-G16RevA.03 25-Dec-2016

 ------------------
 #p CCSD(T)/cc-pVTZ
 ------------------

 -----------
 CO2_CO2_272
 -----------
 Symbolic Z-matrix:
 Charge =  0 Multiplicity = 1

                         Standard orientation:
 ---------------------------------------------------------------------
 Center     Atomic      Atomic             Coordinates (Angstroms)
 Number     Number       Type             X           Y           Z
 ---------------------------------------------------------------------
      1          8           0       -1.744500   -2.881500    0.000000
      2          6           0       -0.581500   -2.881500    0.000000
      3          8           0        0.581500   -2.881500    0.000000
      4          8           0        0.581500    1.718500    0.000000
      5          6           0        0.581500    2.881500    0.000000
      6          8           0        0.581500    4.044500    0.000000
 ---------------------------------------------------------------------

 SCF Done:  E(RHF) =  -375.413340795     A.U. after   10 cycles
 E2 =    -0.1203347032D+01 EUMP2 =    -0.37661668782607D+03
 CCSD(T)
 CCSD(T)= -0.37665462445D+03

 The electronic state is 1-A'.
 Alpha  occ. eigenvalues --  -20.65148 -20.65126 -20.64742 -20.64721 -11.46122
 Alpha  occ. eigenvalues --  -11.45716  -1.52928  -1.52523  -1.47630  -1.47225
 Alpha  occ. eigenvalues --   -0.80049  -0.79643  -0.74236  -0.73829  -0.71402
 Alpha  occ. eigenvalues --   -0.71400  -0.71002  -0.70990  -0.54383  -0.54382
 Alpha  occ. eigenvalues --   -0.53981  -0.53975
 Alpha virt. eigenvalues --    0.17029   0.17905   0.20349   0.20359   0.20752
 Alpha virt. eigenvalues --    0.20768   0.33144   0.34753   0.39359   0.39371
 Alpha virt. eigenvalues --    0.39766   0.40219   0.54517   0.54940   0.65791

 Mulliken charges:
               1
     1  O   -0.270225
     2  C    0.537875
     3  O   -0.267724
     4  O   -0.270774
     5  C    0.538095
     6  O   -0.267247
 Sum of Mulliken charges =  -0.00000

 Dipole moment (field-independent basis, Debye):
    X=              0.0201    Y=              0.0358    Z=              0.0000  Tot=              0.0411
 Quadrupole moment (field-independent basis, Debye-Ang):
   XX=            -34.5533   YY=            -34.5171   ZZ=            -29.3885
   XY=             -0.0158   XZ=              0.0000   YZ=              0.0000

 87\CCSD(T)=-376.6546244\RMSD=4.514e-09\PG=CS [SG(C2O4)]\\@
 Normal termination of Gaussian 16 at Mon Feb 12 21:25:05 2024.
