 Gaussian 16, Revision A.03,
 Gaussian 16:  ES64L-G16RevA.03 25-Dec-2016

 ------------------
 #p CCSD(T)/cc-pVTZ
 ------------------

 -----------
 CO2_CO2_164
 -----------
 Symbolic Z-matrix:
 Charge =  0 Multiplicity = 1

                         Standard orientation:
 ---------------------------------------------------------------------
 Center     Atomic      Atomic             Coordinates (Angstroms)
 Number     Number       Type             X           Y           Z
 ---------------------------------------------------------------------
      1          8           0       -1.744500   -2.161500    0.000000
      2          6           0       -0.581500   -2.161500    0.000000
      3          8           0        0.581500   -2.161500    0.000000
      4          8           0        0.581500    0.998500    0.000000
      5          6           0        0.581500    2.161500    0.000000
      6          8           0        0.581500    3.324500    0.000000
 ---------------------------------------------------------------------

 SCF Done:  E(RHF) =  -375.413308140     A.U. after   10 cycles
 E2 =    -0.1204275244D+01 EUMP2 =    -0.37661758338392D+03
 CCSD(T)
 CCSD(T)= -0.37665546389D+03

 The electronic state is 1-A'.
 Alpha  occ. eigenvalues --  -20.65348 -20.65308 -20.64461 -20.64334 -11.46321
 Alpha  occ. eigenvalues --  -11.45394  -1.53124  -1.52197  -1.47828  -1.46898
 Alpha  occ. eigenvalues --   -0.80304  -0.79334  -0.74544  -0.73506  -0.71597
 Alpha  occ. eigenvalues --   -0.71596  -0.70685  -0.70545  -0.54588  -0.54586
 Alpha  occ. eigenvalues --   -0.53664  -0.53633
 Alpha virt. eigenvalues --    0.16408   0.18773   0.19958   0.20137   0.21064
 Alpha virt. eigenvalues --    0.21637   0.33885   0.34541   0.38521   0.39111
 Alpha virt. eigenvalues --    0.40631   0.43722   0.54330   0.55817   0.63735

 Mulliken charges:
               1
     1  O   -0.272818
     2  C    0.536137
     3  O   -0.264818
     4  O   -0.265783
     5  C    0.539348
     6  O   -0.272066
 Sum of Mulliken charges =  -0.00000

 Dipole moment (field-independent basis, Debye):
    X=              0.0761    Y=              0.1043    Z=              0.0000  Tot=              0.1291
 Quadrupole moment (field-independent basis, Debye-Ang):
   XX=            -34.5789   YY=            -34.5458   ZZ=            -29.3896
   XY=             -0.0326   XZ=              0.0000   YZ=              0.0000

 1824\CCSD(T)=-376.6554639\RMSD=8.982e-09\PG=CS [SG(C2O4)]\\@
 Normal termination of Gaussian 16 at Sat Feb 10 20:18:33 2024.
