 Gaussian 16, Revision A.03,
 Gaussian 16:  ES64L-G16RevA.03 25-Dec-2016

 ------------------
 #p CCSD(T)/cc-pVTZ
 ------------------

 -----------
 CO2_CO2_135
 -----------
 Symbolic Z-matrix:
 Charge =  0 Multiplicity = 1

                         Standard orientation:
 ---------------------------------------------------------------------
 Center     Atomic      Atomic             Coordinates (Angstroms)
 Number     Number       Type             X           Y           Z
 ---------------------------------------------------------------------
      1          8           0        0.000000    0.000000    3.726000
      2          6           0        0.000000    0.000000    2.563000
      3          8           0        0.000000    0.000000    1.400000
      4          8           0        0.000000    0.000000   -1.400000
      5          6           0        0.000000    0.000000   -2.563000
      6          8           0        0.000000    0.000000   -3.726000
 ---------------------------------------------------------------------

 SCF Done:  E(RHF) =  -375.410936955     A.U. after   10 cycles
 E2 =    -0.1205107330D+01 EUMP2 =    -0.37661604428428D+03
 CCSD(T)
 CCSD(T)= -0.37665374177D+03

 The electronic state is 1-SGG.
 Alpha  occ. eigenvalues --  -20.64521 -20.64521 -20.64386 -20.64386 -11.45405
 Alpha  occ. eigenvalues --  -11.45405  -1.52314  -1.52244  -1.47024  -1.46916
 Alpha  occ. eigenvalues --   -0.80142  -0.78737  -0.74274  -0.72513  -0.70824
 Alpha  occ. eigenvalues --   -0.70824  -0.70690  -0.70690  -0.53871  -0.53871
 Alpha  occ. eigenvalues --   -0.53542  -0.53542
 Alpha virt. eigenvalues --    0.17559   0.18233   0.20687   0.20687   0.21233
 Alpha virt. eigenvalues --    0.21233   0.33199   0.37658   0.39558   0.39558
 Alpha virt. eigenvalues --    0.40149   0.40149   0.54468   0.54798   0.63838

 Mulliken charges:
               1
     1  O   -0.282957
     2  C    0.526778
     3  O   -0.243821
     4  O   -0.243821
     5  C    0.526778
     6  O   -0.282957
 Sum of Mulliken charges =  -0.00000

 Dipole moment (field-independent basis, Debye):
    X=             -0.0000    Y=             -0.0000    Z=             -0.0000  Tot=              0.0000
 Quadrupole moment (field-independent basis, Debye-Ang):
   XX=            -29.4032   YY=            -29.4032   ZZ=            -40.5034
   XY=              0.0000   XZ=              0.0000   YZ=              0.0000

 656\CCSD(T)=-376.6537418\RMSD=4.714e-09\PG=D*H [C*(O1C1O1.O1C1O1)]\\@
 Normal termination of Gaussian 16 at Sat Feb 10 17:55:15 2024.
