 Gaussian 16, Revision A.03,
 Gaussian 16:  ES64L-G16RevA.03 25-Dec-2016

 ------------------
 #p CCSD(T)/cc-pVTZ
 ------------------

 -----------
 CO2_CO2_297
 -----------
 Symbolic Z-matrix:
 Charge =  0 Multiplicity = 1

                         Standard orientation:
 ---------------------------------------------------------------------
 Center     Atomic      Atomic             Coordinates (Angstroms)
 Number     Number       Type             X           Y           Z
 ---------------------------------------------------------------------
      1          8           0        0.000000    0.000000    4.806000
      2          6           0        0.000000    0.000000    3.643000
      3          8           0        0.000000    0.000000    2.480000
      4          8           0        0.000000    0.000000   -2.480000
      5          6           0        0.000000    0.000000   -3.643000
      6          8           0        0.000000    0.000000   -4.806000
 ---------------------------------------------------------------------

 SCF Done:  E(RHF) =  -375.412960655     A.U. after   10 cycles
 E2 =    -0.1203415637D+01 EUMP2 =    -0.37661637629196D+03
 CCSD(T)
 CCSD(T)= -0.37665428799D+03

 The electronic state is 1-SGG.
 Alpha  occ. eigenvalues --  -20.64835 -20.64835 -20.64813 -20.64813 -11.45798
 Alpha  occ. eigenvalues --  -11.45798  -1.52618  -1.52618  -1.47317  -1.47317
 Alpha  occ. eigenvalues --   -0.79721  -0.79713  -0.73906  -0.73895  -0.71093
 Alpha  occ. eigenvalues --   -0.71093  -0.71093  -0.71093  -0.54065  -0.54065
 Alpha  occ. eigenvalues --   -0.54064  -0.54064
 Alpha virt. eigenvalues --    0.17559   0.17661   0.20660   0.20660   0.20661
 Alpha virt. eigenvalues --    0.20661   0.33919   0.34690   0.39654   0.39654
 Alpha virt. eigenvalues --    0.39658   0.39658   0.54878   0.54924   0.65540

 Mulliken charges:
               1
     1  O   -0.269648
     2  C    0.535510
     3  O   -0.265862
     4  O   -0.265862
     5  C    0.535510
     6  O   -0.269648
 Sum of Mulliken charges =  -0.00000

 Dipole moment (field-independent basis, Debye):
    X=             -0.0000    Y=              0.0000    Z=             -0.0000  Tot=              0.0000
 Quadrupole moment (field-independent basis, Debye-Ang):
   XX=            -29.3905   YY=            -29.3905   ZZ=            -39.9529
   XY=              0.0000   XZ=              0.0000   YZ=             -0.0000

 71433\CCSD(T)=-376.654288\RMSD=4.695e-09\PG=D*H [C*(O1C1O1.O1C1O1)]\\@
 Normal termination of Gaussian 16 at Mon Feb 12 22:55:06 2024.
