 Gaussian 16, Revision A.03,
 Gaussian 16:  ES64L-G16RevA.03 25-Dec-2016

 ------------------
 #p CCSD(T)/cc-pVTZ
 ------------------

 -----------
 CO2_CO2_299
 -----------
 Symbolic Z-matrix:
 Charge =  0 Multiplicity = 1

                         Standard orientation:
 ---------------------------------------------------------------------
 Center     Atomic      Atomic             Coordinates (Angstroms)
 Number     Number       Type             X           Y           Z
 ---------------------------------------------------------------------
      1          8           0       -1.744500   -3.061500    0.000000
      2          6           0       -0.581500   -3.061500    0.000000
      3          8           0        0.581500   -3.061500    0.000000
      4          8           0        0.581500    1.898500    0.000000
      5          6           0        0.581500    3.061500    0.000000
      6          8           0        0.581500    4.224500    0.000000
 ---------------------------------------------------------------------

 SCF Done:  E(RHF) =  -375.413285658     A.U. after   10 cycles
 E2 =    -0.1203310162D+01 EUMP2 =    -0.37661659581921D+03
 CCSD(T)
 CCSD(T)= -0.37665453532D+03

 The electronic state is 1-A'.
 Alpha  occ. eigenvalues --  -20.65120 -20.65102 -20.64779 -20.64763 -11.46095
 Alpha  occ. eigenvalues --  -11.45755  -1.52902  -1.52563  -1.47604  -1.47265
 Alpha  occ. eigenvalues --   -0.80021  -0.79680  -0.74208  -0.73867  -0.71376
 Alpha  occ. eigenvalues --   -0.71375  -0.71041  -0.71032  -0.54356  -0.54355
 Alpha  occ. eigenvalues --   -0.54019  -0.54014
 Alpha virt. eigenvalues --    0.17225   0.17779   0.20384   0.20385   0.20714
 Alpha virt. eigenvalues --    0.20727   0.33568   0.34600   0.39399   0.39403
 Alpha virt. eigenvalues --    0.39722   0.39930   0.54584   0.54967   0.65792

 Mulliken charges:
               1
     1  O   -0.269802
     2  C    0.537648
     3  O   -0.267869
     4  O   -0.270333
     5  C    0.537720
     6  O   -0.267365
 Sum of Mulliken charges =  -0.00000

 Dipole moment (field-independent basis, Debye):
    X=              0.0151    Y=              0.0283    Z=              0.0000  Tot=              0.0321
 Quadrupole moment (field-independent basis, Debye-Ang):
   XX=            -34.5499   YY=            -34.5213   ZZ=            -29.3885
   XY=             -0.0139   XZ=              0.0000   YZ=              0.0000

 4034\CCSD(T)=-376.6545353\RMSD=4.507e-09\PG=CS [SG(C2O4)]\\@
 Normal termination of Gaussian 16 at Mon Feb 12 23:05:43 2024.
