 Gaussian 16, Revision A.03,
 Gaussian 16:  ES64L-G16RevA.03 25-Dec-2016

 ------------------
 #p CCSD(T)/cc-pVTZ
 ------------------

 -----------
 CO2_CO2_134
 -----------
 Symbolic Z-matrix:
 Charge =  0 Multiplicity = 1

                         Standard orientation:
 ---------------------------------------------------------------------
 Center     Atomic      Atomic             Coordinates (Angstroms)
 Number     Number       Type             X           Y           Z
 ---------------------------------------------------------------------
      1          8           0       -1.744500   -1.961500    0.000000
      2          6           0       -0.581500   -1.961500    0.000000
      3          8           0        0.581500   -1.961500    0.000000
      4          8           0        0.581500    0.798500    0.000000
      5          6           0        0.581500    1.961500    0.000000
      6          8           0        0.581500    3.124500    0.000000
 ---------------------------------------------------------------------

 SCF Done:  E(RHF) =  -375.411393407     A.U. after   13 cycles
 E2 =    -0.1205340308D+01 EUMP2 =    -0.37661673371447D+03
 CCSD(T)
 CCSD(T)= -0.37665453798D+03

 The electronic state is 1-A'.
 Alpha  occ. eigenvalues --  -20.65397 -20.65382 -20.64297 -20.64014 -11.46396
 Alpha  occ. eigenvalues --  -11.45177  -1.53228  -1.51993  -1.47929  -1.46686
 Alpha  occ. eigenvalues --   -0.80574  -0.79139  -0.74913  -0.73283  -0.71701
 Alpha  occ. eigenvalues --   -0.71691  -0.70478  -0.70034  -0.54704  -0.54689
 Alpha  occ. eigenvalues --   -0.53441  -0.53377
 Alpha virt. eigenvalues --    0.16300   0.19266   0.19719   0.20038   0.21226
 Alpha virt. eigenvalues --    0.22191   0.34402   0.34880   0.37937   0.39249
 Alpha virt. eigenvalues --    0.41336   0.45754   0.53836   0.57018   0.65910

 Mulliken charges:
               1
     1  O   -0.275653
     2  C    0.535932
     3  O   -0.263690
     4  O   -0.258635
     5  C    0.538098
     6  O   -0.276052
 Sum of Mulliken charges =  -0.00000

 Dipole moment (field-independent basis, Debye):
    X=              0.1207    Y=              0.1496    Z=              0.0000  Tot=              0.1922
 Quadrupole moment (field-independent basis, Debye-Ang):
   XX=            -34.5987   YY=            -34.6434   ZZ=            -29.3927
   XY=             -0.0493   XZ=              0.0000   YZ=              0.0000

 0904\CCSD(T)=-376.654538\RMSD=1.438e-09\PG=CS [SG(C2O4)]\\@
 Normal termination of Gaussian 16 at Sat Feb 10 17:53:10 2024.
