 Gaussian 16, Revision A.03,
 Gaussian 16:  ES64L-G16RevA.03 25-Dec-2016

 ------------------
 #p CCSD(T)/cc-pVTZ
 ------------------

 -----------
 CO2_CO2_254
 -----------
 Symbolic Z-matrix:
 Charge =  0 Multiplicity = 1

                         Standard orientation:
 ---------------------------------------------------------------------
 Center     Atomic      Atomic             Coordinates (Angstroms)
 Number     Number       Type             X           Y           Z
 ---------------------------------------------------------------------
      1          8           0       -1.744500   -2.761500    0.000000
      2          6           0       -0.581500   -2.761500    0.000000
      3          8           0        0.581500   -2.761500    0.000000
      4          8           0        0.581500    1.598500    0.000000
      5          6           0        0.581500    2.761500    0.000000
      6          8           0        0.581500    3.924500    0.000000
 ---------------------------------------------------------------------

 SCF Done:  E(RHF) =  -375.413391969     A.U. after   10 cycles
 E2 =    -0.1203389598D+01 EUMP2 =    -0.37661678156726D+03
 CCSD(T)
 CCSD(T)= -0.37665471470D+03

 The electronic state is 1-A'.
 Alpha  occ. eigenvalues --  -20.65172 -20.65145 -20.64713 -20.64687 -11.46145
 Alpha  occ. eigenvalues --  -11.45685  -1.52949  -1.52491  -1.47651  -1.47194
 Alpha  occ. eigenvalues --   -0.80072  -0.79612  -0.74259  -0.73799  -0.71423
 Alpha  occ. eigenvalues --   -0.71421  -0.70972  -0.70956  -0.54405  -0.54403
 Alpha  occ. eigenvalues --   -0.53951  -0.53942
 Alpha virt. eigenvalues --    0.16855   0.18006   0.20315   0.20337   0.20784
 Alpha virt. eigenvalues --    0.20817   0.32837   0.34818   0.39322   0.39333
 Alpha virt. eigenvalues --    0.39811   0.40514   0.54476   0.54873   0.65736

 Mulliken charges:
               1
     1  O   -0.270557
     2  C    0.538011
     3  O   -0.267595
     4  O   -0.271024
     5  C    0.538443
     6  O   -0.267278
 Sum of Mulliken charges =  -0.00000

 Dipole moment (field-independent basis, Debye):
    X=              0.0244    Y=              0.0422    Z=              0.0000  Tot=              0.0487
 Quadrupole moment (field-independent basis, Debye-Ang):
   XX=            -34.5559   YY=            -34.5133   ZZ=            -29.3886
   XY=             -0.0169   XZ=              0.0000   YZ=              0.0000

 71\CCSD(T)=-376.6547147\RMSD=4.603e-09\PG=CS [SG(C2O4)]\\@
 Normal termination of Gaussian 16 at Mon Feb 12 20:19:39 2024.
