 Gaussian 16, Revision A.03,
 Gaussian 16:  ES64L-G16RevA.03 25-Dec-2016

 ------------------
 #p CCSD(T)/cc-pVTZ
 ------------------

 -----------
 CO2_CO2_231
 -----------
 Symbolic Z-matrix:
 Charge =  0 Multiplicity = 1

                         Standard orientation:
 ---------------------------------------------------------------------
 Center     Atomic      Atomic             Coordinates (Angstroms)
 Number     Number       Type             X           Y           Z
 ---------------------------------------------------------------------
      1          8           0        0.000000    0.000000    4.366000
      2          6           0        0.000000    0.000000    3.203000
      3          8           0        0.000000    0.000000    2.040000
      4          8           0        0.000000    0.000000   -2.040000
      5          6           0        0.000000    0.000000   -3.203000
      6          8           0        0.000000    0.000000   -4.366000
 ---------------------------------------------------------------------

 SCF Done:  E(RHF) =  -375.412831586     A.U. after   10 cycles
 E2 =    -0.1203623390D+01 EUMP2 =    -0.37661645497669D+03
 CCSD(T)
 CCSD(T)= -0.37665433235D+03

 The electronic state is 1-SGG.
 Alpha  occ. eigenvalues --  -20.64762 -20.64762 -20.64728 -20.64728 -11.45713
 Alpha  occ. eigenvalues --  -11.45713  -1.52540  -1.52538  -1.47238  -1.47235
 Alpha  occ. eigenvalues --   -0.79668  -0.79587  -0.73860  -0.73754  -0.71019
 Alpha  occ. eigenvalues --   -0.71019  -0.71012  -0.71012  -0.53990  -0.53990
 Alpha  occ. eigenvalues --   -0.53974  -0.53974
 Alpha virt. eigenvalues --    0.17418   0.17871   0.20718   0.20718   0.20751
 Alpha virt. eigenvalues --    0.20751   0.32650   0.35874   0.39698   0.39698
 Alpha virt. eigenvalues --    0.39734   0.39734   0.54945   0.54970   0.62044

 Mulliken charges:
               1
     1  O   -0.270676
     2  C    0.534709
     3  O   -0.264033
     4  O   -0.264033
     5  C    0.534709
     6  O   -0.270676
 Sum of Mulliken charges =  -0.00000

 Dipole moment (field-independent basis, Debye):
    X=             -0.0000    Y=              0.0000    Z=              0.0000  Tot=              0.0000
 Quadrupole moment (field-independent basis, Debye-Ang):
   XX=            -29.3924   YY=            -29.3924   ZZ=            -40.0722
   XY=              0.0000   XZ=              0.0000   YZ=             -0.0000

 592\CCSD(T)=-376.6543323\RMSD=4.697e-09\PG=D*H [C*(O1C1O1.O1C1O1)]\\@
 Normal termination of Gaussian 16 at Mon Feb 12 18:52:32 2024.
