 Gaussian 16, Revision A.03,
 Gaussian 16:  ES64L-G16RevA.03 25-Dec-2016

 ------------------
 #p CCSD(T)/cc-pVTZ
 ------------------

 ----------
 CO2_CO2_39
 ----------
 Symbolic Z-matrix:
 Charge =  0 Multiplicity = 1

                         Standard orientation:
 ---------------------------------------------------------------------
 Center     Atomic      Atomic             Coordinates (Angstroms)
 Number     Number       Type             X           Y           Z
 ---------------------------------------------------------------------
      1          8           0        0.000000    0.000000    3.086000
      2          6           0        0.000000    0.000000    1.923000
      3          8           0        0.000000    0.000000    0.760000
      4          8           0        0.000000    0.000000   -0.760000
      5          6           0        0.000000    0.000000   -1.923000
      6          8           0        0.000000    0.000000   -3.086000
 ---------------------------------------------------------------------

 SCF Done:  E(RHF) =  -375.188225554     A.U. after   11 cycles
 E2 =    -0.1230249520D+01 EUMP2 =    -0.37641847507348D+03
 CCSD(T)
 CCSD(T)= -0.37645128876D+03

 The electronic state is 1-SGG.
 Alpha  occ. eigenvalues --  -20.63374 -20.63374 -20.60925 -20.60924 -11.42875
 Alpha  occ. eigenvalues --  -11.42874  -1.54375  -1.50314  -1.47731  -1.44138
 Alpha  occ. eigenvalues --   -0.97162  -0.76031  -0.75220  -0.71844  -0.71844
 Alpha  occ. eigenvalues --   -0.68373  -0.68373  -0.55987  -0.55987  -0.49621
 Alpha  occ. eigenvalues --   -0.49621  -0.49593
 Alpha virt. eigenvalues --    0.17111   0.19315   0.19315   0.20087   0.24286
 Alpha virt. eigenvalues --    0.24286   0.31688   0.38407   0.38407   0.40462
 Alpha virt. eigenvalues --    0.42167   0.42167   0.52941   0.59451   0.68042

 Mulliken charges:
               1
     1  O   -0.320647
     2  C    0.513816
     3  O   -0.193169
     4  O   -0.193169
     5  C    0.513816
     6  O   -0.320647
 Sum of Mulliken charges =   0.00000

 Dipole moment (field-independent basis, Debye):
    X=             -0.0000    Y=              0.0000    Z=             -0.0000  Tot=              0.0000
 Quadrupole moment (field-independent basis, Debye-Ang):
   XX=            -29.3090   YY=            -29.3090   ZZ=            -42.7871
   XY=              0.0000   XZ=              0.0000   YZ=              0.0000

 84\CCSD(T)=-376.4512888\RMSD=5.346e-09\PG=D*H [C*(O1C1O1.O1C1O1)]\\@
 Normal termination of Gaussian 16 at Fri Feb  9 22:14:45 2024.
