 Gaussian 16, Revision A.03,
 Gaussian 16:  ES64L-G16RevA.03 25-Dec-2016

 ------------------
 #p CCSD(T)/cc-pVTZ
 ------------------

 -----------
 CO2_CO2_274
 -----------
 Symbolic Z-matrix:
 Charge =  0 Multiplicity = 1

                         Standard orientation:
 ---------------------------------------------------------------------
 Center     Atomic      Atomic             Coordinates (Angstroms)
 Number     Number       Type             X           Y           Z
 ---------------------------------------------------------------------
      1          8           0        1.233548   -4.135048    0.000000
      2          6           0        0.411183   -3.312683    0.000000
      3          8           0       -0.411183   -2.490317    0.000000
      4          8           0       -0.411183    2.149682   -0.000000
      5          6           0       -0.411183    3.312683   -0.000000
      6          8           0       -0.411183    4.475683   -0.000000
 ---------------------------------------------------------------------

 SCF Done:  E(RHF) =  -375.412999552     A.U. after   10 cycles
 E2 =    -0.1203436645D+01 EUMP2 =    -0.37661643619734D+03
 CCSD(T)
 CCSD(T)= -0.37665434661D+03

 The electronic state is 1-A'.
 Alpha  occ. eigenvalues --  -20.64901 -20.64886 -20.64801 -20.64776 -11.45868
 Alpha  occ. eigenvalues --  -11.45763  -1.52687  -1.52581  -1.47386  -1.47281
 Alpha  occ. eigenvalues --   -0.79789  -0.79684  -0.73972  -0.73867  -0.71162
 Alpha  occ. eigenvalues --   -0.71162  -0.71058  -0.71055  -0.54135  -0.54135
 Alpha  occ. eigenvalues --   -0.54030  -0.54027
 Alpha virt. eigenvalues --    0.17466   0.17714   0.20592   0.20592   0.20694
 Alpha virt. eigenvalues --    0.20700   0.33382   0.35137   0.39587   0.39590
 Alpha virt. eigenvalues --    0.39690   0.39717   0.54812   0.54953   0.65305

 Mulliken charges:
               1
     1  O   -0.269958
     2  C    0.535736
     3  O   -0.265773
     4  O   -0.266554
     5  C    0.535753
     6  O   -0.269204
 Sum of Mulliken charges =  -0.00000

 Dipole moment (field-independent basis, Debye):
    X=             -0.0160    Y=              0.0060    Z=             -0.0000  Tot=              0.0171
 Quadrupole moment (field-independent basis, Debye-Ang):
   XX=            -31.9696   YY=            -37.3175   ZZ=            -29.3904
   XY=              2.6045   XZ=             -0.0000   YZ=              0.0000

 =-376.6053737\CCSD=-376.5971987\CCSD(T)=-376.6543466\RMSD=6.655e-09\PG
 Normal termination of Gaussian 16 at Mon Feb 12 21:31:18 2024.
