 Gaussian 16, Revision A.03,
 Gaussian 16:  ES64L-G16RevA.03 25-Dec-2016

 ------------------
 #p CCSD(T)/cc-pVTZ
 ------------------

 ----------
 CO2_CO2_99
 ----------
 Symbolic Z-matrix:
 Charge =  0 Multiplicity = 1

                         Standard orientation:
 ---------------------------------------------------------------------
 Center     Atomic      Atomic             Coordinates (Angstroms)
 Number     Number       Type             X           Y           Z
 ---------------------------------------------------------------------
      1          8           0        0.000000    0.000000    3.486000
      2          6           0        0.000000    0.000000    2.323000
      3          8           0        0.000000    0.000000    1.160000
      4          8           0        0.000000    0.000000   -1.160000
      5          6           0        0.000000    0.000000   -2.323000
      6          8           0        0.000000    0.000000   -3.486000
 ---------------------------------------------------------------------

 SCF Done:  E(RHF) =  -375.402050174     A.U. after   10 cycles
 E2 =    -0.1207291617D+01 EUMP2 =    -0.37660934179045D+03
 CCSD(T)
 CCSD(T)= -0.37664668755D+03

 The electronic state is 1-SGG.
 Alpha  occ. eigenvalues --  -20.64311 -20.64311 -20.63901 -20.63901 -11.45075
 Alpha  occ. eigenvalues --  -11.45075  -1.52208  -1.51924  -1.46956  -1.46536
 Alpha  occ. eigenvalues --   -0.81817  -0.77859  -0.74918  -0.70749  -0.70749
 Alpha  occ. eigenvalues --   -0.70323  -0.70323  -0.70145  -0.53966  -0.53966
 Alpha  occ. eigenvalues --   -0.52981  -0.52981
 Alpha virt. eigenvalues --    0.17408   0.18611   0.20526   0.20526   0.21762
 Alpha virt. eigenvalues --    0.21762   0.33071   0.38784   0.39211   0.39211
 Alpha virt. eigenvalues --    0.40575   0.40575   0.53669   0.55445   0.67154

 Mulliken charges:
               1
     1  O   -0.292752
     2  C    0.516543
     3  O   -0.223791
     4  O   -0.223791
     5  C    0.516543
     6  O   -0.292752
 Sum of Mulliken charges =   0.00000

 Dipole moment (field-independent basis, Debye):
    X=             -0.0000    Y=             -0.0000    Z=              0.0000  Tot=              0.0000
 Quadrupole moment (field-independent basis, Debye-Ang):
   XX=            -29.4124   YY=            -29.4124   ZZ=            -40.9211
   XY=              0.0000   XZ=              0.0000   YZ=              0.0000

 472\CCSD(T)=-376.6466875\RMSD=5.731e-09\PG=D*H [C*(O1C1O1.O1C1O1)]\\@
 Normal termination of Gaussian 16 at Sat Feb 10 03:16:55 2024.
