 Gaussian 16, Revision A.03,
 Gaussian 16:  ES64L-G16RevA.03 25-Dec-2016

 ------------------
 #p CCSD(T)/cc-pVTZ
 ------------------

 ----------
 CO2_CO2_48
 ----------
 Symbolic Z-matrix:
 Charge =  0 Multiplicity = 1

                         Standard orientation:
 ---------------------------------------------------------------------
 Center     Atomic      Atomic             Coordinates (Angstroms)
 Number     Number       Type             X           Y           Z
 ---------------------------------------------------------------------
      1          8           0        0.000000    0.000000    3.146000
      2          6           0        0.000000    0.000000    1.983000
      3          8           0        0.000000    0.000000    0.820000
      4          8           0        0.000000    0.000000   -0.820000
      5          6           0        0.000000    0.000000   -1.983000
      6          8           0        0.000000    0.000000   -3.146000
 ---------------------------------------------------------------------

 SCF Done:  E(RHF) =  -375.268839383     A.U. after   11 cycles
 E2 =    -0.1222263555D+01 EUMP2 =    -0.37649110293793D+03
 CCSD(T)
 CCSD(T)= -0.37652546339D+03

 The electronic state is 1-SGG.
 Alpha  occ. eigenvalues --  -20.63605 -20.63604 -20.61512 -20.61511 -11.43510
 Alpha  occ. eigenvalues --  -11.43510  -1.53158  -1.50691  -1.47512  -1.44756
 Alpha  occ. eigenvalues --   -0.93050  -0.76321  -0.75329  -0.71281  -0.71281
 Alpha  occ. eigenvalues --   -0.68852  -0.68852  -0.55645  -0.55308  -0.55308
 Alpha  occ. eigenvalues --   -0.50488  -0.50488
 Alpha virt. eigenvalues --    0.17175   0.19686   0.19686   0.19729   0.23684
 Alpha virt. eigenvalues --    0.23684   0.32072   0.38491   0.38491   0.40210
 Alpha virt. eigenvalues --    0.41808   0.41808   0.53092   0.58412   0.68431

 Mulliken charges:
               1
     1  O   -0.316506
     2  C    0.517730
     3  O   -0.201224
     4  O   -0.201224
     5  C    0.517730
     6  O   -0.316506
 Sum of Mulliken charges =  -0.00000

 Dipole moment (field-independent basis, Debye):
    X=             -0.0000    Y=             -0.0000    Z=              0.0000  Tot=              0.0000
 Quadrupole moment (field-independent basis, Debye-Ang):
   XX=            -29.3491   YY=            -29.3491   ZZ=            -42.3337
   XY=              0.0000   XZ=              0.0000   YZ=              0.0000

 1661\CCSD(T)=-376.5254634\RMSD=2.177e-09\PG=D*H [C*(O1C1O1.O1C1O1)]\\@
 Normal termination of Gaussian 16 at Fri Feb  9 23:00:56 2024.
