 Gaussian 16, Revision A.03,
 Gaussian 16:  ES64L-G16RevA.03 25-Dec-2016

 ------------------
 #p CCSD(T)/cc-pVTZ
 ------------------

 -----------
 CO2_CO2_260
 -----------
 Symbolic Z-matrix:
 Charge =  0 Multiplicity = 1

                         Standard orientation:
 ---------------------------------------------------------------------
 Center     Atomic      Atomic             Coordinates (Angstroms)
 Number     Number       Type             X           Y           Z
 ---------------------------------------------------------------------
      1          8           0       -1.744500   -2.801500    0.000000
      2          6           0       -0.581500   -2.801500    0.000000
      3          8           0        0.581500   -2.801500    0.000000
      4          8           0        0.581500    1.638500    0.000000
      5          6           0        0.581500    2.801500    0.000000
      6          8           0        0.581500    3.964500    0.000000
 ---------------------------------------------------------------------

 SCF Done:  E(RHF) =  -375.413373564     A.U. after   10 cycles
 E2 =    -0.1203373294D+01 EUMP2 =    -0.37661674685820D+03
 CCSD(T)
 CCSD(T)= -0.37665468132D+03

 The electronic state is 1-A'.
 Alpha  occ. eigenvalues --  -20.65164 -20.65138 -20.64723 -20.64699 -11.46137
 Alpha  occ. eigenvalues --  -11.45696  -1.52942  -1.52503  -1.47644  -1.47205
 Alpha  occ. eigenvalues --   -0.80064  -0.79623  -0.74251  -0.73810  -0.71415
 Alpha  occ. eigenvalues --   -0.71414  -0.70982  -0.70968  -0.54397  -0.54396
 Alpha  occ. eigenvalues --   -0.53962  -0.53954
 Alpha virt. eigenvalues --    0.16915   0.17971   0.20328   0.20345   0.20773
 Alpha virt. eigenvalues --    0.20798   0.32936   0.34801   0.39335   0.39348
 Alpha virt. eigenvalues --    0.39794   0.40407   0.54487   0.54900   0.65761

 Mulliken charges:
               1
     1  O   -0.270443
     2  C    0.537971
     3  O   -0.267643
     4  O   -0.270952
     5  C    0.538318
     6  O   -0.267251
 Sum of Mulliken charges =  -0.00000

 Dipole moment (field-independent basis, Debye):
    X=              0.0228    Y=              0.0399    Z=              0.0000  Tot=              0.0460
 Quadrupole moment (field-independent basis, Debye-Ang):
   XX=            -34.5550   YY=            -34.5146   ZZ=            -29.3886
   XY=             -0.0165   XZ=              0.0000   YZ=              0.0000

 4\CCSD(T)=-376.6546813\RMSD=4.562e-09\PG=CS [SG(C2O4)]\\@
 Normal termination of Gaussian 16 at Mon Feb 12 20:41:09 2024.
