 Gaussian 16, Revision A.03,
 Gaussian 16:  ES64L-G16RevA.03 25-Dec-2016

 ------------------
 #p CCSD(T)/cc-pVTZ
 ------------------

 -----------
 CO2_CO2_259
 -----------
 Symbolic Z-matrix:
 Charge =  0 Multiplicity = 1

                         Standard orientation:
 ---------------------------------------------------------------------
 Center     Atomic      Atomic             Coordinates (Angstroms)
 Number     Number       Type             X           Y           Z
 ---------------------------------------------------------------------
      1          8           0        1.233548   -4.035048   -0.000000
      2          6           0        0.411183   -3.212682   -0.000000
      3          8           0       -0.411183   -2.390317   -0.000000
      4          8           0       -0.411183    2.049683    0.000000
      5          6           0       -0.411183    3.212682    0.000000
      6          8           0       -0.411183    4.375682    0.000000
 ---------------------------------------------------------------------

 SCF Done:  E(RHF) =  -375.412982562     A.U. after   10 cycles
 E2 =    -0.1203477098D+01 EUMP2 =    -0.37661645966021D+03
 CCSD(T)
 CCSD(T)= -0.37665436344D+03

 The electronic state is 1-A'.
 Alpha  occ. eigenvalues --  -20.64891 -20.64875 -20.64784 -20.64756 -11.45857
 Alpha  occ. eigenvalues --  -11.45744  -1.52677  -1.52563  -1.47376  -1.47262
 Alpha  occ. eigenvalues --   -0.79777  -0.79664  -0.73962  -0.73845  -0.71152
 Alpha  occ. eigenvalues --   -0.71152  -0.71040  -0.71036  -0.54124  -0.54124
 Alpha  occ. eigenvalues --   -0.54011  -0.54007
 Alpha virt. eigenvalues --    0.17424   0.17764   0.20601   0.20602   0.20711
 Alpha virt. eigenvalues --    0.20718   0.33052   0.35435   0.39590   0.39595
 Alpha virt. eigenvalues --    0.39706   0.39749   0.54811   0.54971   0.64846

 Mulliken charges:
               1
     1  O   -0.270167
     2  C    0.535598
     3  O   -0.265418
     4  O   -0.266282
     5  C    0.535612
     6  O   -0.269343
 Sum of Mulliken charges =  -0.00000

 Dipole moment (field-independent basis, Debye):
    X=             -0.0180    Y=              0.0063    Z=             -0.0000  Tot=              0.0191
 Quadrupole moment (field-independent basis, Debye-Ang):
   XX=            -31.9705   YY=            -37.3366   ZZ=            -29.3908
   XY=              2.6078   XZ=              0.0000   YZ=             -0.0000

 =-376.6053888\CCSD=-376.59721\CCSD(T)=-376.6543634\RMSD=7.694e-09\PG=C
 Normal termination of Gaussian 16 at Mon Feb 12 20:36:35 2024.
