 Gaussian 16, Revision A.03,
 Gaussian 16:  ES64L-G16RevA.03 25-Dec-2016

 ------------------
 #p CCSD(T)/cc-pVTZ
 ------------------

 -----------
 CO2_CO2_186
 -----------
 Symbolic Z-matrix:
 Charge =  0 Multiplicity = 1

                         Standard orientation:
 ---------------------------------------------------------------------
 Center     Atomic      Atomic             Coordinates (Angstroms)
 Number     Number       Type             X           Y           Z
 ---------------------------------------------------------------------
      1          8           0        0.000000    0.000000    4.066000
      2          6           0        0.000000    0.000000    2.903000
      3          8           0        0.000000    0.000000    1.740000
      4          8           0        0.000000    0.000000   -1.740000
      5          6           0        0.000000    0.000000   -2.903000
      6          8           0        0.000000    0.000000   -4.066000
 ---------------------------------------------------------------------

 SCF Done:  E(RHF) =  -375.412585945     A.U. after   10 cycles
 E2 =    -0.1204002792D+01 EUMP2 =    -0.37661658873659D+03
 CCSD(T)
 CCSD(T)= -0.37665441833D+03

 The electronic state is 1-SGG.
 Alpha  occ. eigenvalues --  -20.64680 -20.64680 -20.64629 -20.64629 -11.45616
 Alpha  occ. eigenvalues --  -11.45616  -1.52456  -1.52446  -1.47154  -1.47139
 Alpha  occ. eigenvalues --   -0.79689  -0.79372  -0.73897  -0.73493  -0.70942
 Alpha  occ. eigenvalues --   -0.70942  -0.70915  -0.70915  -0.53925  -0.53925
 Alpha  occ. eigenvalues --   -0.53855  -0.53855
 Alpha virt. eigenvalues --    0.17415   0.18014   0.20742   0.20742   0.20886
 Alpha virt. eigenvalues --    0.20886   0.32175   0.36709   0.39703   0.39703
 Alpha virt. eigenvalues --    0.39849   0.39849   0.54857   0.55233   0.58626

 Mulliken charges:
               1
     1  O   -0.273718
     2  C    0.533966
     3  O   -0.260247
     4  O   -0.260247
     5  C    0.533966
     6  O   -0.273718
 Sum of Mulliken charges =  -0.00000

 Dipole moment (field-independent basis, Debye):
    X=             -0.0000    Y=             -0.0000    Z=              0.0000  Tot=              0.0000
 Quadrupole moment (field-independent basis, Debye-Ang):
   XX=            -29.3949   YY=            -29.3949   ZZ=            -40.2077
   XY=              0.0000   XZ=              0.0000   YZ=             -0.0000

 71918\CCSD(T)=-376.6544183\RMSD=4.619e-09\PG=D*H [C*(O1C1O1.O1C1O1)]\\
 Normal termination of Gaussian 16 at Sat Feb 10 22:02:10 2024.
