 Gaussian 16, Revision A.03,
 Gaussian 16:  ES64L-G16RevA.03 25-Dec-2016

 ------------------
 #p CCSD(T)/cc-pVTZ
 ------------------

 -----------
 CO2_CO2_213
 -----------
 Symbolic Z-matrix:
 Charge =  0 Multiplicity = 1

                         Standard orientation:
 ---------------------------------------------------------------------
 Center     Atomic      Atomic             Coordinates (Angstroms)
 Number     Number       Type             X           Y           Z
 ---------------------------------------------------------------------
      1          8           0        0.000000    0.000000    4.246000
      2          6           0        0.000000    0.000000    3.083000
      3          8           0        0.000000    0.000000    1.920000
      4          8           0        0.000000    0.000000   -1.920000
      5          6           0        0.000000    0.000000   -3.083000
      6          8           0        0.000000    0.000000   -4.246000
 ---------------------------------------------------------------------

 SCF Done:  E(RHF) =  -375.412767430     A.U. after   10 cycles
 E2 =    -0.1203740126D+01 EUMP2 =    -0.37661650755597D+03
 CCSD(T)
 CCSD(T)= -0.37665436858D+03

 The electronic state is 1-SGG.
 Alpha  occ. eigenvalues --  -20.64733 -20.64733 -20.64695 -20.64695 -11.45680
 Alpha  occ. eigenvalues --  -11.45680  -1.52510  -1.52507  -1.47208  -1.47203
 Alpha  occ. eigenvalues --   -0.79663  -0.79523  -0.73860  -0.73678  -0.70991
 Alpha  occ. eigenvalues --   -0.70991  -0.70980  -0.70980  -0.53965  -0.53965
 Alpha  occ. eigenvalues --   -0.53936  -0.53936
 Alpha virt. eigenvalues --    0.17386   0.17933   0.20732   0.20732   0.20793
 Alpha virt. eigenvalues --    0.20793   0.32283   0.36242   0.39705   0.39705
 Alpha virt. eigenvalues --    0.39770   0.39770   0.54942   0.55033   0.60402

 Mulliken charges:
               1
     1  O   -0.271439
     2  C    0.534520
     3  O   -0.263081
     4  O   -0.263081
     5  C    0.534520
     6  O   -0.271439
 Sum of Mulliken charges =   0.00000

 Dipole moment (field-independent basis, Debye):
    X=             -0.0000    Y=             -0.0000    Z=             -0.0000  Tot=              0.0000
 Quadrupole moment (field-independent basis, Debye-Ang):
   XX=            -29.3932   YY=            -29.3932   ZZ=            -40.1176
   XY=              0.0000   XZ=              0.0000   YZ=             -0.0000

 71791\CCSD(T)=-376.6543686\RMSD=4.685e-09\PG=D*H [C*(O1C1O1.O1C1O1)]\\
 Normal termination of Gaussian 16 at Sun Feb 11 00:16:32 2024.
