 Gaussian 16, Revision A.03,
 Gaussian 16:  ES64L-G16RevA.03 25-Dec-2016

 ------------------
 #p CCSD(T)/cc-pVTZ
 ------------------

 ----------
 CO2_CO2_88
 ----------
 Symbolic Z-matrix:
 Charge =  0 Multiplicity = 1

                         Standard orientation:
 ---------------------------------------------------------------------
 Center     Atomic      Atomic             Coordinates (Angstroms)
 Number     Number       Type             X           Y           Z
 ---------------------------------------------------------------------
      1          8           0        1.233548   -2.895048    0.000000
      2          6           0        0.411183   -2.072683    0.000000
      3          8           0       -0.411183   -1.250318   -0.000000
      4          8           0       -0.411183    0.909683   -0.000000
      5          6           0       -0.411183    2.072683   -0.000000
      6          8           0       -0.411183    3.235682   -0.000000
 ---------------------------------------------------------------------

 SCF Done:  E(RHF) =  -375.391787601     A.U. after   11 cycles
 E2 =    -0.1209326983D+01 EUMP2 =    -0.37660111458468D+03
 CCSD(T)
 CCSD(T)= -0.37663813461D+03

 The electronic state is 1-A'.
 Alpha  occ. eigenvalues --  -20.64500 -20.64050 -20.63916 -20.63527 -11.45206
 Alpha  occ. eigenvalues --  -11.44802  -1.52423  -1.51742  -1.47174  -1.46320
 Alpha  occ. eigenvalues --   -0.82717  -0.77798  -0.75180  -0.71539  -0.70945
 Alpha  occ. eigenvalues --   -0.70533  -0.70141  -0.68597  -0.54243  -0.53936
 Alpha  occ. eigenvalues --   -0.52727  -0.52535
 Alpha virt. eigenvalues --    0.16876   0.19130   0.20446   0.20850   0.21431
 Alpha virt. eigenvalues --    0.21799   0.33717   0.36490   0.38531   0.39143
 Alpha virt. eigenvalues --    0.41151   0.43788   0.53818   0.56061   0.65115

 Mulliken charges:
               1
     1  O   -0.284701
     2  C    0.527154
     3  O   -0.245009
     4  O   -0.224061
     5  C    0.519804
     6  O   -0.293188
 Sum of Mulliken charges =  -0.00000

 Dipole moment (field-independent basis, Debye):
    X=             -0.1237    Y=              0.0702    Z=             -0.0000  Tot=              0.1422
 Quadrupole moment (field-independent basis, Debye-Ang):
   XX=            -32.0458   YY=            -38.3789   ZZ=            -29.4065
   XY=              2.7930   XZ=             -0.0000   YZ=              0.0000

 -376.5888499\CCSD=-376.5802233\CCSD(T)=-376.6381346\RMSD=4.256e-09\PG=
 Normal termination of Gaussian 16 at Sat Feb 10 02:23:56 2024.
