 Gaussian 16, Revision A.03,
 Gaussian 16:  ES64L-G16RevA.03 25-Dec-2016

 ------------------
 #p CCSD(T)/cc-pVTZ
 ------------------

 ----------
 CO2_CO2_57
 ----------
 Symbolic Z-matrix:
 Charge =  0 Multiplicity = 1

                         Standard orientation:
 ---------------------------------------------------------------------
 Center     Atomic      Atomic             Coordinates (Angstroms)
 Number     Number       Type             X           Y           Z
 ---------------------------------------------------------------------
      1          8           0        0.000000    0.000000    3.206000
      2          6           0        0.000000    0.000000    2.043000
      3          8           0        0.000000    0.000000    0.880000
      4          8           0        0.000000    0.000000   -0.880000
      5          6           0        0.000000    0.000000   -2.043000
      6          8           0        0.000000    0.000000   -3.206000
 ---------------------------------------------------------------------

 SCF Done:  E(RHF) =  -375.321156805     A.U. after   10 cycles
 E2 =    -0.1217007602D+01 EUMP2 =    -0.37653816440640D+03
 CCSD(T)
 CCSD(T)= -0.37657358391D+03

 The electronic state is 1-SGG.
 Alpha  occ. eigenvalues --  -20.63789 -20.63789 -20.62131 -20.62130 -11.43982
 Alpha  occ. eigenvalues --  -11.43982  -1.52596  -1.51012  -1.47297  -1.45266
 Alpha  occ. eigenvalues --   -0.89721  -0.76596  -0.75374  -0.70992  -0.70992
 Alpha  occ. eigenvalues --   -0.69248  -0.69248  -0.60177  -0.54824  -0.54824
 Alpha  occ. eigenvalues --   -0.51191  -0.51191
 Alpha virt. eigenvalues --    0.17221   0.19448   0.19953   0.19953   0.23176
 Alpha virt. eigenvalues --    0.23176   0.32394   0.38602   0.38602   0.39964
 Alpha virt. eigenvalues --    0.41507   0.41507   0.53176   0.57596   0.68676

 Mulliken charges:
               1
     1  O   -0.311433
     2  C    0.518369
     3  O   -0.206936
     4  O   -0.206936
     5  C    0.518369
     6  O   -0.311433
 Sum of Mulliken charges =  -0.00000

 Dipole moment (field-independent basis, Debye):
    X=             -0.0000    Y=              0.0000    Z=             -0.0000  Tot=              0.0000
 Quadrupole moment (field-independent basis, Debye-Ang):
   XX=            -29.3767   YY=            -29.3767   ZZ=            -41.9729
   XY=              0.0000   XZ=              0.0000   YZ=              0.0000

 912\CCSD(T)=-376.5735839\RMSD=8.261e-09\PG=D*H [C*(O1C1O1.O1C1O1)]\\@
 Normal termination of Gaussian 16 at Fri Feb  9 23:46:10 2024.
