 Gaussian 16, Revision A.03,
 Gaussian 16:  ES64L-G16RevA.03 25-Dec-2016

 ------------------
 #p CCSD(T)/cc-pVTZ
 ------------------

 ----------
 CO2_CO2_61
 ----------
 Symbolic Z-matrix:
 Charge =  0 Multiplicity = 1

                         Standard orientation:
 ---------------------------------------------------------------------
 Center     Atomic      Atomic             Coordinates (Angstroms)
 Number     Number       Type             X           Y           Z
 ---------------------------------------------------------------------
      1          8           0        1.233548   -2.715048    0.000000
      2          6           0        0.411183   -1.892683    0.000000
      3          8           0       -0.411183   -1.070317    0.000000
      4          8           0       -0.411183    0.729682   -0.000000
      5          6           0       -0.411183    1.892682   -0.000000
      6          8           0       -0.411183    3.055683   -0.000000
 ---------------------------------------------------------------------

 SCF Done:  E(RHF) =  -375.331339494     A.U. after   13 cycles
 E2 =    -0.1217629580D+01 EUMP2 =    -0.37654896907429D+03
 CCSD(T)
 CCSD(T)= -0.37658432405D+03

 The electronic state is 1-A'.
 Alpha  occ. eigenvalues --  -20.64302 -20.63469 -20.62890 -20.62506 -11.44637
 Alpha  occ. eigenvalues --  -11.43964  -1.52927  -1.51147  -1.47499  -1.45452
 Alpha  occ. eigenvalues --   -0.88021  -0.77016  -0.75458  -0.71785  -0.71268
 Alpha  occ. eigenvalues --   -0.69740  -0.69421  -0.64040  -0.54960  -0.53856
 Alpha  occ. eigenvalues --   -0.51551  -0.50212
 Alpha virt. eigenvalues --    0.16643   0.19671   0.20026   0.20734   0.22067
 Alpha virt. eigenvalues --    0.22644   0.34094   0.36317   0.38036   0.39100
 Alpha virt. eigenvalues --    0.41951   0.45251   0.53835   0.57163   0.66965

 Mulliken charges:
               1
     1  O   -0.293808
     2  C    0.517958
     3  O   -0.230869
     4  O   -0.214411
     5  C    0.524144
     6  O   -0.303014
 Sum of Mulliken charges =  -0.00000

 Dipole moment (field-independent basis, Debye):
    X=             -0.2031    Y=              0.1735    Z=             -0.0000  Tot=              0.2671
 Quadrupole moment (field-independent basis, Debye-Ang):
   XX=            -32.0984   YY=            -39.1669   ZZ=            -29.3701
   XY=              2.9461   XZ=             -0.0000   YZ=              0.0000

 76.5348614\CCSD=-376.5254751\CCSD(T)=-376.584324\RMSD=5.590e-09\PG=CS
 Normal termination of Gaussian 16 at Sat Feb 10 00:08:29 2024.
