 Gaussian 16, Revision A.03,
 Gaussian 16:  ES64L-G16RevA.03 25-Dec-2016

 ------------------
 #p CCSD(T)/cc-pVTZ
 ------------------

 ----------
 CO2_CO2_44
 ----------
 Symbolic Z-matrix:
 Charge =  0 Multiplicity = 1

                         Standard orientation:
 ---------------------------------------------------------------------
 Center     Atomic      Atomic             Coordinates (Angstroms)
 Number     Number       Type             X           Y           Z
 ---------------------------------------------------------------------
      1          8           0       -1.744500   -1.361500    0.000000
      2          6           0       -0.581500   -1.361500    0.000000
      3          8           0        0.581500   -1.361500    0.000000
      4          8           0        0.581500    0.198500    0.000000
      5          6           0        0.581500    1.361500    0.000000
      6          8           0        0.581500    2.524500    0.000000
 ---------------------------------------------------------------------

 SCF Done:  E(RHF) =  -375.176326189     A.U. after   14 cycles
 E2 =    -0.1236422341D+01 EUMP2 =    -0.37641274852964D+03
 CCSD(T)
 CCSD(T)= -0.37644552427D+03

 The electronic state is 1-A'.
 Alpha  occ. eigenvalues --  -20.65393 -20.63388 -20.63248 -20.60708 -11.45168
 Alpha  occ. eigenvalues --  -11.43412  -1.57888  -1.51234  -1.48474  -1.44499
 Alpha  occ. eigenvalues --   -0.91176  -0.80067  -0.77087  -0.74236  -0.74042
 Alpha  occ. eigenvalues --   -0.69809  -0.68757  -0.62814  -0.56879  -0.54387
 Alpha  occ. eigenvalues --   -0.50549  -0.41993
 Alpha virt. eigenvalues --    0.15618   0.17602   0.19432   0.21866   0.22466
 Alpha virt. eigenvalues --    0.24486   0.33184   0.36562   0.37358   0.41082
 Alpha virt. eigenvalues --    0.43942   0.46928   0.54574   0.58445   0.65005

 Mulliken charges:
               1
     1  O   -0.290842
     2  C    0.488703
     3  O   -0.211679
     4  O   -0.216464
     5  C    0.519148
     6  O   -0.288866
 Sum of Mulliken charges =  -0.00000

 Dipole moment (field-independent basis, Debye):
    X=              0.5615    Y=              0.3999    Z=              0.0000  Tot=              0.6894
 Quadrupole moment (field-independent basis, Debye-Ang):
   XX=            -34.5410   YY=            -36.4576   ZZ=            -29.2563
   XY=             -0.3718   XZ=              0.0000   YZ=              0.0000

 523\CCSD(T)=-376.4455243\RMSD=8.786e-09\PG=CS [SG(C2O4)]\\@
 Normal termination of Gaussian 16 at Fri Feb  9 22:43:35 2024.
