 Gaussian 16, Revision A.03,
 Gaussian 16:  ES64L-G16RevA.03 25-Dec-2016

 ------------------
 #p CCSD(T)/cc-pVTZ
 ------------------

 ----------
 CO2_CO2_36
 ----------
 Symbolic Z-matrix:
 Charge =  0 Multiplicity = 1

                         Standard orientation:
 ---------------------------------------------------------------------
 Center     Atomic      Atomic             Coordinates (Angstroms)
 Number     Number       Type             X           Y           Z
 ---------------------------------------------------------------------
      1          8           0        0.000000    0.000000    3.066000
      2          6           0        0.000000    0.000000    1.903000
      3          8           0        0.000000    0.000000    0.740000
      4          8           0        0.000000    0.000000   -0.740000
      5          6           0        0.000000    0.000000   -1.903000
      6          8           0        0.000000    0.000000   -3.066000
 ---------------------------------------------------------------------

 SCF Done:  E(RHF) =  -375.152904848     A.U. after   12 cycles
 E2 =    -0.1233816545D+01 EUMP2 =    -0.37638672139341D+03
 CCSD(T)
 CCSD(T)= -0.37641887605D+03

 The electronic state is 1-SGG.
 Alpha  occ. eigenvalues --  -20.63282 -20.63282 -20.60777 -20.60775 -11.42616
 Alpha  occ. eigenvalues --  -11.42616  -1.55033  -1.50174  -1.47785  -1.43913
 Alpha  occ. eigenvalues --   -0.98715  -0.75929  -0.75168  -0.72136  -0.72136
 Alpha  occ. eigenvalues --   -0.68193  -0.68193  -0.56262  -0.56262  -0.49296
 Alpha  occ. eigenvalues --   -0.49296  -0.47161
 Alpha virt. eigenvalues --    0.17081   0.19161   0.19161   0.20234   0.24506
 Alpha virt. eigenvalues --    0.24506   0.31548   0.38387   0.38387   0.40549
 Alpha virt. eigenvalues --    0.42303   0.42303   0.52861   0.59862   0.67902

 Mulliken charges:
               1
     1  O   -0.321551
     2  C    0.511527
     3  O   -0.189976
     4  O   -0.189976
     5  C    0.511527
     6  O   -0.321551
 Sum of Mulliken charges =  -0.00000

 Dipole moment (field-independent basis, Debye):
    X=             -0.0000    Y=             -0.0000    Z=              0.0000  Tot=              0.0000
 Quadrupole moment (field-independent basis, Debye-Ang):
   XX=            -29.2928   YY=            -29.2928   ZZ=            -42.9707
   XY=              0.0000   XZ=              0.0000   YZ=              0.0000

 0732\CCSD(T)=-376.418876\RMSD=3.145e-09\PG=D*H [C*(O1C1O1.O1C1O1)]\\@
 Normal termination of Gaussian 16 at Fri Feb  9 21:57:47 2024.
