 Gaussian 16, Revision A.03,
 Gaussian 16:  ES64L-G16RevA.03 25-Dec-2016

 ------------------
 #p CCSD(T)/cc-pVTZ
 ------------------

 ----------
 CO2_CO2_27
 ----------
 Symbolic Z-matrix:
 Charge =  0 Multiplicity = 1

                         Standard orientation:
 ---------------------------------------------------------------------
 Center     Atomic      Atomic             Coordinates (Angstroms)
 Number     Number       Type             X           Y           Z
 ---------------------------------------------------------------------
      1          8           0        0.000000    0.000000    3.006000
      2          6           0        0.000000    0.000000    1.843000
      3          8           0        0.000000    0.000000    0.680000
      4          8           0        0.000000    0.000000   -0.680000
      5          6           0        0.000000    0.000000   -1.843000
      6          8           0        0.000000    0.000000   -3.006000
 ---------------------------------------------------------------------

 SCF Done:  E(RHF) =  -375.013908814     A.U. after   12 cycles
 E2 =    -0.1248868355D+01 EUMP2 =    -0.37626277716882D+03
 CCSD(T)
 CCSD(T)= -0.37629237524D+03

 The electronic state is 1-SGG.
 Alpha  occ. eigenvalues --  -20.62943 -20.62943 -20.60751 -20.60741 -11.41678
 Alpha  occ. eigenvalues --  -11.41677  -1.58318  -1.49710  -1.47817  -1.43249
 Alpha  occ. eigenvalues --   -1.03914  -0.75594  -0.74958  -0.73603  -0.73603
 Alpha  occ. eigenvalues --   -0.67592  -0.67592  -0.57227  -0.57227  -0.48245
 Alpha  occ. eigenvalues --   -0.48245  -0.38387
 Alpha virt. eigenvalues --    0.16927   0.18567   0.18567   0.20824   0.25191
 Alpha virt. eigenvalues --    0.25191   0.31049   0.38350   0.38350   0.40820
 Alpha virt. eigenvalues --    0.42767   0.42767   0.52419   0.61358   0.67476

 Mulliken charges:
               1
     1  O   -0.321109
     2  C    0.499219
     3  O   -0.178110
     4  O   -0.178110
     5  C    0.499219
     6  O   -0.321109
 Sum of Mulliken charges =  -0.00000

 Dipole moment (field-independent basis, Debye):
    X=             -0.0000    Y=              0.0000    Z=             -0.0000  Tot=              0.0000
 Quadrupole moment (field-independent basis, Debye-Ang):
   XX=            -29.2422   YY=            -29.2422   ZZ=            -43.7057
   XY=              0.0000   XZ=              0.0000   YZ=              0.0000

 193\CCSD(T)=-376.2923752\RMSD=4.671e-09\PG=D*H [C*(O1C1O1.O1C1O1)]\\@
 Normal termination of Gaussian 16 at Fri Feb  9 21:12:12 2024.
