 Gaussian 16, Revision A.03,
 Gaussian 16:  ES64L-G16RevA.03 25-Dec-2016

 ------------------
 #p CCSD(T)/cc-pVTZ
 ------------------

 -----------
 CO2_CO2_138
 -----------
 Symbolic Z-matrix:
 Charge =  0 Multiplicity = 1

                         Standard orientation:
 ---------------------------------------------------------------------
 Center     Atomic      Atomic             Coordinates (Angstroms)
 Number     Number       Type             X           Y           Z
 ---------------------------------------------------------------------
      1          8           0        0.000000    0.000000    3.746000
      2          6           0        0.000000    0.000000    2.583000
      3          8           0        0.000000    0.000000    1.420000
      4          8           0        0.000000    0.000000   -1.420000
      5          6           0        0.000000    0.000000   -2.583000
      6          8           0        0.000000    0.000000   -3.746000
 ---------------------------------------------------------------------

 SCF Done:  E(RHF) =  -375.411171230     A.U. after   10 cycles
 E2 =    -0.1205003068D+01 EUMP2 =    -0.37661617429718D+03
 CCSD(T)
 CCSD(T)= -0.37665388577D+03

 The electronic state is 1-SGG.
 Alpha  occ. eigenvalues --  -20.64533 -20.64533 -20.64409 -20.64409 -11.45423
 Alpha  occ. eigenvalues --  -11.45423  -1.52324  -1.52262  -1.47032  -1.46935
 Alpha  occ. eigenvalues --   -0.80082  -0.78793  -0.74234  -0.72616  -0.70832
 Alpha  occ. eigenvalues --   -0.70832  -0.70710  -0.70710  -0.53871  -0.53871
 Alpha  occ. eigenvalues --   -0.53571  -0.53571
 Alpha virt. eigenvalues --    0.17559   0.18212   0.20694   0.20694   0.21203
 Alpha virt. eigenvalues --    0.21203   0.33158   0.37579   0.39576   0.39576
 Alpha virt. eigenvalues --    0.40123   0.40123   0.54534   0.54781   0.63136

 Mulliken charges:
               1
     1  O   -0.282256
     2  C    0.527518
     3  O   -0.245262
     4  O   -0.245262
     5  C    0.527518
     6  O   -0.282256
 Sum of Mulliken charges =  -0.00000

 Dipole moment (field-independent basis, Debye):
    X=             -0.0000    Y=             -0.0000    Z=             -0.0000  Tot=              0.0000
 Quadrupole moment (field-independent basis, Debye-Ang):
   XX=            -29.4024   YY=            -29.4024   ZZ=            -40.4792
   XY=              0.0000   XZ=              0.0000   YZ=              0.0000

 65232\CCSD(T)=-376.6538858\RMSD=4.675e-09\PG=D*H [C*(O1C1O1.O1C1O1)]\\
 Normal termination of Gaussian 16 at Sat Feb 10 18:11:21 2024.
