 Gaussian 16, Revision A.03,
 Gaussian 16:  ES64L-G16RevA.03 25-Dec-2016

 ------------------
 #p CCSD(T)/cc-pVTZ
 ------------------

 -----------
 CO2_CO2_101
 -----------
 Symbolic Z-matrix:
 Charge =  0 Multiplicity = 1

                         Standard orientation:
 ---------------------------------------------------------------------
 Center     Atomic      Atomic             Coordinates (Angstroms)
 Number     Number       Type             X           Y           Z
 ---------------------------------------------------------------------
      1          8           0       -1.744500   -1.741500    0.000000
      2          6           0       -0.581500   -1.741500    0.000000
      3          8           0        0.581500   -1.741500    0.000000
      4          8           0        0.581500    0.578500    0.000000
      5          6           0        0.581500    1.741500    0.000000
      6          8           0        0.581500    2.904500    0.000000
 ---------------------------------------------------------------------

 SCF Done:  E(RHF) =  -375.399647249     A.U. after   13 cycles
 E2 =    -0.1208255421D+01 EUMP2 =    -0.37660790266993D+03
 CCSD(T)
 CCSD(T)= -0.37664538233D+03

 The electronic state is 1-A'.
 Alpha  occ. eigenvalues --  -20.65509 -20.65218 -20.64037 -20.63278 -11.46419
 Alpha  occ. eigenvalues --  -11.44775  -1.53426  -1.51669  -1.48088  -1.46303
 Alpha  occ. eigenvalues --   -0.81569  -0.78837  -0.75796  -0.72997  -0.71895
 Alpha  occ. eigenvalues --   -0.71710  -0.70100  -0.68567  -0.54939  -0.54817
 Alpha  occ. eigenvalues --   -0.52977  -0.52689
 Alpha virt. eigenvalues --    0.16034   0.19274   0.19926   0.20026   0.21449
 Alpha virt. eigenvalues --    0.23013   0.34203   0.35517   0.37254   0.39646
 Alpha virt. eigenvalues --    0.42391   0.47391   0.53059   0.57983   0.66658

 Mulliken charges:
               1
     1  O   -0.281628
     2  C    0.537305
     3  O   -0.263343
     4  O   -0.244746
     5  C    0.533726
     6  O   -0.281315
 Sum of Mulliken charges =  -0.00000

 Dipole moment (field-independent basis, Debye):
    X=              0.2034    Y=              0.2274    Z=              0.0000  Tot=              0.3051
 Quadrupole moment (field-independent basis, Debye-Ang):
   XX=            -34.6265   YY=            -34.9063   ZZ=            -29.3930
   XY=             -0.0800   XZ=              0.0000   YZ=              0.0000

 5215\CCSD(T)=-376.6453823\RMSD=3.113e-09\PG=CS [SG(C2O4)]\\@
 Normal termination of Gaussian 16 at Sat Feb 10 03:29:28 2024.
