 Gaussian 16, Revision A.03,
 Gaussian 16:  ES64L-G16RevA.03 25-Dec-2016

 ------------------
 #p CCSD(T)/cc-pVTZ
 ------------------

 -----------
 CO2_CO2_222
 -----------
 Symbolic Z-matrix:
 Charge =  0 Multiplicity = 1

                         Standard orientation:
 ---------------------------------------------------------------------
 Center     Atomic      Atomic             Coordinates (Angstroms)
 Number     Number       Type             X           Y           Z
 ---------------------------------------------------------------------
      1          8           0        0.000000    0.000000    4.306000
      2          6           0        0.000000    0.000000    3.143000
      3          8           0        0.000000    0.000000    1.980000
      4          8           0        0.000000    0.000000   -1.980000
      5          6           0        0.000000    0.000000   -3.143000
      6          8           0        0.000000    0.000000   -4.306000
 ---------------------------------------------------------------------

 SCF Done:  E(RHF) =  -375.412803032     A.U. after   10 cycles
 E2 =    -0.1203677047D+01 EUMP2 =    -0.37661648007926D+03
 CCSD(T)
 CCSD(T)= -0.37665434969D+03

 The electronic state is 1-SGG.
 Alpha  occ. eigenvalues --  -20.64748 -20.64748 -20.64712 -20.64712 -11.45697
 Alpha  occ. eigenvalues --  -11.45697  -1.52526  -1.52523  -1.47223  -1.47220
 Alpha  occ. eigenvalues --   -0.79664  -0.79558  -0.73859  -0.73720  -0.71005
 Alpha  occ. eigenvalues --   -0.71005  -0.70997  -0.70997  -0.53978  -0.53978
 Alpha  occ. eigenvalues --   -0.53956  -0.53956
 Alpha virt. eigenvalues --    0.17399   0.17903   0.20725   0.20725   0.20770
 Alpha virt. eigenvalues --    0.20770   0.32448   0.36062   0.39702   0.39702
 Alpha virt. eigenvalues --    0.39751   0.39751   0.54959   0.54982   0.61222

 Mulliken charges:
               1
     1  O   -0.271003
     2  C    0.534614
     3  O   -0.263611
     4  O   -0.263611
     5  C    0.534614
     6  O   -0.271003
 Sum of Mulliken charges =   0.00000

 Dipole moment (field-independent basis, Debye):
    X=             -0.0000    Y=              0.0000    Z=              0.0000  Tot=              0.0000
 Quadrupole moment (field-independent basis, Debye-Ang):
   XX=            -29.3928   YY=            -29.3928   ZZ=            -40.0938
   XY=              0.0000   XZ=              0.0000   YZ=             -0.0000

 91\CCSD(T)=-376.6543497\RMSD=4.693e-09\PG=D*H [C*(O1C1O1.O1C1O1)]\\@
 Normal termination of Gaussian 16 at Sun Feb 11 00:59:42 2024.
