 Gaussian 16, Revision A.03,
 Gaussian 16:  ES64L-G16RevA.03 25-Dec-2016

 ------------------
 #p CCSD(T)/cc-pVTZ
 ------------------

 ----------
 CO2_CO2_40
 ----------
 Symbolic Z-matrix:
 Charge =  0 Multiplicity = 1

                         Standard orientation:
 ---------------------------------------------------------------------
 Center     Atomic      Atomic             Coordinates (Angstroms)
 Number     Number       Type             X           Y           Z
 ---------------------------------------------------------------------
      1          8           0        1.233548   -2.575048    0.000000
      2          6           0        0.411183   -1.752683    0.000000
      3          8           0       -0.411183   -0.930317   -0.000000
      4          8           0       -0.411183    0.589682   -0.000000
      5          6           0       -0.411183    1.752682   -0.000000
      6          8           0       -0.411183    2.915683   -0.000000
 ---------------------------------------------------------------------

 SCF Done:  E(RHF) =  -375.186734893     A.U. after   14 cycles
 E2 =    -0.1235311954D+01 EUMP2 =    -0.37642204684676D+03
 CCSD(T)
 CCSD(T)= -0.37645365056D+03

 The electronic state is 1-A'.
 Alpha  occ. eigenvalues --  -20.64249 -20.62398 -20.62203 -20.62048 -11.43982
 Alpha  occ. eigenvalues --  -11.42381  -1.55674  -1.50560  -1.47802  -1.44314
 Alpha  occ. eigenvalues --   -0.96263  -0.76630  -0.75155  -0.73125  -0.72657
 Alpha  occ. eigenvalues --   -0.68892  -0.68519  -0.60095  -0.56405  -0.53239
 Alpha  occ. eigenvalues --   -0.50058  -0.43348
 Alpha virt. eigenvalues --    0.16205   0.19199   0.19673   0.20678   0.23124
 Alpha virt. eigenvalues --    0.23676   0.34027   0.36563   0.37685   0.39107
 Alpha virt. eigenvalues --    0.42839   0.46545   0.53907   0.58697   0.67974

 Mulliken charges:
               1
     1  O   -0.308496
     2  C    0.490178
     3  O   -0.194910
     4  O   -0.197223
     5  C    0.519172
     6  O   -0.308722
 Sum of Mulliken charges =  -0.00000

 Dipole moment (field-independent basis, Debye):
    X=             -0.3450    Y=              0.4758    Z=             -0.0000  Tot=              0.5877
 Quadrupole moment (field-independent basis, Debye-Ang):
   XX=            -32.1951   YY=            -40.3678   ZZ=            -29.2691
   XY=              3.1860   XZ=             -0.0000   YZ=             -0.0000

 =-376.4039311\CCSD=-376.392678\CCSD(T)=-376.4536506\RMSD=7.369e-09\PG=
 Normal termination of Gaussian 16 at Fri Feb  9 22:20:40 2024.
