 Gaussian 16, Revision A.03,
 Gaussian 16:  ES64L-G16RevA.03 25-Dec-2016

 ------------------
 #p CCSD(T)/cc-pVTZ
 ------------------

 -----------
 CO2_CO2_219
 -----------
 Symbolic Z-matrix:
 Charge =  0 Multiplicity = 1

                         Standard orientation:
 ---------------------------------------------------------------------
 Center     Atomic      Atomic             Coordinates (Angstroms)
 Number     Number       Type             X           Y           Z
 ---------------------------------------------------------------------
      1          8           0        0.000000    0.000000    4.286000
      2          6           0        0.000000    0.000000    3.123000
      3          8           0        0.000000    0.000000    1.960000
      4          8           0        0.000000    0.000000   -1.960000
      5          6           0        0.000000    0.000000   -3.123000
      6          8           0        0.000000    0.000000   -4.286000
 ---------------------------------------------------------------------

 SCF Done:  E(RHF) =  -375.412792070     A.U. after   10 cycles
 E2 =    -0.1203696962D+01 EUMP2 =    -0.37661648903121D+03
 CCSD(T)
 CCSD(T)= -0.37665435587D+03

 The electronic state is 1-SGG.
 Alpha  occ. eigenvalues --  -20.64743 -20.64743 -20.64707 -20.64707 -11.45692
 Alpha  occ. eigenvalues --  -11.45692  -1.52521  -1.52518  -1.47218  -1.47214
 Alpha  occ. eigenvalues --   -0.79664  -0.79547  -0.73859  -0.73707  -0.71001
 Alpha  occ. eigenvalues --   -0.71001  -0.70991  -0.70991  -0.53974  -0.53974
 Alpha  occ. eigenvalues --   -0.53950  -0.53950
 Alpha virt. eigenvalues --    0.17393   0.17913   0.20727   0.20727   0.20778
 Alpha virt. eigenvalues --    0.20778   0.32388   0.36123   0.39703   0.39703
 Alpha virt. eigenvalues --    0.39757   0.39757   0.54954   0.54997   0.60946

 Mulliken charges:
               1
     1  O   -0.271134
     2  C    0.534583
     3  O   -0.263448
     4  O   -0.263448
     5  C    0.534583
     6  O   -0.271134
 Sum of Mulliken charges =   0.00000

 Dipole moment (field-independent basis, Debye):
    X=             -0.0000    Y=             -0.0000    Z=             -0.0000  Tot=              0.0000
 Quadrupole moment (field-independent basis, Debye-Ang):
   XX=            -29.3929   YY=            -29.3929   ZZ=            -40.1014
   XY=              0.0000   XZ=              0.0000   YZ=             -0.0000

 1724\CCSD(T)=-376.6543559\RMSD=4.691e-09\PG=D*H [C*(O1C1O1.O1C1O1)]\\@
 Normal termination of Gaussian 16 at Sun Feb 11 00:45:00 2024.
