 Gaussian 16, Revision A.03,
 Gaussian 16:  ES64L-G16RevA.03 25-Dec-2016

 ------------------
 #p CCSD(T)/cc-pVTZ
 ------------------

 -----------
 CO2_CO2_255
 -----------
 Symbolic Z-matrix:
 Charge =  0 Multiplicity = 1

                         Standard orientation:
 ---------------------------------------------------------------------
 Center     Atomic      Atomic             Coordinates (Angstroms)
 Number     Number       Type             X           Y           Z
 ---------------------------------------------------------------------
      1          8           0        0.000000    0.000000    4.526000
      2          6           0        0.000000    0.000000    3.363000
      3          8           0        0.000000    0.000000    2.200000
      4          8           0        0.000000    0.000000   -2.200000
      5          6           0        0.000000    0.000000   -3.363000
      6          8           0        0.000000    0.000000   -4.526000
 ---------------------------------------------------------------------

 SCF Done:  E(RHF) =  -375.412888060     A.U. after   10 cycles
 E2 =    -0.1203517466D+01 EUMP2 =    -0.37661640552666D+03
 CCSD(T)
 CCSD(T)= -0.37665429959D+03

 The electronic state is 1-SGG.
 Alpha  occ. eigenvalues --  -20.64793 -20.64793 -20.64764 -20.64764 -11.45749
 Alpha  occ. eigenvalues --  -11.45749  -1.52573  -1.52572  -1.47271  -1.47270
 Alpha  occ. eigenvalues --   -0.79685  -0.79648  -0.73872  -0.73823  -0.71050
 Alpha  occ. eigenvalues --   -0.71050  -0.71047  -0.71047  -0.54021  -0.54021
 Alpha  occ. eigenvalues --   -0.54014  -0.54014
 Alpha virt. eigenvalues --    0.17483   0.17784   0.20697   0.20697   0.20709
 Alpha virt. eigenvalues --    0.20709   0.33223   0.35369   0.39683   0.39683
 Alpha virt. eigenvalues --    0.39699   0.39699   0.54897   0.54971   0.63913

 Mulliken charges:
               1
     1  O   -0.270137
     2  C    0.535003
     3  O   -0.264865
     4  O   -0.264865
     5  C    0.535003
     6  O   -0.270137
 Sum of Mulliken charges =   0.00000

 Dipole moment (field-independent basis, Debye):
    X=             -0.0000    Y=              0.0000    Z=              0.0000  Tot=              0.0000
 Quadrupole moment (field-independent basis, Debye-Ang):
   XX=            -29.3916   YY=            -29.3916   ZZ=            -40.0225
   XY=              0.0000   XZ=              0.0000   YZ=             -0.0000

 41\CCSD(T)=-376.6542996\RMSD=4.695e-09\PG=D*H [C*(O1C1O1.O1C1O1)]\\@
 Normal termination of Gaussian 16 at Mon Feb 12 20:21:19 2024.
