 Gaussian 16, Revision A.03,
 Gaussian 16:  ES64L-G16RevA.03 25-Dec-2016

 ------------------
 #p CCSD(T)/cc-pVTZ
 ------------------

 -----------
 CO2_CO2_211
 -----------
 Symbolic Z-matrix:
 Charge =  0 Multiplicity = 1

                         Standard orientation:
 ---------------------------------------------------------------------
 Center     Atomic      Atomic             Coordinates (Angstroms)
 Number     Number       Type             X           Y           Z
 ---------------------------------------------------------------------
      1          8           0        1.233548   -3.715048    0.000000
      2          6           0        0.411183   -2.892683    0.000000
      3          8           0       -0.411183   -2.070317    0.000000
      4          8           0       -0.411183    1.729683    0.000000
      5          6           0       -0.411183    2.892683    0.000000
      6          8           0       -0.411183    4.055682    0.000000
 ---------------------------------------------------------------------

 SCF Done:  E(RHF) =  -375.412886666     A.U. after   11 cycles
 E2 =    -0.1203730621D+01 EUMP2 =    -0.37661661728681D+03
 CCSD(T)
 CCSD(T)= -0.37665448476D+03

 The electronic state is 1-A'.
 Alpha  occ. eigenvalues --  -20.64849 -20.64825 -20.64714 -20.64674 -11.45806
 Alpha  occ. eigenvalues --  -11.45663  -1.52631  -1.52486  -1.47329  -1.47184
 Alpha  occ. eigenvalues --   -0.79746  -0.79557  -0.73938  -0.73724  -0.71108
 Alpha  occ. eigenvalues --   -0.71107  -0.70964  -0.70956  -0.54077  -0.54077
 Alpha  occ. eigenvalues --   -0.53931  -0.53923
 Alpha virt. eigenvalues --    0.17233   0.17971   0.20639   0.20642   0.20784
 Alpha virt. eigenvalues --    0.20791   0.31952   0.36398   0.39574   0.39595
 Alpha virt. eigenvalues --    0.39794   0.40004   0.54866   0.54990   0.62081

 Mulliken charges:
               1
     1  O   -0.271488
     2  C    0.534947
     3  O   -0.263365
     4  O   -0.264701
     5  C    0.535178
     6  O   -0.270570
 Sum of Mulliken charges =  -0.00000

 Dipole moment (field-independent basis, Debye):
    X=             -0.0272    Y=              0.0069    Z=              0.0000  Tot=              0.0281
 Quadrupole moment (field-independent basis, Debye-Ang):
   XX=            -31.9743   YY=            -37.4164   ZZ=            -29.3923
   XY=              2.6223   XZ=              0.0000   YZ=              0.0000

 Q=-376.6054958\CCSD=-376.5972956\CCSD(T)=-376.6544848\RMSD=2.708e-09\P
 Normal termination of Gaussian 16 at Sun Feb 11 00:08:04 2024.
