 Gaussian 16, Revision A.03,
 Gaussian 16:  ES64L-G16RevA.03 25-Dec-2016

 ------------------
 #p CCSD(T)/cc-pVTZ
 ------------------

 -----------
 CO2_CO2_216
 -----------
 Symbolic Z-matrix:
 Charge =  0 Multiplicity = 1

                         Standard orientation:
 ---------------------------------------------------------------------
 Center     Atomic      Atomic             Coordinates (Angstroms)
 Number     Number       Type             X           Y           Z
 ---------------------------------------------------------------------
      1          8           0        0.000000    0.000000    4.266000
      2          6           0        0.000000    0.000000    3.103000
      3          8           0        0.000000    0.000000    1.940000
      4          8           0        0.000000    0.000000   -1.940000
      5          6           0        0.000000    0.000000   -3.103000
      6          8           0        0.000000    0.000000   -4.266000
 ---------------------------------------------------------------------

 SCF Done:  E(RHF) =  -375.412780235     A.U. after   10 cycles
 E2 =    -0.1203717971D+01 EUMP2 =    -0.37661649820596D+03
 CCSD(T)
 CCSD(T)= -0.37665436219D+03

 The electronic state is 1-SGG.
 Alpha  occ. eigenvalues --  -20.64738 -20.64738 -20.64701 -20.64701 -11.45686
 Alpha  occ. eigenvalues --  -11.45686  -1.52516  -1.52512  -1.47213  -1.47209
 Alpha  occ. eigenvalues --   -0.79663  -0.79535  -0.73859  -0.73693  -0.70996
 Alpha  occ. eigenvalues --   -0.70996  -0.70985  -0.70985  -0.53970  -0.53970
 Alpha  occ. eigenvalues --   -0.53943  -0.53943
 Alpha virt. eigenvalues --    0.17389   0.17923   0.20730   0.20730   0.20785
 Alpha virt. eigenvalues --    0.20785   0.32333   0.36183   0.39705   0.39705
 Alpha virt. eigenvalues --    0.39763   0.39763   0.54949   0.55014   0.60672

 Mulliken charges:
               1
     1  O   -0.271279
     2  C    0.534552
     3  O   -0.263273
     4  O   -0.263273
     5  C    0.534552
     6  O   -0.271279
 Sum of Mulliken charges =   0.00000

 Dipole moment (field-independent basis, Debye):
    X=             -0.0000    Y=             -0.0000    Z=              0.0000  Tot=              0.0000
 Quadrupole moment (field-independent basis, Debye-Ang):
   XX=            -29.3930   YY=            -29.3930   ZZ=            -40.1093
   XY=              0.0000   XZ=              0.0000   YZ=             -0.0000

 758\CCSD(T)=-376.6543622\RMSD=4.688e-09\PG=D*H [C*(O1C1O1.O1C1O1)]\\@
 Normal termination of Gaussian 16 at Sun Feb 11 00:31:24 2024.
