 Gaussian 16, Revision A.03,
 Gaussian 16:  ES64L-G16RevA.03 25-Dec-2016

 ------------------
 #p CCSD(T)/cc-pVTZ
 ------------------

 -----------
 CO2_CO2_121
 -----------
 Symbolic Z-matrix:
 Charge =  0 Multiplicity = 1

                         Standard orientation:
 ---------------------------------------------------------------------
 Center     Atomic      Atomic             Coordinates (Angstroms)
 Number     Number       Type             X           Y           Z
 ---------------------------------------------------------------------
      1          8           0        1.233548   -3.115048    0.000000
      2          6           0        0.411183   -2.292683    0.000000
      3          8           0       -0.411183   -1.470318    0.000000
      4          8           0       -0.411183    1.129683   -0.000000
      5          6           0       -0.411183    2.292683   -0.000000
      6          8           0       -0.411183    3.455682   -0.000000
 ---------------------------------------------------------------------

 SCF Done:  E(RHF) =  -375.408890854     A.U. after   11 cycles
 E2 =    -0.1205878861D+01 EUMP2 =    -0.37661476971531D+03
 CCSD(T)
 CCSD(T)= -0.37665238060D+03

 The electronic state is 1-A'.
 Alpha  occ. eigenvalues --  -20.64661 -20.64481 -20.64385 -20.64182 -11.45531
 Alpha  occ. eigenvalues --  -11.45255  -1.52449  -1.52123  -1.47156  -1.46794
 Alpha  occ. eigenvalues --   -0.80487  -0.78634  -0.74515  -0.72442  -0.70949
 Alpha  occ. eigenvalues --   -0.70912  -0.70581  -0.70382  -0.54019  -0.53947
 Alpha  occ. eigenvalues --   -0.53415  -0.53392
 Alpha virt. eigenvalues --    0.17069   0.18642   0.20625   0.20794   0.21097
 Alpha virt. eigenvalues --    0.21256   0.33260   0.36740   0.39075   0.39293
 Alpha virt. eigenvalues --    0.40503   0.42189   0.54212   0.55431   0.64390

 Mulliken charges:
               1
     1  O   -0.279517
     2  C    0.528763
     3  O   -0.249519
     4  O   -0.241216
     5  C    0.525816
     6  O   -0.284327
 Sum of Mulliken charges =  -0.00000

 Dipole moment (field-independent basis, Debye):
    X=             -0.0764    Y=              0.0281    Z=              0.0000  Tot=              0.0814
 Quadrupole moment (field-independent basis, Debye-Ang):
   XX=            -32.0064   YY=            -37.8810   ZZ=            -29.4050
   XY=              2.7048   XZ=             -0.0000   YZ=              0.0000

 Q=-376.6032463\CCSD=-376.5948893\CCSD(T)=-376.6523806\RMSD=4.112e-09\P
 Normal termination of Gaussian 16 at Sat Feb 10 16:48:26 2024.
