 Gaussian 16, Revision A.03,
 Gaussian 16:  ES64L-G16RevA.03 25-Dec-2016

 ------------------
 #p CCSD(T)/cc-pVTZ
 ------------------

 ----------
 CO2_CO2_54
 ----------
 Symbolic Z-matrix:
 Charge =  0 Multiplicity = 1

                         Standard orientation:
 ---------------------------------------------------------------------
 Center     Atomic      Atomic             Coordinates (Angstroms)
 Number     Number       Type             X           Y           Z
 ---------------------------------------------------------------------
      1          8           0        0.000000    0.000000    3.186000
      2          6           0        0.000000    0.000000    2.023000
      3          8           0        0.000000    0.000000    0.860000
      4          8           0        0.000000    0.000000   -0.860000
      5          6           0        0.000000    0.000000   -2.023000
      6          8           0        0.000000    0.000000   -3.186000
 ---------------------------------------------------------------------

 SCF Done:  E(RHF) =  -375.306202444     A.U. after   10 cycles
 E2 =    -0.1218532493D+01 EUMP2 =    -0.37652473493694D+03
 CCSD(T)
 CCSD(T)= -0.37655984502D+03

 The electronic state is 1-SGG.
 Alpha  occ. eigenvalues --  -20.63732 -20.63732 -20.61930 -20.61929 -11.43840
 Alpha  occ. eigenvalues --  -11.43840  -1.52737  -1.50911  -1.47364  -1.45108
 Alpha  occ. eigenvalues --   -0.90748  -0.76505  -0.75366  -0.71068  -0.71068
 Alpha  occ. eigenvalues --   -0.69124  -0.69124  -0.58810  -0.54967  -0.54967
 Alpha  occ. eigenvalues --   -0.50974  -0.50974
 Alpha virt. eigenvalues --    0.17207   0.19536   0.19873   0.19873   0.23335
 Alpha virt. eigenvalues --    0.23335   0.32295   0.38563   0.38563   0.40045
 Alpha virt. eigenvalues --    0.41602   0.41602   0.53152   0.57847   0.68645

 Mulliken charges:
               1
     1  O   -0.313155
     2  C    0.518441
     3  O   -0.205286
     4  O   -0.205286
     5  C    0.518441
     6  O   -0.313155
 Sum of Mulliken charges =  -0.00000

 Dipole moment (field-independent basis, Debye):
    X=             -0.0000    Y=              0.0000    Z=             -0.0000  Tot=              0.0000
 Quadrupole moment (field-independent basis, Debye-Ang):
   XX=            -29.3687   YY=            -29.3687   ZZ=            -42.0855
   XY=              0.0000   XZ=              0.0000   YZ=              0.0000

 9815\CCSD(T)=-376.559845\RMSD=8.885e-09\PG=D*H [C*(O1C1O1.O1C1O1)]\\@
 Normal termination of Gaussian 16 at Fri Feb  9 23:31:54 2024.
