 Gaussian 16, Revision A.03,
 Gaussian 16:  ES64L-G16RevA.03 25-Dec-2016

 ------------------
 #p CCSD(T)/cc-pVTZ
 ------------------

 -----------
 CO2_CO2_172
 -----------
 Symbolic Z-matrix:
 Charge =  0 Multiplicity = 1

                         Standard orientation:
 ---------------------------------------------------------------------
 Center     Atomic      Atomic             Coordinates (Angstroms)
 Number     Number       Type             X           Y           Z
 ---------------------------------------------------------------------
      1          8           0        1.233548   -3.455048    0.000000
      2          6           0        0.411183   -2.632683    0.000000
      3          8           0       -0.411183   -1.810317    0.000000
      4          8           0       -0.411183    1.469682    0.000000
      5          6           0       -0.411183    2.632682    0.000000
      6          8           0       -0.411183    3.795683    0.000000
 ---------------------------------------------------------------------

 SCF Done:  E(RHF) =  -375.412540532     A.U. after   11 cycles
 E2 =    -0.1204199642D+01 EUMP2 =    -0.37661674017374D+03
 CCSD(T)
 CCSD(T)= -0.37665455664D+03

 The electronic state is 1-A'.
 Alpha  occ. eigenvalues --  -20.64793 -20.64749 -20.64622 -20.64555 -11.45733
 Alpha  occ. eigenvalues --  -11.45552  -1.52570  -1.52384  -1.47267  -1.47079
 Alpha  occ. eigenvalues --   -0.79795  -0.79345  -0.74003  -0.73463  -0.71050
 Alpha  occ. eigenvalues --   -0.71049  -0.70863  -0.70843  -0.54026  -0.54020
 Alpha  occ. eigenvalues --   -0.53813  -0.53801
 Alpha virt. eigenvalues --    0.17168   0.18181   0.20672   0.20685   0.20880
 Alpha virt. eigenvalues --    0.20895   0.32116   0.36756   0.39507   0.39509
 Alpha virt. eigenvalues --    0.39969   0.40576   0.54871   0.55118   0.60899

 Mulliken charges:
               1
     1  O   -0.274175
     2  C    0.533284
     3  O   -0.259005
     4  O   -0.260018
     5  C    0.534082
     6  O   -0.274169
 Sum of Mulliken charges =  -0.00000

 Dipole moment (field-independent basis, Debye):
    X=             -0.0407    Y=              0.0097    Z=              0.0000  Tot=              0.0419
 Quadrupole moment (field-independent basis, Debye-Ang):
   XX=            -31.9802   YY=            -37.5374   ZZ=            -29.3948
   XY=              2.6442   XZ=             -0.0000   YZ=              0.0000

 -376.6055347\CCSD=-376.5972987\CCSD(T)=-376.6545566\RMSD=3.066e-09\PG=
 Normal termination of Gaussian 16 at Sat Feb 10 20:54:15 2024.
