 Gaussian 16, Revision A.03,
 Gaussian 16:  ES64L-G16RevA.03 25-Dec-2016

 ------------------
 #p CCSD(T)/cc-pVTZ
 ------------------

 -----------
 CO2_CO2_146
 -----------
 Symbolic Z-matrix:
 Charge =  0 Multiplicity = 1

                         Standard orientation:
 ---------------------------------------------------------------------
 Center     Atomic      Atomic             Coordinates (Angstroms)
 Number     Number       Type             X           Y           Z
 ---------------------------------------------------------------------
      1          8           0       -1.744500   -2.041500    0.000000
      2          6           0       -0.581500   -2.041500    0.000000
      3          8           0        0.581500   -2.041500    0.000000
      4          8           0        0.581500    0.878500    0.000000
      5          6           0        0.581500    2.041500    0.000000
      6          8           0        0.581500    3.204500    0.000000
 ---------------------------------------------------------------------

 SCF Done:  E(RHF) =  -375.412554862     A.U. after   12 cycles
 E2 =    -0.1204812405D+01 EUMP2 =    -0.37661736726694D+03
 CCSD(T)
 CCSD(T)= -0.37665521271D+03

 The electronic state is 1-A'.
 Alpha  occ. eigenvalues --  -20.65377 -20.65358 -20.64370 -20.64168 -11.46367
 Alpha  occ. eigenvalues --  -11.45277  -1.53182  -1.52084  -1.47884  -1.46782
 Alpha  occ. eigenvalues --   -0.80433  -0.79227  -0.74726  -0.73384  -0.71654
 Alpha  occ. eigenvalues --   -0.71652  -0.70573  -0.70295  -0.54651  -0.54645
 Alpha  occ. eigenvalues --   -0.53545  -0.53500
 Alpha virt. eigenvalues --    0.16363   0.19051   0.19825   0.20079   0.21157
 Alpha virt. eigenvalues --    0.21948   0.34456   0.34528   0.38183   0.39168
 Alpha virt. eigenvalues --    0.41020   0.44923   0.54099   0.56542   0.64502

 Mulliken charges:
               1
     1  O   -0.274249
     2  C    0.535764
     3  O   -0.264002
     4  O   -0.261991
     5  C    0.538775
     6  O   -0.274298
 Sum of Mulliken charges =  -0.00000

 Dipole moment (field-independent basis, Debye):
    X=              0.1002    Y=              0.1290    Z=              0.0000  Tot=              0.1633
 Quadrupole moment (field-independent basis, Debye-Ang):
   XX=            -34.5896   YY=            -34.5934   ZZ=            -29.3912
   XY=             -0.0418   XZ=              0.0000   YZ=              0.0000

 8465\CCSD(T)=-376.6552127\RMSD=8.016e-09\PG=CS [SG(C2O4)]\\@
 Normal termination of Gaussian 16 at Sat Feb 10 18:50:12 2024.
