 Gaussian 16, Revision A.03,
 Gaussian 16:  ES64L-G16RevA.03 25-Dec-2016

 ------------------
 #p CCSD(T)/cc-pVTZ
 ------------------

 ----------
 CO2_CO2_13
 ----------
 Symbolic Z-matrix:
 Charge =  0 Multiplicity = 1

                         Standard orientation:
 ---------------------------------------------------------------------
 Center     Atomic      Atomic             Coordinates (Angstroms)
 Number     Number       Type             X           Y           Z
 ---------------------------------------------------------------------
      1          8           0        1.233548   -2.395048   -0.000000
      2          6           0        0.411183   -1.572683   -0.000000
      3          8           0       -0.411183   -0.750317   -0.000000
      4          8           0       -0.411183    0.409683    0.000000
      5          6           0       -0.411183    1.572683    0.000000
      6          8           0       -0.411183    2.735682    0.000000
 ---------------------------------------------------------------------

 SCF Done:  E(RHF) =  -374.719978692     A.U. after   19 cycles
 E2 =    -0.1277231156D+01 EUMP2 =    -0.37599720984800D+03
 CCSD(T)
 CCSD(T)= -0.37602817258D+03

 The electronic state is 1-A'.
 Alpha  occ. eigenvalues --  -20.73879 -20.72137 -20.68078 -20.54925 -11.49925
 Alpha  occ. eigenvalues --  -11.32468  -1.80134  -1.53824  -1.48158  -1.40073
 Alpha  occ. eigenvalues --   -1.16188  -0.88207  -0.87802  -0.79878  -0.70927
 Alpha  occ. eigenvalues --   -0.69704  -0.67753  -0.59297  -0.58395  -0.53342
 Alpha  occ. eigenvalues --   -0.48279  -0.19285
 Alpha virt. eigenvalues --    0.13499   0.14245   0.14270   0.18260   0.25623
 Alpha virt. eigenvalues --    0.28330   0.33021   0.35238   0.36099   0.38584
 Alpha virt. eigenvalues --    0.45675   0.49783   0.54390   0.62152   0.66763

 Mulliken charges:
               1
     1  O   -0.365272
     2  C    0.176857
     3  O   -0.077821
     4  O    0.099730
     5  C    0.382022
     6  O   -0.215517
 Sum of Mulliken charges =  -0.00000

 Dipole moment (field-independent basis, Debye):
    X=             -1.8016    Y=              3.6429    Z=              0.0000  Tot=              4.0640
 Quadrupole moment (field-independent basis, Debye-Ang):
   XX=            -33.4456   YY=            -46.0116   ZZ=            -29.1657
   XY=              4.3507   XZ=             -0.0000   YZ=             -0.0000

 =-375.9715131\CCSD=-375.9575517\CCSD(T)=-376.0281726\RMSD=8.746e-09\PG
 Normal termination of Gaussian 16 at Fri Feb  9 19:57:20 2024.
