 Gaussian 16, Revision A.03,
 Gaussian 16:  ES64L-G16RevA.03 25-Dec-2016

 ------------------
 #p CCSD(T)/cc-pVTZ
 ------------------

 ----------
 CO2_CO2_53
 ----------
 Symbolic Z-matrix:
 Charge =  0 Multiplicity = 1

                         Standard orientation:
 ---------------------------------------------------------------------
 Center     Atomic      Atomic             Coordinates (Angstroms)
 Number     Number       Type             X           Y           Z
 ---------------------------------------------------------------------
      1          8           0       -1.744500   -1.421500    0.000000
      2          6           0       -0.581500   -1.421500    0.000000
      3          8           0        0.581500   -1.421500    0.000000
      4          8           0        0.581500    0.258500    0.000000
      5          6           0        0.581500    1.421500    0.000000
      6          8           0        0.581500    2.584500    0.000000
 ---------------------------------------------------------------------

 SCF Done:  E(RHF) =  -375.258856816     A.U. after   14 cycles
 E2 =    -0.1226817979D+01 EUMP2 =    -0.37648567479458D+03
 CCSD(T)
 CCSD(T)= -0.37652016944D+03

 The electronic state is 1-A'.
 Alpha  occ. eigenvalues --  -20.65486 -20.63639 -20.63517 -20.60935 -11.45632
 Alpha  occ. eigenvalues --  -11.43707  -1.55778  -1.51298  -1.48454  -1.44964
 Alpha  occ. eigenvalues --   -0.88528  -0.79188  -0.77038  -0.73860  -0.73161
 Alpha  occ. eigenvalues --   -0.70294  -0.69048  -0.63647  -0.56253  -0.54596
 Alpha  occ. eigenvalues --   -0.51145  -0.46064
 Alpha virt. eigenvalues --    0.15701   0.17990   0.19658   0.21792   0.21888
 Alpha virt. eigenvalues --    0.24356   0.33428   0.36596   0.36954   0.40753
 Alpha virt. eigenvalues --    0.43774   0.47103   0.54123   0.58531   0.65321

 Mulliken charges:
               1
     1  O   -0.289761
     2  C    0.507177
     3  O   -0.232615
     4  O   -0.224698
     5  C    0.527520
     6  O   -0.287624
 Sum of Mulliken charges =   0.00000

 Dipole moment (field-independent basis, Debye):
    X=              0.4615    Y=              0.3721    Z=              0.0000  Tot=              0.5928
 Quadrupole moment (field-independent basis, Debye-Ang):
   XX=            -34.5807   YY=            -36.0058   ZZ=            -29.3035
   XY=             -0.2588   XZ=              0.0000   YZ=              0.0000

 99\CCSD(T)=-376.5201694\RMSD=5.571e-09\PG=CS [SG(C2O4)]\\@
 Normal termination of Gaussian 16 at Fri Feb  9 23:29:30 2024.
