 Gaussian 16, Revision A.03,
 Gaussian 16:  ES64L-G16RevA.03 25-Dec-2016

 ------------------
 #p CCSD(T)/cc-pVTZ
 ------------------

 -----------
 CO2_CO2_236
 -----------
 Symbolic Z-matrix:
 Charge =  0 Multiplicity = 1

                         Standard orientation:
 ---------------------------------------------------------------------
 Center     Atomic      Atomic             Coordinates (Angstroms)
 Number     Number       Type             X           Y           Z
 ---------------------------------------------------------------------
      1          8           0       -1.744500   -2.641500    0.000000
      2          6           0       -0.581500   -2.641500    0.000000
      3          8           0        0.581500   -2.641500    0.000000
      4          8           0        0.581500    1.478500    0.000000
      5          6           0        0.581500    2.641500    0.000000
      6          8           0        0.581500    3.804500    0.000000
 ---------------------------------------------------------------------

 SCF Done:  E(RHF) =  -375.413453833     A.U. after   10 cycles
 E2 =    -0.1203455082D+01 EUMP2 =    -0.37661690891519D+03
 CCSD(T)
 CCSD(T)= -0.37665483693D+03

 The electronic state is 1-A'.
 Alpha  occ. eigenvalues --  -20.65200 -20.65168 -20.64679 -20.64646 -11.46171
 Alpha  occ. eigenvalues --  -11.45649  -1.52974  -1.52454  -1.47676  -1.47156
 Alpha  occ. eigenvalues --   -0.80099  -0.79577  -0.74288  -0.73764  -0.71447
 Alpha  occ. eigenvalues --   -0.71445  -0.70935  -0.70914  -0.54430  -0.54429
 Alpha  occ. eigenvalues --   -0.53915  -0.53904
 Alpha virt. eigenvalues --    0.16674   0.18116   0.20272   0.20310   0.20821
 Alpha virt. eigenvalues --    0.20895   0.32608   0.34836   0.39271   0.39276
 Alpha virt. eigenvalues --    0.39878   0.40894   0.54467   0.54780   0.65600

 Mulliken charges:
               1
     1  O   -0.270900
     2  C    0.538057
     3  O   -0.267399
     4  O   -0.271107
     5  C    0.538854
     6  O   -0.267505
 Sum of Mulliken charges =  -0.00000

 Dipole moment (field-independent basis, Debye):
    X=              0.0297    Y=              0.0499    Z=              0.0000  Tot=              0.0581
 Quadrupole moment (field-independent basis, Debye-Ang):
   XX=            -34.5589   YY=            -34.5096   ZZ=            -29.3886
   XY=             -0.0179   XZ=              0.0000   YZ=              0.0000

 6836\CCSD(T)=-376.6548369\RMSD=4.821e-09\PG=CS [SG(C2O4)]\\@
 Normal termination of Gaussian 16 at Mon Feb 12 19:13:13 2024.
