 Gaussian 16, Revision A.03,
 Gaussian 16:  ES64L-G16RevA.03 25-Dec-2016

 ------------------
 #p CCSD(T)/cc-pVTZ
 ------------------

 ----------
 CO2_CO2_22
 ----------
 Symbolic Z-matrix:
 Charge =  0 Multiplicity = 1

                         Standard orientation:
 ---------------------------------------------------------------------
 Center     Atomic      Atomic             Coordinates (Angstroms)
 Number     Number       Type             X           Y           Z
 ---------------------------------------------------------------------
      1          8           0        1.233548   -2.455048    0.000000
      2          6           0        0.411183   -1.632683    0.000000
      3          8           0       -0.411183   -0.810318    0.000000
      4          8           0       -0.411183    0.469683   -0.000000
      5          6           0       -0.411183    1.632683   -0.000000
      6          8           0       -0.411183    2.795682   -0.000000
 ---------------------------------------------------------------------

 SCF Done:  E(RHF) =  -374.909852218     A.U. after   16 cycles
 E2 =    -0.1269242613D+01 EUMP2 =    -0.37617909483142D+03
 CCSD(T)
 CCSD(T)= -0.37620430428D+03

 The electronic state is 1-A'.
 Alpha  occ. eigenvalues --  -20.65841 -20.65611 -20.65415 -20.59185 -11.45047
 Alpha  occ. eigenvalues --  -11.37872  -1.66378  -1.51272  -1.46714  -1.43103
 Alpha  occ. eigenvalues --   -1.07743  -0.79677  -0.78586  -0.77389  -0.72073
 Alpha  occ. eigenvalues --   -0.68622  -0.67990  -0.59272  -0.58143  -0.52824
 Alpha  occ. eigenvalues --   -0.48867  -0.28412
 Alpha virt. eigenvalues --    0.15117   0.17224   0.17487   0.20176   0.24752
 Alpha virt. eigenvalues --    0.25661   0.33634   0.36861   0.36953   0.38883
 Alpha virt. eigenvalues --    0.44197   0.48444   0.53709   0.61054   0.67204

 Mulliken charges:
               1
     1  O   -0.335012
     2  C    0.368383
     3  O   -0.115491
     4  O   -0.124468
     5  C    0.488798
     6  O   -0.282209
 Sum of Mulliken charges =  -0.00000

 Dipole moment (field-independent basis, Debye):
    X=             -0.8162    Y=              1.8081    Z=             -0.0000  Tot=              1.9838
 Quadrupole moment (field-independent basis, Debye-Ang):
   XX=            -32.6081   YY=            -43.1605   ZZ=            -29.0990
   XY=              3.7203   XZ=             -0.0000   YZ=              0.0000

 =-376.1521054\CCSD=-376.1381406\CCSD(T)=-376.2043043\RMSD=6.720e-09\PG
 Normal termination of Gaussian 16 at Fri Feb  9 20:45:58 2024.
