 Gaussian 16, Revision A.03,
 Gaussian 16:  ES64L-G16RevA.03 25-Dec-2016

 ------------------
 #p CCSD(T)/cc-pVTZ
 ------------------

 -----------
 CO2_CO2_124
 -----------
 Symbolic Z-matrix:
 Charge =  0 Multiplicity = 1

                         Standard orientation:
 ---------------------------------------------------------------------
 Center     Atomic      Atomic             Coordinates (Angstroms)
 Number     Number       Type             X           Y           Z
 ---------------------------------------------------------------------
      1          8           0        1.233548   -3.135048    0.000000
      2          6           0        0.411183   -2.312683    0.000000
      3          8           0       -0.411183   -1.490317   -0.000000
      4          8           0       -0.411183    1.149683   -0.000000
      5          6           0       -0.411183    2.312683   -0.000000
      6          8           0       -0.411183    3.475682   -0.000000
 ---------------------------------------------------------------------

 SCF Done:  E(RHF) =  -375.409441729     A.U. after   11 cycles
 E2 =    -0.1205708458D+01 EUMP2 =    -0.37661515018721D+03
 CCSD(T)
 CCSD(T)= -0.37665278558D+03

 The electronic state is 1-A'.
 Alpha  occ. eigenvalues --  -20.64672 -20.64509 -20.64405 -20.64218 -11.45550
 Alpha  occ. eigenvalues --  -11.45281  -1.52456  -1.52146  -1.47161  -1.46820
 Alpha  occ. eigenvalues --   -0.80395  -0.78695  -0.74463  -0.72537  -0.70954
 Alpha  occ. eigenvalues --   -0.70925  -0.70606  -0.70439  -0.54013  -0.53950
 Alpha  occ. eigenvalues --   -0.53453  -0.53434
 Alpha virt. eigenvalues --    0.17084   0.18606   0.20634   0.20786   0.21078
 Alpha virt. eigenvalues --    0.21223   0.33216   0.36751   0.39115   0.39309
 Alpha virt. eigenvalues --    0.40458   0.42061   0.54264   0.55396   0.64383

 Mulliken charges:
               1
     1  O   -0.279159
     2  C    0.528966
     3  O   -0.250030
     4  O   -0.242741
     5  C    0.526552
     6  O   -0.283587
 Sum of Mulliken charges =  -0.00000

 Dipole moment (field-independent basis, Debye):
    X=             -0.0735    Y=              0.0260    Z=             -0.0000  Tot=              0.0779
 Quadrupole moment (field-independent basis, Debye-Ang):
   XX=            -32.0038   YY=            -37.8506   ZZ=            -29.4041
   XY=              2.6996   XZ=             -0.0000   YZ=              0.0000

 Q=-376.6036613\CCSD=-376.5953167\CCSD(T)=-376.6527856\RMSD=4.063e-09\P
 Normal termination of Gaussian 16 at Sat Feb 10 17:04:14 2024.
