 Gaussian 16, Revision A.03,
 Gaussian 16:  ES64L-G16RevA.03 25-Dec-2016

 ------------------
 #p CCSD(T)/cc-pVTZ
 ------------------

 -----------
 CO2_CO2_182
 -----------
 Symbolic Z-matrix:
 Charge =  0 Multiplicity = 1

                         Standard orientation:
 ---------------------------------------------------------------------
 Center     Atomic      Atomic             Coordinates (Angstroms)
 Number     Number       Type             X           Y           Z
 ---------------------------------------------------------------------
      1          8           0       -1.744500   -2.281500    0.000000
      2          6           0       -0.581500   -2.281500    0.000000
      3          8           0        0.581500   -2.281500    0.000000
      4          8           0        0.581500    1.118500    0.000000
      5          6           0        0.581500    2.281500    0.000000
      6          8           0        0.581500    3.444500    0.000000
 ---------------------------------------------------------------------

 SCF Done:  E(RHF) =  -375.413535683     A.U. after   10 cycles
 E2 =    -0.1203930314D+01 EUMP2 =    -0.37661746599715D+03
 CCSD(T)
 CCSD(T)= -0.37665536553D+03

 The electronic state is 1-A'.
 Alpha  occ. eigenvalues --  -20.65309 -20.65264 -20.64534 -20.64450 -11.46277
 Alpha  occ. eigenvalues --  -11.45483  -1.53077  -1.52284  -1.47780  -1.46987
 Alpha  occ. eigenvalues --   -0.80225  -0.79417  -0.74437  -0.73598  -0.71549
 Alpha  occ. eigenvalues --   -0.71548  -0.70771  -0.70695  -0.54538  -0.54536
 Alpha  occ. eigenvalues --   -0.53752  -0.53728
 Alpha virt. eigenvalues --    0.16420   0.18550   0.20064   0.20190   0.20986
 Alpha virt. eigenvalues --    0.21382   0.33246   0.34631   0.38802   0.39121
 Alpha virt. eigenvalues --    0.40338   0.42725   0.54437   0.55217   0.64107

 Mulliken charges:
               1
     1  O   -0.272004
     2  C    0.536810
     3  O   -0.265717
     4  O   -0.268374
     5  C    0.539578
     6  O   -0.270294
 Sum of Mulliken charges =  -0.00000

 Dipole moment (field-independent basis, Debye):
    X=              0.0585    Y=              0.0854    Z=              0.0000  Tot=              0.1035
 Quadrupole moment (field-independent basis, Debye-Ang):
   XX=            -34.5714   YY=            -34.5206   ZZ=            -29.3889
   XY=             -0.0259   XZ=              0.0000   YZ=              0.0000

 89\CCSD(T)=-376.6553655\RMSD=6.821e-09\PG=CS [SG(C2O4)]\\@
 Normal termination of Gaussian 16 at Sat Feb 10 21:44:06 2024.
