 Gaussian 16, Revision A.03,
 Gaussian 16:  ES64L-G16RevA.03 25-Dec-2016

 ------------------
 #p CCSD(T)/cc-pVTZ
 ------------------

 -----------
 CO2_CO2_199
 -----------
 Symbolic Z-matrix:
 Charge =  0 Multiplicity = 1

                         Standard orientation:
 ---------------------------------------------------------------------
 Center     Atomic      Atomic             Coordinates (Angstroms)
 Number     Number       Type             X           Y           Z
 ---------------------------------------------------------------------
      1          8           0        1.233548   -3.635048    0.000000
      2          6           0        0.411183   -2.812683    0.000000
      3          8           0       -0.411183   -1.990317    0.000000
      4          8           0       -0.411183    1.649683    0.000000
      5          6           0       -0.411183    2.812683    0.000000
      6          8           0       -0.411183    3.975682    0.000000
 ---------------------------------------------------------------------

 SCF Done:  E(RHF) =  -375.412828074     A.U. after   11 cycles
 E2 =    -0.1203839845D+01 EUMP2 =    -0.37661666791905D+03
 CCSD(T)
 CCSD(T)= -0.37665452242D+03

 The electronic state is 1-A'.
 Alpha  occ. eigenvalues --  -20.64834 -20.64807 -20.64691 -20.64645 -11.45788
 Alpha  occ. eigenvalues --  -11.45635  -1.52615  -1.52460  -1.47313  -1.47157
 Alpha  occ. eigenvalues --   -0.79747  -0.79511  -0.73944  -0.73668  -0.71092
 Alpha  occ. eigenvalues --   -0.71092  -0.70939  -0.70929  -0.54062  -0.54061
 Alpha  occ. eigenvalues --   -0.53903  -0.53893
 Alpha virt. eigenvalues --    0.17197   0.18030   0.20651   0.20653   0.20810
 Alpha virt. eigenvalues --    0.20814   0.31850   0.36562   0.39561   0.39581
 Alpha virt. eigenvalues --    0.39834   0.40133   0.54901   0.54999   0.61367

 Mulliken charges:
               1
     1  O   -0.272126
     2  C    0.534618
     3  O   -0.262375
     4  O   -0.263835
     5  C    0.535034
     6  O   -0.271316
 Sum of Mulliken charges =  -0.00000

 Dipole moment (field-independent basis, Debye):
    X=             -0.0306    Y=              0.0073    Z=             -0.0000  Tot=              0.0314
 Quadrupole moment (field-independent basis, Debye-Ang):
   XX=            -31.9756   YY=            -37.4456   ZZ=            -29.3929
   XY=              2.6276   XZ=              0.0000   YZ=             -0.0000

 Q=-376.6055262\CCSD=-376.5973173\CCSD(T)=-376.6545224\RMSD=2.787e-09\P
 Normal termination of Gaussian 16 at Sat Feb 10 23:08:33 2024.
