 Gaussian 16, Revision A.03,
 Gaussian 16:  ES64L-G16RevA.03 25-Dec-2016

 ------------------
 #p CCSD(T)/cc-pVTZ
 ------------------

 -----------
 CO2_CO2_223
 -----------
 Symbolic Z-matrix:
 Charge =  0 Multiplicity = 1

                         Standard orientation:
 ---------------------------------------------------------------------
 Center     Atomic      Atomic             Coordinates (Angstroms)
 Number     Number       Type             X           Y           Z
 ---------------------------------------------------------------------
      1          8           0        1.233548   -3.795048    0.000000
      2          6           0        0.411183   -2.972683    0.000000
      3          8           0       -0.411183   -2.150317    0.000000
      4          8           0       -0.411183    1.809683   -0.000000
      5          6           0       -0.411183    2.972683   -0.000000
      6          8           0       -0.411183    4.135682   -0.000000
 ---------------------------------------------------------------------

 SCF Done:  E(RHF) =  -375.412924344     A.U. after   11 cycles
 E2 =    -0.1203643405D+01 EUMP2 =    -0.37661656774898D+03
 CCSD(T)
 CCSD(T)= -0.37665444663D+03

 The electronic state is 1-A'.
 Alpha  occ. eigenvalues --  -20.64862 -20.64841 -20.64735 -20.64699 -11.45822
 Alpha  occ. eigenvalues --  -11.45687  -1.52645  -1.52509  -1.47343  -1.47207
 Alpha  occ. eigenvalues --   -0.79751  -0.79593  -0.73940  -0.73766  -0.71121
 Alpha  occ. eigenvalues --   -0.71121  -0.70987  -0.70980  -0.54091  -0.54091
 Alpha  occ. eigenvalues --   -0.53955  -0.53948
 Alpha virt. eigenvalues --    0.17279   0.17915   0.20628   0.20631   0.20762
 Alpha virt. eigenvalues --    0.20770   0.32164   0.36191   0.39583   0.39600
 Alpha virt. eigenvalues --    0.39764   0.39907   0.54837   0.54991   0.62886

 Mulliken charges:
               1
     1  O   -0.271005
     2  C    0.535176
     3  O   -0.264104
     4  O   -0.265288
     5  C    0.535284
     6  O   -0.270062
 Sum of Mulliken charges =  -0.00000

 Dipole moment (field-independent basis, Debye):
    X=             -0.0244    Y=              0.0068    Z=              0.0000  Tot=              0.0253
 Quadrupole moment (field-independent basis, Debye-Ang):
   XX=            -31.9732   YY=            -37.3921   ZZ=            -29.3919
   XY=              2.6179   XZ=             -0.0000   YZ=              0.0000

 Q=-376.6054631\CCSD=-376.5972699\CCSD(T)=-376.6544466\RMSD=2.644e-09\P
 Normal termination of Gaussian 16 at Mon Feb 12 18:24:24 2024.
