 Gaussian 16, Revision A.03,
 Gaussian 16:  ES64L-G16RevA.03 25-Dec-2016

 ------------------
 #p CCSD(T)/cc-pVTZ
 ------------------

 -----------
 CO2_CO2_242
 -----------
 Symbolic Z-matrix:
 Charge =  0 Multiplicity = 1

                         Standard orientation:
 ---------------------------------------------------------------------
 Center     Atomic      Atomic             Coordinates (Angstroms)
 Number     Number       Type             X           Y           Z
 ---------------------------------------------------------------------
      1          8           0       -1.744500   -2.681500    0.000000
      2          6           0       -0.581500   -2.681500    0.000000
      3          8           0        0.581500   -2.681500    0.000000
      4          8           0        0.581500    1.518500    0.000000
      5          6           0        0.581500    2.681500    0.000000
      6          8           0        0.581500    3.844500    0.000000
 ---------------------------------------------------------------------

 SCF Done:  E(RHF) =  -375.413432333     A.U. after   10 cycles
 E2 =    -0.1203430118D+01 EUMP2 =    -0.37661686245112D+03
 CCSD(T)
 CCSD(T)= -0.37665479237D+03

 The electronic state is 1-A'.
 Alpha  occ. eigenvalues --  -20.65191 -20.65160 -20.64691 -20.64661 -11.46162
 Alpha  occ. eigenvalues --  -11.45662  -1.52965  -1.52467  -1.47667  -1.47169
 Alpha  occ. eigenvalues --   -0.80089  -0.79589  -0.74278  -0.73776  -0.71439
 Alpha  occ. eigenvalues --   -0.71437  -0.70948  -0.70929  -0.54421  -0.54420
 Alpha  occ. eigenvalues --   -0.53928  -0.53918
 Alpha virt. eigenvalues --    0.16732   0.18079   0.20287   0.20320   0.20808
 Alpha virt. eigenvalues --    0.20865   0.32669   0.34836   0.39292   0.39295
 Alpha virt. eigenvalues --    0.39852   0.40758   0.54464   0.54812   0.65657

 Mulliken charges:
               1
     1  O   -0.270787
     2  C    0.538058
     3  O   -0.267476
     4  O   -0.271108
     5  C    0.538713
     6  O   -0.267401
 Sum of Mulliken charges =  -0.00000

 Dipole moment (field-independent basis, Debye):
    X=              0.0278    Y=              0.0472    Z=              0.0000  Tot=              0.0548
 Quadrupole moment (field-independent basis, Debye-Ang):
   XX=            -34.5579   YY=            -34.5108   ZZ=            -29.3886
   XY=             -0.0176   XZ=              0.0000   YZ=              0.0000

 27\CCSD(T)=-376.6547924\RMSD=4.731e-09\PG=CS [SG(C2O4)]\\@
 Normal termination of Gaussian 16 at Mon Feb 12 19:34:54 2024.
