 Gaussian 16, Revision A.03,
 Gaussian 16:  ES64L-G16RevA.03 25-Dec-2016

 ------------------
 #p CCSD(T)/cc-pVTZ
 ------------------

 -----------
 CO2_CO2_176
 -----------
 Symbolic Z-matrix:
 Charge =  0 Multiplicity = 1

                         Standard orientation:
 ---------------------------------------------------------------------
 Center     Atomic      Atomic             Coordinates (Angstroms)
 Number     Number       Type             X           Y           Z
 ---------------------------------------------------------------------
      1          8           0       -1.744500   -2.241500    0.000000
      2          6           0       -0.581500   -2.241500    0.000000
      3          8           0        0.581500   -2.241500    0.000000
      4          8           0        0.581500    1.078500    0.000000
      5          6           0        0.581500    2.241500    0.000000
      6          8           0        0.581500    3.404500    0.000000
 ---------------------------------------------------------------------

 SCF Done:  E(RHF) =  -375.413492350     A.U. after   10 cycles
 E2 =    -0.1204029295D+01 EUMP2 =    -0.37661752164456D+03
 CCSD(T)
 CCSD(T)= -0.37665541586D+03

 The electronic state is 1-A'.
 Alpha  occ. eigenvalues --  -20.65322 -20.65278 -20.64512 -20.64416 -11.46292
 Alpha  occ. eigenvalues --  -11.45456  -1.53092  -1.52257  -1.47795  -1.46960
 Alpha  occ. eigenvalues --   -0.80248  -0.79391  -0.74467  -0.73570  -0.71564
 Alpha  occ. eigenvalues --   -0.71563  -0.70745  -0.70653  -0.54554  -0.54552
 Alpha  occ. eigenvalues --   -0.53726  -0.53700
 Alpha virt. eigenvalues --    0.16417   0.18618   0.20031   0.20173   0.21010
 Alpha virt. eigenvalues --    0.21461   0.33448   0.34600   0.38716   0.39112
 Alpha virt. eigenvalues --    0.40426   0.43031   0.54408   0.55396   0.63912

 Mulliken charges:
               1
     1  O   -0.272222
     2  C    0.536575
     3  O   -0.265423
     4  O   -0.267627
     5  C    0.539534
     6  O   -0.270836
 Sum of Mulliken charges =   0.00000

 Dipole moment (field-independent basis, Debye):
    X=              0.0637    Y=              0.0911    Z=              0.0000  Tot=              0.1112
 Quadrupole moment (field-independent basis, Debye-Ang):
   XX=            -34.5736   YY=            -34.5271   ZZ=            -29.3891
   XY=             -0.0279   XZ=              0.0000   YZ=              0.0000

 1735\CCSD(T)=-376.6554159\RMSD=7.379e-09\PG=CS [SG(C2O4)]\\@
 Normal termination of Gaussian 16 at Sat Feb 10 21:15:19 2024.
