 Gaussian 16, Revision A.03,
 Gaussian 16:  ES64L-G16RevA.03 25-Dec-2016

 ------------------
 #p CCSD(T)/cc-pVTZ
 ------------------

 -----------
 CO2_CO2_136
 -----------
 Symbolic Z-matrix:
 Charge =  0 Multiplicity = 1

                         Standard orientation:
 ---------------------------------------------------------------------
 Center     Atomic      Atomic             Coordinates (Angstroms)
 Number     Number       Type             X           Y           Z
 ---------------------------------------------------------------------
      1          8           0        1.233548   -3.215048    0.000000
      2          6           0        0.411183   -2.392682    0.000000
      3          8           0       -0.411183   -1.570317   -0.000000
      4          8           0       -0.411183    1.229683   -0.000000
      5          6           0       -0.411183    2.392682   -0.000000
      6          8           0       -0.411183    3.555682   -0.000000
 ---------------------------------------------------------------------

 SCF Done:  E(RHF) =  -375.410964219     A.U. after   11 cycles
 E2 =    -0.1205151698D+01 EUMP2 =    -0.37661611591673D+03
 CCSD(T)
 CCSD(T)= -0.37665382561D+03

 The electronic state is 1-A'.
 Alpha  occ. eigenvalues --  -20.64710 -20.64599 -20.64476 -20.64338 -11.45612
 Alpha  occ. eigenvalues --  -11.45372  -1.52488  -1.52224  -1.47188  -1.46908
 Alpha  occ. eigenvalues --   -0.80122  -0.78914  -0.74286  -0.72868  -0.70978
 Alpha  occ. eigenvalues --   -0.70966  -0.70694  -0.70605  -0.54000  -0.53963
 Alpha  occ. eigenvalues --   -0.53583  -0.53570
 Alpha virt. eigenvalues --    0.17131   0.18474   0.20658   0.20755   0.21014
 Alpha virt. eigenvalues --    0.21109   0.33001   0.36779   0.39256   0.39369
 Alpha virt. eigenvalues --    0.40298   0.41592   0.54474   0.55283   0.64098

 Mulliken charges:
               1
     1  O   -0.277803
     2  C    0.530001
     3  O   -0.252303
     4  O   -0.248382
     5  C    0.529261
     6  O   -0.280775
 Sum of Mulliken charges =  -0.00000

 Dipole moment (field-independent basis, Debye):
    X=             -0.0629    Y=              0.0195    Z=              0.0000  Tot=              0.0658
 Quadrupole moment (field-independent basis, Debye-Ang):
   XX=            -31.9950   YY=            -37.7457   ZZ=            -29.4010
   XY=              2.6813   XZ=             -0.0000   YZ=             -0.0000

 Q=-376.6047366\CCSD=-376.596432\CCSD(T)=-376.6538256\RMSD=3.806e-09\PG
 Normal termination of Gaussian 16 at Sat Feb 10 18:01:35 2024.
