 Gaussian 16, Revision A.03,
 Gaussian 16:  ES64L-G16RevA.03 25-Dec-2016

 ------------------
 #p CCSD(T)/cc-pVTZ
 ------------------

 -----------
 CO2_CO2_278
 -----------
 Symbolic Z-matrix:
 Charge =  0 Multiplicity = 1

                         Standard orientation:
 ---------------------------------------------------------------------
 Center     Atomic      Atomic             Coordinates (Angstroms)
 Number     Number       Type             X           Y           Z
 ---------------------------------------------------------------------
      1          8           0       -1.744500   -2.921500    0.000000
      2          6           0       -0.581500   -2.921500    0.000000
      3          8           0        0.581500   -2.921500    0.000000
      4          8           0        0.581500    1.758500    0.000000
      5          6           0        0.581500    2.921500    0.000000
      6          8           0        0.581500    4.084500    0.000000
 ---------------------------------------------------------------------

 SCF Done:  E(RHF) =  -375.413326432     A.U. after   10 cycles
 E2 =    -0.1203336550D+01 EUMP2 =    -0.37661666298134D+03
 CCSD(T)
 CCSD(T)= -0.37665460046D+03

 The electronic state is 1-A'.
 Alpha  occ. eigenvalues --  -20.65141 -20.65120 -20.64751 -20.64731 -11.46115
 Alpha  occ. eigenvalues --  -11.45726  -1.52922  -1.52533  -1.47624  -1.47235
 Alpha  occ. eigenvalues --   -0.80042  -0.79652  -0.74229  -0.73838  -0.71395
 Alpha  occ. eigenvalues --   -0.71394  -0.71012  -0.71000  -0.54376  -0.54375
 Alpha  occ. eigenvalues --   -0.53991  -0.53984
 Alpha virt. eigenvalues --    0.17081   0.17874   0.20358   0.20366   0.20743
 Alpha virt. eigenvalues --    0.20757   0.33247   0.34723   0.39369   0.39380
 Alpha virt. eigenvalues --    0.39755   0.40140   0.54532   0.54953   0.65797

 Mulliken charges:
               1
     1  O   -0.270122
     2  C    0.537824
     3  O   -0.267760
     4  O   -0.270677
     5  C    0.537997
     6  O   -0.267262
 Sum of Mulliken charges =  -0.00000

 Dipole moment (field-independent basis, Debye):
    X=              0.0188    Y=              0.0339    Z=              0.0000  Tot=              0.0388
 Quadrupole moment (field-independent basis, Debye-Ang):
   XX=            -34.5525   YY=            -34.5182   ZZ=            -29.3885
   XY=             -0.0154   XZ=              0.0000   YZ=              0.0000

 646\CCSD(T)=-376.6546005\RMSD=4.503e-09\PG=CS [SG(C2O4)]\\@
 Normal termination of Gaussian 16 at Mon Feb 12 21:46:56 2024.
