 Gaussian 16, Revision A.03,
 Gaussian 16:  ES64L-G16RevA.03 25-Dec-2016

 ------------------
 #p CCSD(T)/cc-pVTZ
 ------------------

 -----------
 CO2_CO2_103
 -----------
 Symbolic Z-matrix:
 Charge =  0 Multiplicity = 1

                         Standard orientation:
 ---------------------------------------------------------------------
 Center     Atomic      Atomic             Coordinates (Angstroms)
 Number     Number       Type             X           Y           Z
 ---------------------------------------------------------------------
      1          8           0        1.233548   -2.995048   -0.000000
      2          6           0        0.411183   -2.172682   -0.000000
      3          8           0       -0.411183   -1.350317   -0.000000
      4          8           0       -0.411183    1.009683    0.000000
      5          6           0       -0.411183    2.172682    0.000000
      6          8           0       -0.411183    3.335682    0.000000
 ---------------------------------------------------------------------

 SCF Done:  E(RHF) =  -375.403013532     A.U. after   11 cycles
 E2 =    -0.1207298513D+01 EUMP2 =    -0.37661031204500D+03
 CCSD(T)
 CCSD(T)= -0.37664769678D+03

 The electronic state is 1-A'.
 Alpha  occ. eigenvalues --  -20.64585 -20.64244 -20.64233 -20.63895 -11.45388
 Alpha  occ. eigenvalues --  -11.45054  -1.52412  -1.51951  -1.47139  -1.46588
 Alpha  occ. eigenvalues --   -0.81348  -0.78211  -0.74872  -0.71846  -0.70928
 Alpha  occ. eigenvalues --   -0.70781  -0.70383  -0.69781  -0.54095  -0.53938
 Alpha  occ. eigenvalues --   -0.53111  -0.53042
 Alpha virt. eigenvalues --    0.16966   0.18885   0.20552   0.20837   0.21242
 Alpha virt. eigenvalues --    0.21504   0.33491   0.36630   0.38798   0.39203
 Alpha virt. eigenvalues --    0.40819   0.43024   0.53943   0.55710   0.64572

 Mulliken charges:
               1
     1  O   -0.281945
     2  C    0.528043
     3  O   -0.247107
     4  O   -0.231513
     5  C    0.521510
     6  O   -0.288988
 Sum of Mulliken charges =  -0.00000

 Dipole moment (field-independent basis, Debye):
    X=             -0.0981    Y=              0.0456    Z=              0.0000  Tot=              0.1082
 Quadrupole moment (field-independent basis, Debye-Ang):
   XX=            -32.0255   YY=            -38.1084   ZZ=            -29.4085
   XY=              2.7442   XZ=             -0.0000   YZ=             -0.0000

 -376.5984904\CCSD=-376.5900262\CCSD(T)=-376.6476968\RMSD=4.148e-09\PG=
 Normal termination of Gaussian 16 at Sat Feb 10 15:17:45 2024.
