 Gaussian 16, Revision A.03,
 Gaussian 16:  ES64L-G16RevA.03 25-Dec-2016

 ------------------
 #p CCSD(T)/cc-pVTZ
 ------------------

 ----------
 CO2_CO2_83
 ----------
 Symbolic Z-matrix:
 Charge =  0 Multiplicity = 1

                         Standard orientation:
 ---------------------------------------------------------------------
 Center     Atomic      Atomic             Coordinates (Angstroms)
 Number     Number       Type             X           Y           Z
 ---------------------------------------------------------------------
      1          8           0       -1.744500   -1.621500    0.000000
      2          6           0       -0.581500   -1.621500    0.000000
      3          8           0        0.581500   -1.621500    0.000000
      4          8           0        0.581500    0.458500    0.000000
      5          6           0        0.581500    1.621500    0.000000
      6          8           0        0.581500    2.784500    0.000000
 ---------------------------------------------------------------------

 SCF Done:  E(RHF) =  -375.378264831     A.U. after   13 cycles
 E2 =    -0.1211812331D+01 EUMP2 =    -0.37659007716229D+03
 CCSD(T)
 CCSD(T)= -0.37662705491D+03

 The electronic state is 1-A'.
 Alpha  occ. eigenvalues --  -20.65553 -20.64878 -20.63858 -20.62566 -11.46324
 Alpha  occ. eigenvalues --  -11.44449  -1.53680  -1.51475  -1.48212  -1.45972
 Alpha  occ. eigenvalues --   -0.83020  -0.78689  -0.76401  -0.73034  -0.72100
 Alpha  occ. eigenvalues --   -0.71464  -0.69790  -0.67046  -0.55195  -0.54847
 Alpha  occ. eigenvalues --   -0.52525  -0.51705
 Alpha virt. eigenvalues --    0.15897   0.18912   0.19871   0.20570   0.21581
 Alpha virt. eigenvalues --    0.23539   0.34018   0.35881   0.36933   0.39970
 Alpha virt. eigenvalues --    0.42987   0.47557   0.53096   0.58265   0.66181

 Mulliken charges:
               1
     1  O   -0.285271
     2  C    0.533196
     3  O   -0.259416
     4  O   -0.236091
     5  C    0.530843
     6  O   -0.283261
 Sum of Mulliken charges =  -0.00000

 Dipole moment (field-independent basis, Debye):
    X=              0.2728    Y=              0.2810    Z=              0.0000  Tot=              0.3917
 Quadrupole moment (field-independent basis, Debye-Ang):
   XX=            -34.6323   YY=            -35.1724   ZZ=            -29.3813
   XY=             -0.1136   XZ=              0.0000   YZ=              0.0000

 314\CCSD(T)=-376.6270549\RMSD=4.652e-09\PG=CS [SG(C2O4)]\\@
 Normal termination of Gaussian 16 at Sat Feb 10 02:00:21 2024.
