 Gaussian 16, Revision A.03,
 Gaussian 16:  ES64L-G16RevA.03 25-Dec-2016

 ------------------
 #p CCSD(T)/cc-pVTZ
 ------------------

 ----------
 CO2_CO2_17
 ----------
 Symbolic Z-matrix:
 Charge =  0 Multiplicity = 1

                         Standard orientation:
 ---------------------------------------------------------------------
 Center     Atomic      Atomic             Coordinates (Angstroms)
 Number     Number       Type             X           Y           Z
 ---------------------------------------------------------------------
      1          8           0       -1.744500   -1.181500    0.000000
      2          6           0       -0.581500   -1.181500    0.000000
      3          8           0        0.581500   -1.181500    0.000000
      4          8           0        0.581500    0.018500    0.000000
      5          6           0        0.581500    1.181500    0.000000
      6          8           0        0.581500    2.344500    0.000000
 ---------------------------------------------------------------------

 SCF Done:  E(RHF) =  -374.664244207     A.U. after   21 cycles
 E2 =    -0.1291112412D+01 EUMP2 =    -0.37595535661889D+03
 CCSD(T)
 CCSD(T)= -0.37598342876D+03

 The electronic state is 1-A'.
 Alpha  occ. eigenvalues --  -20.73948 -20.71758 -20.66150 -20.59466 -11.47032
 Alpha  occ. eigenvalues --  -11.37175  -1.83102  -1.52380  -1.47268  -1.44189
 Alpha  occ. eigenvalues --   -1.06772  -0.93678  -0.88388  -0.78102  -0.72145
 Alpha  occ. eigenvalues --   -0.71108  -0.69176  -0.61255  -0.58472  -0.55754
 Alpha  occ. eigenvalues --   -0.51331  -0.18592
 Alpha virt. eigenvalues --    0.13513   0.15285   0.16079   0.20550   0.21498
 Alpha virt. eigenvalues --    0.27839   0.31686   0.36063   0.38116   0.41621
 Alpha virt. eigenvalues --    0.44512   0.46703   0.54478   0.57289   0.61757

 Mulliken charges:
               1
     1  O   -0.304683
     2  C    0.140179
     3  O    0.020997
     4  O    0.005160
     5  C    0.355895
     6  O   -0.217549
 Sum of Mulliken charges =  -0.00000

 Dipole moment (field-independent basis, Debye):
    X=              2.1815    Y=              0.9800    Z=              0.0000  Tot=              2.3915
 Quadrupole moment (field-independent basis, Debye-Ang):
   XX=            -35.9558   YY=            -40.2746   ZZ=            -29.2426
   XY=             -3.2544   XZ=              0.0000   YZ=              0.0000

 5\CCSD(T)=-375.9834288\RMSD=6.226e-09\PG=CS [SG(C2O4)]\\@
 Normal termination of Gaussian 16 at Fri Feb  9 20:22:08 2024.
