 Gaussian 16, Revision A.03,
 Gaussian 16:  ES64L-G16RevA.03 25-Dec-2016

 ------------------
 #p CCSD(T)/cc-pVTZ
 ------------------

 ----------
 CO2_CO2_89
 ----------
 Symbolic Z-matrix:
 Charge =  0 Multiplicity = 1

                         Standard orientation:
 ---------------------------------------------------------------------
 Center     Atomic      Atomic             Coordinates (Angstroms)
 Number     Number       Type             X           Y           Z
 ---------------------------------------------------------------------
      1          8           0       -1.744500   -1.661500    0.000000
      2          6           0       -0.581500   -1.661500    0.000000
      3          8           0        0.581500   -1.661500    0.000000
      4          8           0        0.581500    0.498500    0.000000
      5          6           0        0.581500    1.661500    0.000000
      6          8           0        0.581500    2.824500    0.000000
 ---------------------------------------------------------------------

 SCF Done:  E(RHF) =  -375.387561691     A.U. after   13 cycles
 E2 =    -0.1210371511D+01 EUMP2 =    -0.37659793320164D+03
 CCSD(T)
 CCSD(T)= -0.37663512238D+03

 The electronic state is 1-A'.
 Alpha  occ. eigenvalues --  -20.65541 -20.65021 -20.63920 -20.62834 -11.46370
 Alpha  occ. eigenvalues --  -11.44567  -1.53570  -1.51537  -1.48167  -1.46096
 Alpha  occ. eigenvalues --   -0.82420  -0.78729  -0.76206  -0.72990  -0.72017
 Alpha  occ. eigenvalues --   -0.71582  -0.69903  -0.67620  -0.55092  -0.54845
 Alpha  occ. eigenvalues --   -0.52698  -0.52125
 Alpha virt. eigenvalues --    0.15940   0.19046   0.19889   0.20374   0.21537
 Alpha virt. eigenvalues --    0.23360   0.34090   0.35740   0.37033   0.39853
 Alpha virt. eigenvalues --    0.42794   0.47558   0.53028   0.58182   0.66353

 Mulliken charges:
               1
     1  O   -0.284125
     2  C    0.535350
     3  O   -0.261367
     4  O   -0.238687
     5  C    0.531544
     6  O   -0.282714
 Sum of Mulliken charges =  -0.00000

 Dipole moment (field-independent basis, Debye):
    X=              0.2472    Y=              0.2626    Z=              0.0000  Tot=              0.3606
 Quadrupole moment (field-independent basis, Debye-Ang):
   XX=            -34.6321   YY=            -35.0706   ZZ=            -29.3870
   XY=             -0.1001   XZ=              0.0000   YZ=              0.0000

 833\CCSD(T)=-376.6351224\RMSD=4.086e-09\PG=CS [SG(C2O4)]\\@
 Normal termination of Gaussian 16 at Sat Feb 10 02:30:10 2024.
