 Gaussian 16, Revision A.03,
 Gaussian 16:  ES64L-G16RevA.03 25-Dec-2016

 ------------------
 #p CCSD(T)/cc-pVTZ
 ------------------

 -----------
 CO2_CO2_240
 -----------
 Symbolic Z-matrix:
 Charge =  0 Multiplicity = 1

                         Standard orientation:
 ---------------------------------------------------------------------
 Center     Atomic      Atomic             Coordinates (Angstroms)
 Number     Number       Type             X           Y           Z
 ---------------------------------------------------------------------
      1          8           0        0.000000    0.000000    4.426000
      2          6           0        0.000000    0.000000    3.263000
      3          8           0        0.000000    0.000000    2.100000
      4          8           0        0.000000    0.000000   -2.100000
      5          6           0        0.000000    0.000000   -3.263000
      6          8           0        0.000000    0.000000   -4.426000
 ---------------------------------------------------------------------

 SCF Done:  E(RHF) =  -375.412855248     A.U. after   10 cycles
 E2 =    -0.1203577944D+01 EUMP2 =    -0.37661643319203D+03
 CCSD(T)
 CCSD(T)= -0.37665431750D+03

 The electronic state is 1-SGG.
 Alpha  occ. eigenvalues --  -20.64774 -20.64774 -20.64743 -20.64743 -11.45728
 Alpha  occ. eigenvalues --  -11.45728  -1.52553  -1.52552  -1.47251  -1.47249
 Alpha  occ. eigenvalues --   -0.79673  -0.79613  -0.73863  -0.73783  -0.71031
 Alpha  occ. eigenvalues --   -0.71031  -0.71026  -0.71026  -0.54002  -0.54002
 Alpha  occ. eigenvalues --   -0.53990  -0.53990
 Alpha virt. eigenvalues --    0.17442   0.17838   0.20710   0.20710   0.20733
 Alpha virt. eigenvalues --    0.20733   0.32867   0.35682   0.39693   0.39693
 Alpha virt. eigenvalues --    0.39719   0.39719   0.54920   0.54975   0.62818

 Mulliken charges:
               1
     1  O   -0.270430
     2  C    0.534813
     3  O   -0.264383
     4  O   -0.264383
     5  C    0.534813
     6  O   -0.270430
 Sum of Mulliken charges =   0.00000

 Dipole moment (field-independent basis, Debye):
    X=             -0.0000    Y=             -0.0000    Z=              0.0000  Tot=              0.0000
 Quadrupole moment (field-independent basis, Debye-Ang):
   XX=            -29.3921   YY=            -29.3921   ZZ=            -40.0524
   XY=              0.0000   XZ=              0.0000   YZ=             -0.0000

 06\CCSD(T)=-376.6543175\RMSD=4.697e-09\PG=D*H [C*(O1C1O1.O1C1O1)]\\@
 Normal termination of Gaussian 16 at Mon Feb 12 19:25:37 2024.
