 Gaussian 16, Revision A.03,
 Gaussian 16:  ES64L-G16RevA.03 25-Dec-2016

 ------------------
 #p CCSD(T)/cc-pVTZ
 ------------------

 -----------
 CO2_CO2_225
 -----------
 Symbolic Z-matrix:
 Charge =  0 Multiplicity = 1

                         Standard orientation:
 ---------------------------------------------------------------------
 Center     Atomic      Atomic             Coordinates (Angstroms)
 Number     Number       Type             X           Y           Z
 ---------------------------------------------------------------------
      1          8           0        0.000000    0.000000    4.326000
      2          6           0        0.000000    0.000000    3.163000
      3          8           0        0.000000    0.000000    2.000000
      4          8           0        0.000000    0.000000   -2.000000
      5          6           0        0.000000    0.000000   -3.163000
      6          8           0        0.000000    0.000000   -4.326000
 ---------------------------------------------------------------------

 SCF Done:  E(RHF) =  -375.412813216     A.U. after   10 cycles
 E2 =    -0.1203658177D+01 EUMP2 =    -0.37661647139382D+03
 CCSD(T)
 CCSD(T)= -0.37665434368D+03

 The electronic state is 1-SGG.
 Alpha  occ. eigenvalues --  -20.64753 -20.64753 -20.64718 -20.64718 -11.45703
 Alpha  occ. eigenvalues --  -11.45703  -1.52531  -1.52528  -1.47228  -1.47225
 Alpha  occ. eigenvalues --   -0.79665  -0.79568  -0.73859  -0.73732  -0.71010
 Alpha  occ. eigenvalues --   -0.71010  -0.71002  -0.71002  -0.53982  -0.53982
 Alpha  occ. eigenvalues --   -0.53963  -0.53963
 Alpha virt. eigenvalues --    0.17405   0.17892   0.20723   0.20723   0.20763
 Alpha virt. eigenvalues --    0.20763   0.32512   0.36000   0.39701   0.39701
 Alpha virt. eigenvalues --    0.39745   0.39745   0.54963   0.54968   0.61498

 Mulliken charges:
               1
     1  O   -0.270883
     2  C    0.534645
     3  O   -0.263761
     4  O   -0.263761
     5  C    0.534645
     6  O   -0.270883
 Sum of Mulliken charges =  -0.00000

 Dipole moment (field-independent basis, Debye):
    X=             -0.0000    Y=             -0.0000    Z=              0.0000  Tot=              0.0000
 Quadrupole moment (field-independent basis, Debye-Ang):
   XX=            -29.3927   YY=            -29.3927   ZZ=            -40.0863
   XY=              0.0000   XZ=              0.0000   YZ=             -0.0000

 57\CCSD(T)=-376.6543437\RMSD=4.695e-09\PG=D*H [C*(O1C1O1.O1C1O1)]\\@
 Normal termination of Gaussian 16 at Mon Feb 12 18:30:44 2024.
