 Gaussian 16, Revision A.03,
 Gaussian 16:  ES64L-G16RevA.03 25-Dec-2016

 ------------------
 #p CCSD(T)/cc-pVTZ
 ------------------

 -----------
 CO2_CO2_187
 -----------
 Symbolic Z-matrix:
 Charge =  0 Multiplicity = 1

                         Standard orientation:
 ---------------------------------------------------------------------
 Center     Atomic      Atomic             Coordinates (Angstroms)
 Number     Number       Type             X           Y           Z
 ---------------------------------------------------------------------
      1          8           0        1.233548   -3.555048   -0.000000
      2          6           0        0.411183   -2.732683   -0.000000
      3          8           0       -0.411183   -1.910318   -0.000000
      4          8           0       -0.411183    1.569683    0.000000
      5          6           0       -0.411183    2.732683    0.000000
      6          8           0       -0.411183    3.895682    0.000000
 ---------------------------------------------------------------------

 SCF Done:  E(RHF) =  -375.412736172     A.U. after   11 cycles
 E2 =    -0.1203976628D+01 EUMP2 =    -0.37661671280025D+03
 CCSD(T)
 CCSD(T)= -0.37665455245D+03

 The electronic state is 1-A'.
 Alpha  occ. eigenvalues --  -20.64817 -20.64784 -20.64663 -20.64610 -11.45766
 Alpha  occ. eigenvalues --  -11.45602  -1.52597  -1.52430  -1.47294  -1.47126
 Alpha  occ. eigenvalues --   -0.79758  -0.79449  -0.73961  -0.73593  -0.71075
 Alpha  occ. eigenvalues --   -0.71075  -0.70909  -0.70895  -0.54046  -0.54044
 Alpha  occ. eigenvalues --   -0.53868  -0.53857
 Alpha virt. eigenvalues --    0.17176   0.18093   0.20663   0.20664   0.20840
 Alpha virt. eigenvalues --    0.20842   0.31884   0.36676   0.39542   0.39558
 Alpha virt. eigenvalues --    0.39885   0.40302   0.54909   0.55042   0.60895

 Mulliken charges:
               1
     1  O   -0.272935
     2  C    0.534145
     3  O   -0.261082
     4  O   -0.262537
     5  C    0.534772
     6  O   -0.272364
 Sum of Mulliken charges =  -0.00000

 Dipole moment (field-independent basis, Debye):
    X=             -0.0345    Y=              0.0080    Z=              0.0000  Tot=              0.0355
 Quadrupole moment (field-independent basis, Debye-Ang):
   XX=            -31.9772   YY=            -37.4813   ZZ=            -29.3936
   XY=              2.6341   XZ=             -0.0000   YZ=             -0.0000

 Q=-376.6055465\CCSD=-376.5973273\CCSD(T)=-376.6545524\RMSD=2.888e-09\P
 Normal termination of Gaussian 16 at Sat Feb 10 22:08:40 2024.
