 Gaussian 16, Revision A.03,
 Gaussian 16:  ES64L-G16RevA.03 25-Dec-2016

 ------------------
 #p CCSD(T)/cc-pVTZ
 ------------------

 -----------
 CO2_CO2_145
 -----------
 Symbolic Z-matrix:
 Charge =  0 Multiplicity = 1

                         Standard orientation:
 ---------------------------------------------------------------------
 Center     Atomic      Atomic             Coordinates (Angstroms)
 Number     Number       Type             X           Y           Z
 ---------------------------------------------------------------------
      1          8           0        1.233548   -3.275048   -0.000000
      2          6           0        0.411183   -2.452683   -0.000000
      3          8           0       -0.411183   -1.630317   -0.000000
      4          8           0       -0.411183    1.289683    0.000000
      5          6           0       -0.411183    2.452683    0.000000
      6          8           0       -0.411183    3.615682    0.000000
 ---------------------------------------------------------------------

 SCF Done:  E(RHF) =  -375.411632966     A.U. after   11 cycles
 E2 =    -0.1204834050D+01 EUMP2 =    -0.37661646701653D+03
 CCSD(T)
 CCSD(T)= -0.37665421569D+03

 The electronic state is 1-A'.
 Alpha  occ. eigenvalues --  -20.64734 -20.64650 -20.64520 -20.64409 -11.45650
 Alpha  occ. eigenvalues --  -11.45427  -1.52511  -1.52273  -1.47209  -1.46962
 Alpha  occ. eigenvalues --   -0.79989  -0.79051  -0.74184  -0.73067  -0.70996
 Alpha  occ. eigenvalues --   -0.70991  -0.70747  -0.70690  -0.54000  -0.53976
 Alpha  occ. eigenvalues --   -0.53659  -0.53647
 Alpha virt. eigenvalues --    0.17153   0.18387   0.20668   0.20734   0.20974
 Alpha virt. eigenvalues --    0.21041   0.32796   0.36787   0.39341   0.39411
 Alpha virt. eigenvalues --    0.40196   0.41284   0.54618   0.55225   0.63194

 Mulliken charges:
               1
     1  O   -0.276839
     2  C    0.530904
     3  O   -0.254109
     4  O   -0.252071
     5  C    0.530959
     6  O   -0.278845
 Sum of Mulliken charges =  -0.00000

 Dipole moment (field-independent basis, Debye):
    X=             -0.0562    Y=              0.0159    Z=             -0.0000  Tot=              0.0584
 Quadrupole moment (field-independent basis, Debye-Ang):
   XX=            -31.9899   YY=            -37.6810   ZZ=            -29.3990
   XY=              2.6699   XZ=             -0.0000   YZ=             -0.0000

 -376.6051476\CCSD=-376.5968664\CCSD(T)=-376.6542157\RMSD=3.592e-09\PG=
 Normal termination of Gaussian 16 at Sat Feb 10 18:44:32 2024.
