 Gaussian 16, Revision A.03,
 Gaussian 16:  ES64L-G16RevA.03 25-Dec-2016

 ------------------
 #p CCSD(T)/cc-pVTZ
 ------------------

 -----------
 CO2_CO2_291
 -----------
 Symbolic Z-matrix:
 Charge =  0 Multiplicity = 1

                         Standard orientation:
 ---------------------------------------------------------------------
 Center     Atomic      Atomic             Coordinates (Angstroms)
 Number     Number       Type             X           Y           Z
 ---------------------------------------------------------------------
      1          8           0        0.000000    0.000000    4.766000
      2          6           0        0.000000    0.000000    3.603000
      3          8           0        0.000000    0.000000    2.440000
      4          8           0        0.000000    0.000000   -2.440000
      5          6           0        0.000000    0.000000   -3.603000
      6          8           0        0.000000    0.000000   -4.766000
 ---------------------------------------------------------------------

 SCF Done:  E(RHF) =  -375.412951482     A.U. after   10 cycles
 E2 =    -0.1203426030D+01 EUMP2 =    -0.37661637751191D+03
 CCSD(T)
 CCSD(T)= -0.37665428736D+03

 The electronic state is 1-SGG.
 Alpha  occ. eigenvalues --  -20.64830 -20.64830 -20.64807 -20.64807 -11.45792
 Alpha  occ. eigenvalues --  -11.45792  -1.52612  -1.52612  -1.47311  -1.47311
 Alpha  occ. eigenvalues --   -0.79716  -0.79706  -0.73901  -0.73887  -0.71088
 Alpha  occ. eigenvalues --   -0.71088  -0.71087  -0.71087  -0.54059  -0.54059
 Alpha  occ. eigenvalues --   -0.54058  -0.54058
 Alpha virt. eigenvalues --    0.17552   0.17675   0.20665   0.20665   0.20667
 Alpha virt. eigenvalues --    0.20667   0.33851   0.34764   0.39658   0.39658
 Alpha virt. eigenvalues --    0.39662   0.39662   0.54880   0.54932   0.65412

 Mulliken charges:
               1
     1  O   -0.269703
     2  C    0.535446
     3  O   -0.265742
     4  O   -0.265742
     5  C    0.535446
     6  O   -0.269703
 Sum of Mulliken charges =   0.00000

 Dipole moment (field-independent basis, Debye):
    X=             -0.0000    Y=             -0.0000    Z=              0.0000  Tot=              0.0000
 Quadrupole moment (field-independent basis, Debye-Ang):
   XX=            -29.3906   YY=            -29.3906   ZZ=            -39.9617
   XY=              0.0000   XZ=              0.0000   YZ=             -0.0000

 71412\CCSD(T)=-376.6542874\RMSD=4.694e-09\PG=D*H [C*(O1C1O1.O1C1O1)]\\
 Normal termination of Gaussian 16 at Mon Feb 12 22:33:22 2024.
