 Gaussian 16, Revision A.03,
 Gaussian 16:  ES64L-G16RevA.03 25-Dec-2016

 ------------------
 #p CCSD(T)/cc-pVTZ
 ------------------

 -----------
 CO2_CO2_120
 -----------
 Symbolic Z-matrix:
 Charge =  0 Multiplicity = 1

                         Standard orientation:
 ---------------------------------------------------------------------
 Center     Atomic      Atomic             Coordinates (Angstroms)
 Number     Number       Type             X           Y           Z
 ---------------------------------------------------------------------
      1          8           0        0.000000    0.000000    3.626000
      2          6           0        0.000000    0.000000    2.463000
      3          8           0        0.000000    0.000000    1.300000
      4          8           0        0.000000    0.000000   -1.300000
      5          6           0        0.000000    0.000000   -2.463000
      6          8           0        0.000000    0.000000   -3.626000
 ---------------------------------------------------------------------

 SCF Done:  E(RHF) =  -375.409037437     A.U. after   10 cycles
 E2 =    -0.1205762493D+01 EUMP2 =    -0.37661479992991D+03
 CCSD(T)
 CCSD(T)= -0.37665240261D+03

 The electronic state is 1-SGG.
 Alpha  occ. eigenvalues --  -20.64449 -20.64448 -20.64243 -20.64243 -11.45299
 Alpha  occ. eigenvalues --  -11.45299  -1.52266  -1.52140  -1.46986  -1.46796
 Alpha  occ. eigenvalues --   -0.80576  -0.78416  -0.74512  -0.71833  -0.70788
 Alpha  occ. eigenvalues --   -0.70788  -0.70571  -0.70571  -0.53885  -0.53885
 Alpha  occ. eigenvalues --   -0.53365  -0.53365
 Alpha virt. eigenvalues --    0.17524   0.18362   0.20637   0.20637   0.21410
 Alpha virt. eigenvalues --    0.21410   0.33267   0.38104   0.39445   0.39445
 Alpha virt. eigenvalues --    0.40298   0.40298   0.54132   0.54964   0.67359

 Mulliken charges:
               1
     1  O   -0.286719
     2  C    0.522610
     3  O   -0.235891
     4  O   -0.235891
     5  C    0.522610
     6  O   -0.286719
 Sum of Mulliken charges =   0.00000

 Dipole moment (field-independent basis, Debye):
    X=             -0.0000    Y=             -0.0000    Z=             -0.0000  Tot=              0.0000
 Quadrupole moment (field-independent basis, Debye-Ang):
   XX=            -29.4075   YY=            -29.4075   ZZ=            -40.6446
   XY=              0.0000   XZ=              0.0000   YZ=              0.0000

 \CCSD(T)=-376.6524026\RMSD=5.016e-09\PG=D*H [C*(O1C1O1.O1C1O1)]\\@
 Normal termination of Gaussian 16 at Sat Feb 10 16:42:11 2024.
