 Gaussian 16, Revision A.03,
 Gaussian 16:  ES64L-G16RevA.03 25-Dec-2016

 ------------------
 #p CCSD(T)/cc-pVTZ
 ------------------

 -----------
 CO2_CO2_140
 -----------
 Symbolic Z-matrix:
 Charge =  0 Multiplicity = 1

                         Standard orientation:
 ---------------------------------------------------------------------
 Center     Atomic      Atomic             Coordinates (Angstroms)
 Number     Number       Type             X           Y           Z
 ---------------------------------------------------------------------
      1          8           0       -1.744500   -2.001500    0.000000
      2          6           0       -0.581500   -2.001500    0.000000
      3          8           0        0.581500   -2.001500    0.000000
      4          8           0        0.581500    0.838500    0.000000
      5          6           0        0.581500    2.001500    0.000000
      6          8           0        0.581500    3.164500    0.000000
 ---------------------------------------------------------------------

 SCF Done:  E(RHF) =  -375.412069866     A.U. after   12 cycles
 E2 =    -0.1205054867D+01 EUMP2 =    -0.37661712473349D+03
 CCSD(T)
 CCSD(T)= -0.37665495202D+03

 The electronic state is 1-A'.
 Alpha  occ. eigenvalues --  -20.65383 -20.65376 -20.64334 -20.64096 -11.46382
 Alpha  occ. eigenvalues --  -11.45230  -1.53204  -1.52040  -1.47906  -1.46736
 Alpha  occ. eigenvalues --   -0.80496  -0.79185  -0.74811  -0.73335  -0.71676
 Alpha  occ. eigenvalues --   -0.71671  -0.70528  -0.70176  -0.54676  -0.54666
 Alpha  occ. eigenvalues --   -0.53496  -0.53443
 Alpha virt. eigenvalues --    0.16335   0.19155   0.19774   0.20058   0.21191
 Alpha virt. eigenvalues --    0.22066   0.34430   0.34713   0.38062   0.39204
 Alpha virt. eigenvalues --    0.41172   0.45342   0.53978   0.56784   0.65129

 Mulliken charges:
               1
     1  O   -0.274900
     2  C    0.535792
     3  O   -0.263812
     4  O   -0.260406
     5  C    0.538475
     6  O   -0.275149
 Sum of Mulliken charges =  -0.00000

 Dipole moment (field-independent basis, Debye):
    X=              0.1099    Y=              0.1388    Z=              0.0000  Tot=              0.1771
 Quadrupole moment (field-independent basis, Debye-Ang):
   XX=            -34.5940   YY=            -34.6162   ZZ=            -29.3919
   XY=             -0.0455   XZ=              0.0000   YZ=              0.0000

 481\CCSD(T)=-376.654952\RMSD=9.057e-09\PG=CS [SG(C2O4)]\\@
 Normal termination of Gaussian 16 at Sat Feb 10 18:22:42 2024.
