 Gaussian 16, Revision A.03,
 Gaussian 16:  ES64L-G16RevA.03 25-Dec-2016

 ------------------
 #p CCSD(T)/cc-pVTZ
 ------------------

 ----------
 CO2_CO2_16
 ----------
 Symbolic Z-matrix:
 Charge =  0 Multiplicity = 1

                         Standard orientation:
 ---------------------------------------------------------------------
 Center     Atomic      Atomic             Coordinates (Angstroms)
 Number     Number       Type             X           Y           Z
 ---------------------------------------------------------------------
      1          8           0        1.233548   -2.415048    0.000000
      2          6           0        0.411183   -1.592683    0.000000
      3          8           0       -0.411183   -0.770317    0.000000
      4          8           0       -0.411183    0.429682   -0.000000
      5          6           0       -0.411183    1.592682   -0.000000
      6          8           0       -0.411183    2.755683   -0.000000
 ---------------------------------------------------------------------

 SCF Done:  E(RHF) =  -374.783967397     A.U. after   18 cycles
 E2 =    -0.1278132425D+01 EUMP2 =    -0.37606209982165D+03
 CCSD(T)
 CCSD(T)= -0.37608885074D+03

 The electronic state is 1-A'.
 Alpha  occ. eigenvalues --  -20.70474 -20.69432 -20.66931 -20.56571 -11.47640
 Alpha  occ. eigenvalues --  -11.34449  -1.74628  -1.52696  -1.47186  -1.41441
 Alpha  occ. eigenvalues --   -1.13067  -0.84626  -0.83975  -0.78836  -0.70552
 Alpha  occ. eigenvalues --   -0.68795  -0.68724  -0.59176  -0.58298  -0.53178
 Alpha  occ. eigenvalues --   -0.48576  -0.22123
 Alpha virt. eigenvalues --    0.14247   0.15474   0.15532   0.19069   0.25280
 Alpha virt. eigenvalues --    0.27385   0.33299   0.36007   0.36480   0.38690
 Alpha virt. eigenvalues --    0.45123   0.49378   0.53912   0.61995   0.66860

 Mulliken charges:
               1
     1  O   -0.352133
     2  C    0.253793
     3  O   -0.085338
     4  O   -0.012174
     5  C    0.440937
     6  O   -0.245084
 Sum of Mulliken charges =   0.00000

 Dipole moment (field-independent basis, Debye):
    X=             -1.3295    Y=              2.9746    Z=             -0.0000  Tot=              3.2582
 Quadrupole moment (field-independent basis, Debye-Ang):
   XX=            -33.0602   YY=            -45.0671   ZZ=            -29.0927
   XY=              4.1063   XZ=             -0.0000   YZ=              0.0000

 -376.0338282\CCSD=-376.0198254\CCSD(T)=-376.0888507\RMSD=6.018e-09\PG=
 Normal termination of Gaussian 16 at Fri Feb  9 20:14:42 2024.
