 Gaussian 16, Revision A.03,
 Gaussian 16:  ES64L-G16RevA.03 25-Dec-2016

 ------------------
 #p CCSD(T)/cc-pVTZ
 ------------------

 -----------
 CO2_CO2_142
 -----------
 Symbolic Z-matrix:
 Charge =  0 Multiplicity = 1

                         Standard orientation:
 ---------------------------------------------------------------------
 Center     Atomic      Atomic             Coordinates (Angstroms)
 Number     Number       Type             X           Y           Z
 ---------------------------------------------------------------------
      1          8           0        1.233548   -3.255048    0.000000
      2          6           0        0.411183   -2.432683    0.000000
      3          8           0       -0.411183   -1.610318    0.000000
      4          8           0       -0.411183    1.269683   -0.000000
      5          6           0       -0.411183    2.432683   -0.000000
      6          8           0       -0.411183    3.595683   -0.000000
 ---------------------------------------------------------------------

 SCF Done:  E(RHF) =  -375.411442083     A.U. after   11 cycles
 E2 =    -0.1204932185D+01 EUMP2 =    -0.37661637426831D+03
 CCSD(T)
 CCSD(T)= -0.37665411138D+03

 The electronic state is 1-A'.
 Alpha  occ. eigenvalues --  -20.64727 -20.64634 -20.64506 -20.64387 -11.45638
 Alpha  occ. eigenvalues --  -11.45410  -1.52503  -1.52258  -1.47202  -1.46945
 Alpha  occ. eigenvalues --   -0.80028  -0.79008  -0.74215  -0.73005  -0.70990
 Alpha  occ. eigenvalues --   -0.70983  -0.70730  -0.70664  -0.54000  -0.53972
 Alpha  occ. eigenvalues --   -0.53635  -0.53623
 Alpha virt. eigenvalues --    0.17147   0.18415   0.20665   0.20741   0.20986
 Alpha virt. eigenvalues --    0.21062   0.32868   0.36785   0.39315   0.39398
 Alpha virt. eigenvalues --    0.40228   0.41383   0.54572   0.55242   0.63551

 Mulliken charges:
               1
     1  O   -0.277156
     2  C    0.530599
     3  O   -0.253507
     4  O   -0.250896
     5  C    0.530429
     6  O   -0.279470
 Sum of Mulliken charges =  -0.00000

 Dipole moment (field-independent basis, Debye):
    X=             -0.0583    Y=              0.0170    Z=             -0.0000  Tot=              0.0607
 Quadrupole moment (field-independent basis, Debye-Ang):
   XX=            -31.9915   YY=            -37.7014   ZZ=            -29.3996
   XY=              2.6735   XZ=             -0.0000   YZ=              0.0000

 Q=-376.6050366\CCSD=-376.5967483\CCSD(T)=-376.6541114\RMSD=3.663e-09\P
 Normal termination of Gaussian 16 at Sat Feb 10 18:30:29 2024.
