 Gaussian 16, Revision A.03,
 Gaussian 16:  ES64L-G16RevA.03 25-Dec-2016

 ------------------
 #p CCSD(T)/cc-pVTZ
 ------------------

 -----------
 CO2_CO2_116
 -----------
 Symbolic Z-matrix:
 Charge =  0 Multiplicity = 1

                         Standard orientation:
 ---------------------------------------------------------------------
 Center     Atomic      Atomic             Coordinates (Angstroms)
 Number     Number       Type             X           Y           Z
 ---------------------------------------------------------------------
      1          8           0       -1.744500   -1.841500    0.000000
      2          6           0       -0.581500   -1.841500    0.000000
      3          8           0        0.581500   -1.841500    0.000000
      4          8           0        0.581500    0.678500    0.000000
      5          6           0        0.581500    1.841500    0.000000
      6          8           0        0.581500    3.004500    0.000000
 ---------------------------------------------------------------------

 SCF Done:  E(RHF) =  -375.407395462     A.U. after   13 cycles
 E2 =    -0.1206562575D+01 EUMP2 =    -0.37661395803677D+03
 CCSD(T)
 CCSD(T)= -0.37665164188D+03

 The electronic state is 1-A'.
 Alpha  occ. eigenvalues --  -20.65458 -20.65341 -20.64166 -20.63685 -11.46426
 Alpha  occ. eigenvalues --  -11.44985  -1.53317  -1.51828  -1.48007  -1.46503
 Alpha  occ. eigenvalues --   -0.80953  -0.78983  -0.75328  -0.73113  -0.71790
 Alpha  occ. eigenvalues --   -0.71735  -0.70298  -0.69407  -0.54810  -0.54761
 Alpha  occ. eigenvalues --   -0.53230  -0.53097
 Alpha virt. eigenvalues --    0.16162   0.19488   0.19667   0.19975   0.21343
 Alpha virt. eigenvalues --    0.22612   0.34305   0.35270   0.37558   0.39435
 Alpha virt. eigenvalues --    0.41887   0.46830   0.53352   0.57626   0.66661

 Mulliken charges:
               1
     1  O   -0.278568
     2  C    0.536966
     3  O   -0.263720
     4  O   -0.251978
     5  C    0.536286
     6  O   -0.278986
 Sum of Mulliken charges =  -0.00000

 Dipole moment (field-independent basis, Debye):
    X=              0.1601    Y=              0.1882    Z=              0.0000  Tot=              0.2471
 Quadrupole moment (field-independent basis, Debye-Ang):
   XX=            -34.6144   YY=            -34.7586   ZZ=            -29.3945
   XY=             -0.0633   XZ=              0.0000   YZ=              0.0000

 147\CCSD(T)=-376.6516419\RMSD=1.535e-09\PG=CS [SG(C2O4)]\\@
 Normal termination of Gaussian 16 at Sat Feb 10 16:25:41 2024.
