 Gaussian 16, Revision A.03,
 Gaussian 16:  ES64L-G16RevA.03 25-Dec-2016

 ------------------
 #p CCSD(T)/cc-pVTZ
 ------------------

 ----------
 CO2_CO2_80
 ----------
 Symbolic Z-matrix:
 Charge =  0 Multiplicity = 1

                         Standard orientation:
 ---------------------------------------------------------------------
 Center     Atomic      Atomic             Coordinates (Angstroms)
 Number     Number       Type             X           Y           Z
 ---------------------------------------------------------------------
      1          8           0       -1.744500   -1.601500    0.000000
      2          6           0       -0.581500   -1.601500    0.000000
      3          8           0        0.581500   -1.601500    0.000000
      4          8           0        0.581500    0.438500    0.000000
      5          6           0        0.581500    1.601500    0.000000
      6          8           0        0.581500    2.764500    0.000000
 ---------------------------------------------------------------------

 SCF Done:  E(RHF) =  -375.372496000     A.U. after   13 cycles
 E2 =    -0.1212658076D+01 EUMP2 =    -0.37658515407534D+03
 CCSD(T)
 CCSD(T)= -0.37662200394D+03

 The electronic state is 1-A'.
 Alpha  occ. eigenvalues --  -20.65556 -20.64794 -20.63826 -20.62420 -11.46293
 Alpha  occ. eigenvalues --  -11.44386  -1.53751  -1.51447  -1.48236  -1.45903
 Alpha  occ. eigenvalues --   -0.83373  -0.78676  -0.76493  -0.73071  -0.72150
 Alpha  occ. eigenvalues --   -0.71390  -0.69729  -0.66736  -0.55255  -0.54844
 Alpha  occ. eigenvalues --   -0.52427  -0.51445
 Alpha virt. eigenvalues --    0.15877   0.18840   0.19861   0.20674   0.21603
 Alpha virt. eigenvalues --    0.23628   0.33976   0.35962   0.36887   0.40032
 Alpha virt. eigenvalues --    0.43080   0.47539   0.53150   0.58305   0.66096

 Mulliken charges:
               1
     1  O   -0.285806
     2  C    0.531794
     3  O   -0.258145
     4  O   -0.234972
     5  C    0.530654
     6  O   -0.283525
 Sum of Mulliken charges =  -0.00000

 Dipole moment (field-independent basis, Debye):
    X=              0.2867    Y=              0.2904    Z=              0.0000  Tot=              0.4081
 Quadrupole moment (field-independent basis, Debye-Ang):
   XX=            -34.6316   YY=            -35.2292   ZZ=            -29.3776
   XY=             -0.1215   XZ=              0.0000   YZ=              0.0000

 33\CCSD(T)=-376.6220039\RMSD=5.007e-09\PG=CS [SG(C2O4)]\\@
 Normal termination of Gaussian 16 at Sat Feb 10 01:46:02 2024.
