 Gaussian 16, Revision A.03,
 Gaussian 16:  ES64L-G16RevA.03 25-Dec-2016

 ------------------
 #p CCSD(T)/cc-pVTZ
 ------------------

 -----------
 CO2_CO2_238
 -----------
 Symbolic Z-matrix:
 Charge =  0 Multiplicity = 1

                         Standard orientation:
 ---------------------------------------------------------------------
 Center     Atomic      Atomic             Coordinates (Angstroms)
 Number     Number       Type             X           Y           Z
 ---------------------------------------------------------------------
      1          8           0        1.233548   -3.895048    0.000000
      2          6           0        0.411183   -3.072683    0.000000
      3          8           0       -0.411183   -2.250317    0.000000
      4          8           0       -0.411183    1.909682   -0.000000
      5          6           0       -0.411183    3.072682   -0.000000
      6          8           0       -0.411183    4.235683   -0.000000
 ---------------------------------------------------------------------

 SCF Done:  E(RHF) =  -375.412954210     A.U. after   10 cycles
 E2 =    -0.1203559553D+01 EUMP2 =    -0.37661651376271D+03
 CCSD(T)
 CCSD(T)= -0.37665440469D+03

 The electronic state is 1-A'.
 Alpha  occ. eigenvalues --  -20.64875 -20.64857 -20.64757 -20.64725 -11.45838
 Alpha  occ. eigenvalues --  -11.45713  -1.52660  -1.52533  -1.47358  -1.47232
 Alpha  occ. eigenvalues --   -0.79761  -0.79627  -0.73947  -0.73805  -0.71135
 Alpha  occ. eigenvalues --   -0.71135  -0.71011  -0.71006  -0.54106  -0.54106
 Alpha  occ. eigenvalues --   -0.53981  -0.53975
 Alpha virt. eigenvalues --    0.17343   0.17848   0.20616   0.20618   0.20739
 Alpha virt. eigenvalues --    0.20747   0.32521   0.35887   0.39589   0.39601
 Alpha virt. eigenvalues --    0.39735   0.39822   0.54818   0.54988   0.63840

 Mulliken charges:
               1
     1  O   -0.270572
     2  C    0.535380
     3  O   -0.264771
     4  O   -0.265792
     5  C    0.535415
     6  O   -0.269660
 Sum of Mulliken charges =  -0.00000

 Dipole moment (field-independent basis, Debye):
    X=             -0.0215    Y=              0.0066    Z=             -0.0000  Tot=              0.0225
 Quadrupole moment (field-independent basis, Debye-Ang):
   XX=            -31.9720   YY=            -37.3667   ZZ=            -29.3914
   XY=              2.6133   XZ=             -0.0000   YZ=              0.0000

 Q=-376.6054259\CCSD=-376.5972398\CCSD(T)=-376.6544047\RMSD=9.603e-09\P
 Normal termination of Gaussian 16 at Mon Feb 12 19:19:17 2024.
