 Gaussian 16, Revision A.03,
 Gaussian 16:  ES64L-G16RevA.03 25-Dec-2016

 ------------------
 #p CCSD(T)/cc-pVTZ
 ------------------

 ----------
 CO2_CO2_93
 ----------
 Symbolic Z-matrix:
 Charge =  0 Multiplicity = 1

                         Standard orientation:
 ---------------------------------------------------------------------
 Center     Atomic      Atomic             Coordinates (Angstroms)
 Number     Number       Type             X           Y           Z
 ---------------------------------------------------------------------
      1          8           0        0.000000    0.000000    3.446000
      2          6           0        0.000000    0.000000    2.283000
      3          8           0        0.000000    0.000000    1.120000
      4          8           0        0.000000    0.000000   -1.120000
      5          6           0        0.000000    0.000000   -2.283000
      6          8           0        0.000000    0.000000   -3.446000
 ---------------------------------------------------------------------

 SCF Done:  E(RHF) =  -375.398195658     A.U. after   10 cycles
 E2 =    -0.1207946562D+01 EUMP2 =    -0.37660614221919D+03
 CCSD(T)
 CCSD(T)= -0.37664336911D+03

 The electronic state is 1-SGG.
 Alpha  occ. eigenvalues --  -20.64260 -20.64260 -20.63756 -20.63755 -11.44985
 Alpha  occ. eigenvalues --  -11.44985  -1.52198  -1.51840  -1.46959  -1.46431
 Alpha  occ. eigenvalues --   -0.82393  -0.77683  -0.75032  -0.70744  -0.70744
 Alpha  occ. eigenvalues --   -0.70227  -0.70227  -0.69410  -0.54012  -0.54012
 Alpha  occ. eigenvalues --   -0.52829  -0.52829
 Alpha virt. eigenvalues --    0.17373   0.18699   0.20482   0.20482   0.21894
 Alpha virt. eigenvalues --    0.21894   0.33000   0.38969   0.39130   0.39130
 Alpha virt. eigenvalues --    0.40673   0.40673   0.53555   0.55641   0.67284

 Mulliken charges:
               1
     1  O   -0.294720
     2  C    0.515410
     3  O   -0.220690
     4  O   -0.220690
     5  C    0.515410
     6  O   -0.294720
 Sum of Mulliken charges =   0.00000

 Dipole moment (field-independent basis, Debye):
    X=             -0.0000    Y=             -0.0000    Z=              0.0000  Tot=              0.0000
 Quadrupole moment (field-independent basis, Debye-Ang):
   XX=            -29.4124   YY=            -29.4124   ZZ=            -41.0241
   XY=              0.0000   XZ=              0.0000   YZ=              0.0000

 551\CCSD(T)=-376.6433691\RMSD=5.974e-09\PG=D*H [C*(O1C1O1.O1C1O1)]\\@
 Normal termination of Gaussian 16 at Sat Feb 10 02:46:34 2024.
