 Gaussian 16, Revision A.03,
 Gaussian 16:  ES64L-G16RevA.03 25-Dec-2016

 ------------------
 #p CCSD(T)/cc-pVTZ
 ------------------

 -----------
 CO2_CO2_102
 -----------
 Symbolic Z-matrix:
 Charge =  0 Multiplicity = 1

                         Standard orientation:
 ---------------------------------------------------------------------
 Center     Atomic      Atomic             Coordinates (Angstroms)
 Number     Number       Type             X           Y           Z
 ---------------------------------------------------------------------
      1          8           0        0.000000    0.000000    3.506000
      2          6           0        0.000000    0.000000    2.343000
      3          8           0        0.000000    0.000000    1.180000
      4          8           0        0.000000    0.000000   -1.180000
      5          6           0        0.000000    0.000000   -2.343000
      6          8           0        0.000000    0.000000   -3.506000
 ---------------------------------------------------------------------

 SCF Done:  E(RHF) =  -375.403572072     A.U. after   10 cycles
 E2 =    -0.1207008943D+01 EUMP2 =    -0.37661058101503D+03
 CCSD(T)
 CCSD(T)= -0.37664797674D+03

 The electronic state is 1-SGG.
 Alpha  occ. eigenvalues --  -20.64334 -20.64334 -20.63965 -20.63964 -11.45114
 Alpha  occ. eigenvalues --  -11.45114  -1.52214  -1.51962  -1.46957  -1.46582
 Alpha  occ. eigenvalues --   -0.81574  -0.77944  -0.74859  -0.70753  -0.70753
 Alpha  occ. eigenvalues --   -0.70462  -0.70367  -0.70367  -0.53948  -0.53948
 Alpha  occ. eigenvalues --   -0.53049  -0.53049
 Alpha virt. eigenvalues --    0.17427   0.18570   0.20546   0.20546   0.21702
 Alpha virt. eigenvalues --    0.21702   0.33108   0.38689   0.39249   0.39249
 Alpha virt. eigenvalues --    0.40530   0.40530   0.53731   0.55357   0.67123

 Mulliken charges:
               1
     1  O   -0.291821
     2  C    0.517277
     3  O   -0.225456
     4  O   -0.225456
     5  C    0.517277
     6  O   -0.291821
 Sum of Mulliken charges =  -0.00000

 Dipole moment (field-independent basis, Debye):
    X=             -0.0000    Y=              0.0000    Z=              0.0000  Tot=              0.0000
 Quadrupole moment (field-independent basis, Debye-Ang):
   XX=            -29.4120   YY=            -29.4120   ZZ=            -40.8742
   XY=              0.0000   XZ=              0.0000   YZ=              0.0000

 687\CCSD(T)=-376.6479767\RMSD=5.613e-09\PG=D*H [C*(O1C1O1.O1C1O1)]\\@
 Normal termination of Gaussian 16 at Sat Feb 10 03:31:47 2024.
