 Gaussian 16, Revision A.03,
 Gaussian 16:  ES64L-G16RevA.03 25-Dec-2016

 ------------------
 #p CCSD(T)/cc-pVTZ
 ------------------

 -----------
 CO2_CO2_160
 -----------
 Symbolic Z-matrix:
 Charge =  0 Multiplicity = 1

                         Standard orientation:
 ---------------------------------------------------------------------
 Center     Atomic      Atomic             Coordinates (Angstroms)
 Number     Number       Type             X           Y           Z
 ---------------------------------------------------------------------
      1          8           0        1.233548   -3.375048    0.000000
      2          6           0        0.411183   -2.552683    0.000000
      3          8           0       -0.411183   -1.730317    0.000000
      4          8           0       -0.411183    1.389682   -0.000000
      5          6           0       -0.411183    2.552682   -0.000000
      6          8           0       -0.411183    3.715683   -0.000000
 ---------------------------------------------------------------------

 SCF Done:  E(RHF) =  -375.412267195     A.U. after   11 cycles
 E2 =    -0.1204435299D+01 EUMP2 =    -0.37661670249436D+03
 CCSD(T)
 CCSD(T)= -0.37665449479D+03

 The electronic state is 1-A'.
 Alpha  occ. eigenvalues --  -20.64769 -20.64712 -20.64582 -20.64500 -11.45701
 Alpha  occ. eigenvalues --  -11.45503  -1.52546  -1.52340  -1.47243  -1.47033
 Alpha  occ. eigenvalues --   -0.79854  -0.79234  -0.74064  -0.73318  -0.71027
 Alpha  occ. eigenvalues --   -0.71026  -0.70818  -0.70788  -0.54012  -0.54000
 Alpha  occ. eigenvalues --   -0.53755  -0.53744
 Alpha virt. eigenvalues --    0.17167   0.18264   0.20675   0.20704   0.20917
 Alpha virt. eigenvalues --    0.20950   0.32405   0.36782   0.39449   0.39470
 Alpha virt. eigenvalues --    0.40057   0.40854   0.54795   0.55164   0.61560

 Mulliken charges:
               1
     1  O   -0.275309
     2  C    0.532344
     3  O   -0.256985
     4  O   -0.257071
     5  C    0.533049
     6  O   -0.276027
 Sum of Mulliken charges =  -0.00000

 Dipole moment (field-independent basis, Debye):
    X=             -0.0468    Y=              0.0118    Z=             -0.0000  Tot=              0.0483
 Quadrupole moment (field-independent basis, Debye-Ang):
   XX=            -31.9837   YY=            -37.5933   ZZ=            -29.3963
   XY=              2.6542   XZ=             -0.0000   YZ=              0.0000

 =-376.6054555\CCSD=-376.5972025\CCSD(T)=-376.6544948\RMSD=3.267e-09\PG
 Normal termination of Gaussian 16 at Sat Feb 10 19:58:04 2024.
