 Gaussian 16, Revision A.03,
 Gaussian 16:  ES64L-G16RevA.03 25-Dec-2016

 ------------------
 #p CCSD(T)/cc-pVTZ
 ------------------

 ----------
 CO2_CO2_21
 ----------
 Symbolic Z-matrix:
 Charge =  0 Multiplicity = 1

                         Standard orientation:
 ---------------------------------------------------------------------
 Center     Atomic      Atomic             Coordinates (Angstroms)
 Number     Number       Type             X           Y           Z
 ---------------------------------------------------------------------
      1          8           0        0.000000    0.000000    2.966000
      2          6           0        0.000000    0.000000    1.803000
      3          8           0        0.000000    0.000000    0.640000
      4          8           0        0.000000    0.000000   -0.640000
      5          6           0        0.000000    0.000000   -1.803000
      6          8           0        0.000000    0.000000   -2.966000
 ---------------------------------------------------------------------

 SCF Done:  E(RHF) =  -374.888798149     A.U. after   12 cycles
 E2 =    -0.1264730943D+01 EUMP2 =    -0.37615352909224D+03
 CCSD(T)
 CCSD(T)= -0.37618068091D+03

 The electronic state is 1-SGG.
 Alpha  occ. eigenvalues --  -20.62639 -20.62639 -20.61499 -20.61478 -11.40971
 Alpha  occ. eigenvalues --  -11.40970  -1.62279  -1.49378  -1.47686  -1.42957
 Alpha  occ. eigenvalues --   -1.07855  -0.75511  -0.75511  -0.75344  -0.74770
 Alpha  occ. eigenvalues --   -0.67162  -0.67162  -0.57935  -0.57935  -0.47579
 Alpha  occ. eigenvalues --   -0.47579  -0.31234
 Alpha virt. eigenvalues --    0.16677   0.17996   0.17996   0.21466   0.25588
 Alpha virt. eigenvalues --    0.25588   0.30560   0.38331   0.38331   0.41005
 Alpha virt. eigenvalues --    0.43121   0.43121   0.51783   0.62629   0.67194

 Mulliken charges:
               1
     1  O   -0.314259
     2  C    0.479356
     3  O   -0.165097
     4  O   -0.165097
     5  C    0.479356
     6  O   -0.314259
 Sum of Mulliken charges =   0.00000

 Dipole moment (field-independent basis, Debye):
    X=             -0.0000    Y=             -0.0000    Z=              0.0000  Tot=              0.0000
 Quadrupole moment (field-independent basis, Debye-Ang):
   XX=            -29.2316   YY=            -29.2316   ZZ=            -44.4991
   XY=             -0.0000   XZ=              0.0000   YZ=              0.0000

 6165\CCSD(T)=-376.1806809\RMSD=4.620e-09\PG=D*H [C*(O1C1O1.O1C1O1)]\\@
 Normal termination of Gaussian 16 at Fri Feb  9 20:39:27 2024.
