 Gaussian 16, Revision A.03,
 Gaussian 16:  ES64L-G16RevA.03 25-Dec-2016

 ------------------
 #p CCSD(T)/cc-pVTZ
 ------------------

 -----------
 CO2_CO2_246
 -----------
 Symbolic Z-matrix:
 Charge =  0 Multiplicity = 1

                         Standard orientation:
 ---------------------------------------------------------------------
 Center     Atomic      Atomic             Coordinates (Angstroms)
 Number     Number       Type             X           Y           Z
 ---------------------------------------------------------------------
      1          8           0        0.000000    0.000000    4.466000
      2          6           0        0.000000    0.000000    3.303000
      3          8           0        0.000000    0.000000    2.140000
      4          8           0        0.000000    0.000000   -2.140000
      5          6           0        0.000000    0.000000   -3.303000
      6          8           0        0.000000    0.000000   -4.466000
 ---------------------------------------------------------------------

 SCF Done:  E(RHF) =  -375.412869138     A.U. after   10 cycles
 E2 =    -0.1203551659D+01 EUMP2 =    -0.37661642079693D+03
 CCSD(T)
 CCSD(T)= -0.37665430927D+03

 The electronic state is 1-SGG.
 Alpha  occ. eigenvalues --  -20.64782 -20.64782 -20.64752 -20.64752 -11.45737
 Alpha  occ. eigenvalues --  -11.45737  -1.52561  -1.52560  -1.47259  -1.47258
 Alpha  occ. eigenvalues --   -0.79678  -0.79628  -0.73867  -0.73800  -0.71039
 Alpha  occ. eigenvalues --   -0.71039  -0.71035  -0.71035  -0.54010  -0.54010
 Alpha  occ. eigenvalues --   -0.54000  -0.54000
 Alpha virt. eigenvalues --    0.17459   0.17816   0.20705   0.20705   0.20723
 Alpha virt. eigenvalues --    0.20723   0.33012   0.35555   0.39689   0.39689
 Alpha virt. eigenvalues --    0.39711   0.39711   0.54909   0.54975   0.63289

 Mulliken charges:
               1
     1  O   -0.270299
     2  C    0.534887
     3  O   -0.264588
     4  O   -0.264588
     5  C    0.534887
     6  O   -0.270299
 Sum of Mulliken charges =   0.00000

 Dipole moment (field-independent basis, Debye):
    X=             -0.0000    Y=             -0.0000    Z=              0.0000  Tot=              0.0000
 Quadrupole moment (field-independent basis, Debye-Ang):
   XX=            -29.3919   YY=            -29.3919   ZZ=            -40.0400
   XY=              0.0000   XZ=              0.0000   YZ=             -0.0000

 46\CCSD(T)=-376.6543093\RMSD=4.697e-09\PG=D*H [C*(O1C1O1.O1C1O1)]\\@
 Normal termination of Gaussian 16 at Mon Feb 12 19:47:31 2024.
