 Gaussian 16, Revision A.03,
 Gaussian 16:  ES64L-G16RevA.03 25-Dec-2016

 ------------------
 #p CCSD(T)/cc-pVTZ
 ------------------

 -----------
 CO2_CO2_250
 -----------
 Symbolic Z-matrix:
 Charge =  0 Multiplicity = 1

                         Standard orientation:
 ---------------------------------------------------------------------
 Center     Atomic      Atomic             Coordinates (Angstroms)
 Number     Number       Type             X           Y           Z
 ---------------------------------------------------------------------
      1          8           0        1.233548   -3.975048   -0.000000
      2          6           0        0.411183   -3.152683   -0.000000
      3          8           0       -0.411183   -2.330317   -0.000000
      4          8           0       -0.411183    1.989682    0.000000
      5          6           0       -0.411183    3.152682    0.000000
      6          8           0       -0.411183    4.315683    0.000000
 ---------------------------------------------------------------------

 SCF Done:  E(RHF) =  -375.412971320     A.U. after   10 cycles
 E2 =    -0.1203508302D+01 EUMP2 =    -0.37661647962220D+03
 CCSD(T)
 CCSD(T)= -0.37665437843D+03

 The electronic state is 1-A'.
 Alpha  occ. eigenvalues --  -20.64885 -20.64868 -20.64773 -20.64743 -11.45850
 Alpha  occ. eigenvalues --  -11.45731  -1.52670  -1.52551  -1.47369  -1.47250
 Alpha  occ. eigenvalues --   -0.79770  -0.79649  -0.73955  -0.73830  -0.71145
 Alpha  occ. eigenvalues --   -0.71145  -0.71028  -0.71024  -0.54117  -0.54117
 Alpha  occ. eigenvalues --   -0.53999  -0.53994
 Alpha virt. eigenvalues --    0.17392   0.17799   0.20607   0.20608   0.20722
 Alpha virt. eigenvalues --    0.20730   0.32829   0.35628   0.39590   0.39598
 Alpha virt. eigenvalues --    0.39718   0.39775   0.54812   0.54980   0.64469

 Mulliken charges:
               1
     1  O   -0.270319
     2  C    0.535510
     3  O   -0.265169
     4  O   -0.266092
     5  C    0.535527
     6  O   -0.269456
 Sum of Mulliken charges =  -0.00000

 Dipole moment (field-independent basis, Debye):
    X=             -0.0194    Y=              0.0064    Z=             -0.0000  Tot=              0.0205
 Quadrupole moment (field-independent basis, Debye-Ang):
   XX=            -31.9711   YY=            -37.3489   ZZ=            -29.3910
   XY=              2.6100   XZ=             -0.0000   YZ=             -0.0000

 Q=-376.6054023\CCSD=-376.5972207\CCSD(T)=-376.6543784\RMSD=8.446e-09\P
 Normal termination of Gaussian 16 at Mon Feb 12 20:04:19 2024.
