 Gaussian 16, Revision A.03,
 Gaussian 16:  ES64L-G16RevA.03 25-Dec-2016

 ------------------
 #p CCSD(T)/cc-pVTZ
 ------------------

 -----------
 CO2_CO2_221
 -----------
 Symbolic Z-matrix:
 Charge =  0 Multiplicity = 1

                         Standard orientation:
 ---------------------------------------------------------------------
 Center     Atomic      Atomic             Coordinates (Angstroms)
 Number     Number       Type             X           Y           Z
 ---------------------------------------------------------------------
      1          8           0       -1.744500   -2.541500    0.000000
      2          6           0       -0.581500   -2.541500    0.000000
      3          8           0        0.581500   -2.541500    0.000000
      4          8           0        0.581500    1.378500    0.000000
      5          6           0        0.581500    2.541500    0.000000
      6          8           0        0.581500    3.704500    0.000000
 ---------------------------------------------------------------------

 SCF Done:  E(RHF) =  -375.413507931     A.U. after   10 cycles
 E2 =    -0.1203534928D+01 EUMP2 =    -0.37661704285855D+03
 CCSD(T)
 CCSD(T)= -0.37665496521D+03

 The electronic state is 1-A'.
 Alpha  occ. eigenvalues --  -20.65227 -20.65191 -20.64647 -20.64606 -11.46197
 Alpha  occ. eigenvalues --  -11.45613  -1.52998  -1.52417  -1.47701  -1.47120
 Alpha  occ. eigenvalues --   -0.80126  -0.79542  -0.74316  -0.73728  -0.71471
 Alpha  occ. eigenvalues --   -0.71469  -0.70900  -0.70871  -0.54455  -0.54454
 Alpha  occ. eigenvalues --   -0.53880  -0.53866
 Alpha virt. eigenvalues --    0.16548   0.18215   0.20227   0.20283   0.20858
 Alpha virt. eigenvalues --    0.20990   0.32553   0.34810   0.39190   0.39233
 Alpha virt. eigenvalues --    0.39958   0.41279   0.54502   0.54712   0.65377

 Mulliken charges:
               1
     1  O   -0.271174
     2  C    0.537946
     3  O   -0.267129
     4  O   -0.270916
     5  C    0.539195
     6  O   -0.267922
 Sum of Mulliken charges =  -0.00000

 Dipole moment (field-independent basis, Debye):
    X=              0.0353    Y=              0.0576    Z=              0.0000  Tot=              0.0675
 Quadrupole moment (field-independent basis, Debye-Ang):
   XX=            -34.5616   YY=            -34.5076   ZZ=            -29.3886
   XY=             -0.0190   XZ=              0.0000   YZ=              0.0000

 8\CCSD(T)=-376.6549652\RMSD=5.133e-09\PG=CS [SG(C2O4)]\\@
 Normal termination of Gaussian 16 at Sun Feb 11 00:57:12 2024.
