 Gaussian 16, Revision A.03,
 Gaussian 16:  ES64L-G16RevA.03 25-Dec-2016

 ------------------
 #p CCSD(T)/cc-pVTZ
 ------------------

 -----------
 CO2_CO2_141
 -----------
 Symbolic Z-matrix:
 Charge =  0 Multiplicity = 1

                         Standard orientation:
 ---------------------------------------------------------------------
 Center     Atomic      Atomic             Coordinates (Angstroms)
 Number     Number       Type             X           Y           Z
 ---------------------------------------------------------------------
      1          8           0        0.000000    0.000000    3.766000
      2          6           0        0.000000    0.000000    2.603000
      3          8           0        0.000000    0.000000    1.440000
      4          8           0        0.000000    0.000000   -1.440000
      5          6           0        0.000000    0.000000   -2.603000
      6          8           0        0.000000    0.000000   -3.766000
 ---------------------------------------------------------------------

 SCF Done:  E(RHF) =  -375.411373160     A.U. after   10 cycles
 E2 =    -0.1204905852D+01 EUMP2 =    -0.37661627901164D+03
 CCSD(T)
 CCSD(T)= -0.37665400320D+03

 The electronic state is 1-SGG.
 Alpha  occ. eigenvalues --  -20.64545 -20.64545 -20.64430 -20.64430 -11.45440
 Alpha  occ. eigenvalues --  -11.45440  -1.52333  -1.52278  -1.47040  -1.46954
 Alpha  occ. eigenvalues --   -0.80029  -0.78846  -0.74196  -0.72710  -0.70839
 Alpha  occ. eigenvalues --   -0.70839  -0.70728  -0.70728  -0.53872  -0.53872
 Alpha  occ. eigenvalues --   -0.53598  -0.53598
 Alpha virt. eigenvalues --    0.17558   0.18192   0.20701   0.20701   0.21175
 Alpha virt. eigenvalues --    0.21175   0.33109   0.37504   0.39592   0.39592
 Alpha virt. eigenvalues --    0.40099   0.40099   0.54600   0.54768   0.62483

 Mulliken charges:
               1
     1  O   -0.281573
     2  C    0.528222
     3  O   -0.246649
     4  O   -0.246649
     5  C    0.528222
     6  O   -0.281573
 Sum of Mulliken charges =  -0.00000

 Dipole moment (field-independent basis, Debye):
    X=             -0.0000    Y=              0.0000    Z=              0.0000  Tot=              0.0000
 Quadrupole moment (field-independent basis, Debye-Ang):
   XX=            -29.4016   YY=            -29.4016   ZZ=            -40.4561
   XY=              0.0000   XZ=              0.0000   YZ=              0.0000

 534\CCSD(T)=-376.6540032\RMSD=4.643e-09\PG=D*H [C*(O1C1O1.O1C1O1)]\\@
 Normal termination of Gaussian 16 at Sat Feb 10 18:24:38 2024.
