 Gaussian 16, Revision A.03,
 Gaussian 16:  ES64L-G16RevA.03 25-Dec-2016

 ------------------
 #p CCSD(T)/cc-pVTZ
 ------------------

 -----------
 CO2_CO2_191
 -----------
 Symbolic Z-matrix:
 Charge =  0 Multiplicity = 1

                         Standard orientation:
 ---------------------------------------------------------------------
 Center     Atomic      Atomic             Coordinates (Angstroms)
 Number     Number       Type             X           Y           Z
 ---------------------------------------------------------------------
      1          8           0       -1.744500   -2.341500    0.000000
      2          6           0       -0.581500   -2.341500    0.000000
      3          8           0        0.581500   -2.341500    0.000000
      4          8           0        0.581500    1.178500    0.000000
      5          6           0        0.581500    2.341500    0.000000
      6          8           0        0.581500    3.504500    0.000000
 ---------------------------------------------------------------------

 SCF Done:  E(RHF) =  -375.413563561     A.U. after   10 cycles
 E2 =    -0.1203805577D+01 EUMP2 =    -0.37661736913800D+03
 CCSD(T)
 CCSD(T)= -0.37665527539D+03

 The electronic state is 1-A'.
 Alpha  occ. eigenvalues --  -20.65289 -20.65245 -20.64565 -20.64495 -11.46257
 Alpha  occ. eigenvalues --  -11.45519  -1.53056  -1.52321  -1.47759  -1.47024
 Alpha  occ. eigenvalues --   -0.80196  -0.79452  -0.74400  -0.73635  -0.71529
 Alpha  occ. eigenvalues --   -0.71527  -0.70807  -0.70749  -0.54516  -0.54514
 Alpha  occ. eigenvalues --   -0.53788  -0.53767
 Alpha virt. eigenvalues --    0.16427   0.18457   0.20109   0.20214   0.20951
 Alpha virt. eigenvalues --    0.21272   0.32981   0.34679   0.38918   0.39142
 Alpha virt. eigenvalues --    0.40223   0.42315   0.54474   0.54995   0.64452

 Mulliken charges:
               1
     1  O   -0.271749
     2  C    0.537157
     3  O   -0.266131
     4  O   -0.269295
     5  C    0.539589
     6  O   -0.269570
 Sum of Mulliken charges =  -0.00000

 Dipole moment (field-independent basis, Debye):
    X=              0.0516    Y=              0.0776    Z=              0.0000  Tot=              0.0932
 Quadrupole moment (field-independent basis, Debye-Ang):
   XX=            -34.5686   YY=            -34.5138   ZZ=            -29.3887
   XY=             -0.0235   XZ=              0.0000   YZ=              0.0000

 685\CCSD(T)=-376.6552754\RMSD=6.239e-09\PG=CS [SG(C2O4)]\\@
 Normal termination of Gaussian 16 at Sat Feb 10 22:29:47 2024.
