 Gaussian 16, Revision A.03,
 Gaussian 16:  ES64L-G16RevA.03 25-Dec-2016

 ------------------
 #p CCSD(T)/cc-pVTZ
 ------------------

 -----------
 CO2_CO2_206
 -----------
 Symbolic Z-matrix:
 Charge =  0 Multiplicity = 1

                         Standard orientation:
 ---------------------------------------------------------------------
 Center     Atomic      Atomic             Coordinates (Angstroms)
 Number     Number       Type             X           Y           Z
 ---------------------------------------------------------------------
      1          8           0       -1.744500   -2.441500    0.000000
      2          6           0       -0.581500   -2.441500    0.000000
      3          8           0        0.581500   -2.441500    0.000000
      4          8           0        0.581500    1.278500    0.000000
      5          6           0        0.581500    2.441500    0.000000
      6          8           0        0.581500    3.604500    0.000000
 ---------------------------------------------------------------------

 SCF Done:  E(RHF) =  -375.413552366     A.U. after   10 cycles
 E2 =    -0.1203647352D+01 EUMP2 =    -0.37661719971817D+03
 CCSD(T)
 CCSD(T)= -0.37665511496D+03

 The electronic state is 1-A'.
 Alpha  occ. eigenvalues --  -20.65257 -20.65216 -20.64609 -20.64557 -11.46225
 Alpha  occ. eigenvalues --  -11.45571  -1.53025  -1.52373  -1.47728  -1.47076
 Alpha  occ. eigenvalues --   -0.80157  -0.79501  -0.74352  -0.73687  -0.71498
 Alpha  occ. eigenvalues --   -0.71496  -0.70858  -0.70818  -0.54484  -0.54482
 Alpha  occ. eigenvalues --   -0.53838  -0.53821
 Alpha virt. eigenvalues --    0.16465   0.18326   0.20173   0.20251   0.20901
 Alpha virt. eigenvalues --    0.21115   0.32673   0.34754   0.39075   0.39186
 Alpha virt. eigenvalues --    0.40070   0.41743   0.54522   0.54754   0.64996

 Mulliken charges:
               1
     1  O   -0.271439
     2  C    0.537643
     3  O   -0.266712
     4  O   -0.270354
     5  C    0.539463
     6  O   -0.268602
 Sum of Mulliken charges =  -0.00000

 Dipole moment (field-independent basis, Debye):
    X=              0.0424    Y=              0.0666    Z=              0.0000  Tot=              0.0790
 Quadrupole moment (field-independent basis, Debye-Ang):
   XX=            -34.5647   YY=            -34.5082   ZZ=            -29.3886
   XY=             -0.0207   XZ=              0.0000   YZ=              0.0000

 9326\CCSD(T)=-376.655115\RMSD=5.587e-09\PG=CS [SG(C2O4)]\\@
 Normal termination of Gaussian 16 at Sat Feb 10 23:43:45 2024.
