 Gaussian 16, Revision A.03,
 Gaussian 16:  ES64L-G16RevA.03 25-Dec-2016

 ------------------
 #p CCSD(T)/cc-pVTZ
 ------------------

 -----------
 CO2_CO2_167
 -----------
 Symbolic Z-matrix:
 Charge =  0 Multiplicity = 1

                         Standard orientation:
 ---------------------------------------------------------------------
 Center     Atomic      Atomic             Coordinates (Angstroms)
 Number     Number       Type             X           Y           Z
 ---------------------------------------------------------------------
      1          8           0       -1.744500   -2.181500    0.000000
      2          6           0       -0.581500   -2.181500    0.000000
      3          8           0        0.581500   -2.181500    0.000000
      4          8           0        0.581500    1.018500    0.000000
      5          6           0        0.581500    2.181500    0.000000
      6          8           0        0.581500    3.344500    0.000000
 ---------------------------------------------------------------------

 SCF Done:  E(RHF) =  -375.413369953     A.U. after   10 cycles
 E2 =    -0.1204206925D+01 EUMP2 =    -0.37661757687785D+03
 CCSD(T)
 CCSD(T)= -0.37665546130D+03

 The electronic state is 1-A'.
 Alpha  occ. eigenvalues --  -20.65341 -20.65300 -20.64475 -20.64356 -11.46314
 Alpha  occ. eigenvalues --  -11.45411  -1.53116  -1.52213  -1.47819  -1.46914
 Alpha  occ. eigenvalues --   -0.80288  -0.79349  -0.74522  -0.73524  -0.71588
 Alpha  occ. eigenvalues --   -0.71587  -0.70701  -0.70575  -0.54579  -0.54577
 Alpha  occ. eigenvalues --   -0.53681  -0.53651
 Alpha virt. eigenvalues --    0.16411   0.18732   0.19977   0.20146   0.21050
 Alpha virt. eigenvalues --    0.21591   0.33774   0.34555   0.38572   0.39109
 Alpha virt. eigenvalues --    0.40576   0.43539   0.54353   0.55704   0.63742

 Mulliken charges:
               1
     1  O   -0.272646
     2  C    0.536238
     3  O   -0.264969
     4  O   -0.266290
     5  C    0.539407
     6  O   -0.271740
 Sum of Mulliken charges =  -0.00000

 Dipole moment (field-independent basis, Debye):
    X=              0.0727    Y=              0.1008    Z=              0.0000  Tot=              0.1243
 Quadrupole moment (field-independent basis, Debye-Ang):
   XX=            -34.5775   YY=            -34.5403   ZZ=            -29.3895
   XY=             -0.0313   XZ=              0.0000   YZ=              0.0000

 \CCSD(T)=-376.6554613\RMSD=8.552e-09\PG=CS [SG(C2O4)]\\@
 Normal termination of Gaussian 16 at Sat Feb 10 20:32:24 2024.
