 Gaussian 16, Revision A.03,
 Gaussian 16:  ES64L-G16RevA.03 25-Dec-2016

 ------------------
 #p CCSD(T)/cc-pVTZ
 ------------------

 ----------
 CO2_CO2_69
 ----------
 Symbolic Z-matrix:
 Charge =  0 Multiplicity = 1

                         Standard orientation:
 ---------------------------------------------------------------------
 Center     Atomic      Atomic             Coordinates (Angstroms)
 Number     Number       Type             X           Y           Z
 ---------------------------------------------------------------------
      1          8           0        0.000000    0.000000    3.286000
      2          6           0        0.000000    0.000000    2.123000
      3          8           0        0.000000    0.000000    0.960000
      4          8           0        0.000000    0.000000   -0.960000
      5          6           0        0.000000    0.000000   -2.123000
      6          8           0        0.000000    0.000000   -3.286000
 ---------------------------------------------------------------------

 SCF Done:  E(RHF) =  -375.362956149     A.U. after   10 cycles
 E2 =    -0.1212518470D+01 EUMP2 =    -0.37657547461964D+03
 CCSD(T)
 CCSD(T)= -0.37661180653D+03

 The electronic state is 1-SGG.
 Alpha  occ. eigenvalues --  -20.63985 -20.63985 -20.62839 -20.62838 -11.44437
 Alpha  occ. eigenvalues --  -11.44437  -1.52295  -1.51361  -1.47097  -1.45786
 Alpha  occ. eigenvalues --   -0.86353  -0.76958  -0.75347  -0.70815  -0.70815
 Alpha  occ. eigenvalues --   -0.69668  -0.69668  -0.64495  -0.54404  -0.54404
 Alpha  occ. eigenvalues --   -0.51913  -0.51913
 Alpha virt. eigenvalues --    0.17269   0.19147   0.20201   0.20201   0.22634
 Alpha virt. eigenvalues --    0.22634   0.32695   0.38773   0.38773   0.39641
 Alpha virt. eigenvalues --    0.41173   0.41173   0.53263   0.56757   0.68376

 Mulliken charges:
               1
     1  O   -0.304842
     2  C    0.516579
     3  O   -0.211737
     4  O   -0.211737
     5  C    0.516579
     6  O   -0.304842
 Sum of Mulliken charges =  -0.00000

 Dipole moment (field-independent basis, Debye):
    X=             -0.0000    Y=              0.0000    Z=              0.0000  Tot=              0.0000
 Quadrupole moment (field-independent basis, Debye-Ang):
   XX=            -29.3985   YY=            -29.3985   ZZ=            -41.5832
   XY=              0.0000   XZ=              0.0000   YZ=              0.0000

 6007\CCSD(T)=-376.6118065\RMSD=7.032e-09\PG=D*H [C*(O1C1O1.O1C1O1)]\\@
 Normal termination of Gaussian 16 at Sat Feb 10 00:47:41 2024.
