 Gaussian 16, Revision A.03,
 Gaussian 16:  ES64L-G16RevA.03 25-Dec-2016

 ------------------
 #p CCSD(T)/cc-pVTZ
 ------------------

 -----------
 CO2_CO2_264
 -----------
 Symbolic Z-matrix:
 Charge =  0 Multiplicity = 1

                         Standard orientation:
 ---------------------------------------------------------------------
 Center     Atomic      Atomic             Coordinates (Angstroms)
 Number     Number       Type             X           Y           Z
 ---------------------------------------------------------------------
      1          8           0        0.000000    0.000000    4.586000
      2          6           0        0.000000    0.000000    3.423000
      3          8           0        0.000000    0.000000    2.260000
      4          8           0        0.000000    0.000000   -2.260000
      5          6           0        0.000000    0.000000   -3.423000
      6          8           0        0.000000    0.000000   -4.586000
 ---------------------------------------------------------------------

 SCF Done:  E(RHF) =  -375.412905409     A.U. after   10 cycles
 E2 =    -0.1203488668D+01 EUMP2 =    -0.37661639407762D+03
 CCSD(T)
 CCSD(T)= -0.37665429299D+03

 The electronic state is 1-SGG.
 Alpha  occ. eigenvalues --  -20.64803 -20.64803 -20.64776 -20.64776 -11.45761
 Alpha  occ. eigenvalues --  -11.45761  -1.52584  -1.52583  -1.47282  -1.47282
 Alpha  occ. eigenvalues --   -0.79692  -0.79665  -0.73879  -0.73842  -0.71060
 Alpha  occ. eigenvalues --   -0.71060  -0.71058  -0.71058  -0.54031  -0.54031
 Alpha  occ. eigenvalues --   -0.54026  -0.54026
 Alpha virt. eigenvalues --    0.17506   0.17753   0.20689   0.20689   0.20697
 Alpha virt. eigenvalues --    0.20697   0.33415   0.35194   0.39677   0.39677
 Alpha virt. eigenvalues --    0.39688   0.39688   0.54890   0.54964   0.64430

 Mulliken charges:
               1
     1  O   -0.270005
     2  C    0.535119
     3  O   -0.265114
     4  O   -0.265114
     5  C    0.535119
     6  O   -0.270005
 Sum of Mulliken charges =   0.00000

 Dipole moment (field-independent basis, Debye):
    X=             -0.0000    Y=             -0.0000    Z=              0.0000  Tot=              0.0000
 Quadrupole moment (field-independent basis, Debye-Ang):
   XX=            -29.3913   YY=            -29.3913   ZZ=            -40.0060
   XY=              0.0000   XZ=              0.0000   YZ=             -0.0000

 71384\CCSD(T)=-376.654293\RMSD=4.694e-09\PG=D*H [C*(O1C1O1.O1C1O1)]\\@
 Normal termination of Gaussian 16 at Mon Feb 12 20:53:39 2024.
