 Gaussian 16, Revision A.03,
 Gaussian 16:  ES64L-G16RevA.03 25-Dec-2016

 ------------------
 #p CCSD(T)/cc-pVTZ
 ------------------

 -----------
 CO2_CO2_295
 -----------
 Symbolic Z-matrix:
 Charge =  0 Multiplicity = 1

                         Standard orientation:
 ---------------------------------------------------------------------
 Center     Atomic      Atomic             Coordinates (Angstroms)
 Number     Number       Type             X           Y           Z
 ---------------------------------------------------------------------
      1          8           0        1.233548   -4.275048    0.000000
      2          6           0        0.411183   -3.452683    0.000000
      3          8           0       -0.411183   -2.630317    0.000000
      4          8           0       -0.411183    2.289682    0.000000
      5          6           0       -0.411183    3.452683    0.000000
      6          8           0       -0.411183    4.615683    0.000000
 ---------------------------------------------------------------------

 SCF Done:  E(RHF) =  -375.413022156     A.U. after   10 cycles
 E2 =    -0.1203396203D+01 EUMP2 =    -0.37661641835929D+03
 CCSD(T)
 CCSD(T)= -0.37665433551D+03

 The electronic state is 1-A'.
 Alpha  occ. eigenvalues --  -20.64912 -20.64900 -20.64822 -20.64800 -11.45882
 Alpha  occ. eigenvalues --  -11.45787  -1.52699  -1.52604  -1.47399  -1.47304
 Alpha  occ. eigenvalues --   -0.79803  -0.79709  -0.73986  -0.73893  -0.71174
 Alpha  occ. eigenvalues --   -0.71174  -0.71080  -0.71078  -0.54147  -0.54147
 Alpha  occ. eigenvalues --   -0.54053  -0.54051
 Alpha virt. eigenvalues --    0.17502   0.17659   0.20581   0.20581   0.20673
 Alpha virt. eigenvalues --    0.20678   0.33733   0.34794   0.39581   0.39581
 Alpha virt. eigenvalues --    0.39671   0.39687   0.54813   0.54926   0.65679

 Mulliken charges:
               1
     1  O   -0.269724
     2  C    0.535910
     3  O   -0.266185
     4  O   -0.266866
     5  C    0.535928
     6  O   -0.269064
 Sum of Mulliken charges =  -0.00000

 Dipole moment (field-independent basis, Debye):
    X=             -0.0135    Y=              0.0054    Z=             -0.0000  Tot=              0.0146
 Quadrupole moment (field-independent basis, Debye-Ang):
   XX=            -31.9684   YY=            -37.2937   ZZ=            -29.3900
   XY=              2.6003   XZ=              0.0000   YZ=             -0.0000

 =-376.6053642\CCSD=-376.5971931\CCSD(T)=-376.6543355\RMSD=5.597e-09\PG
 Normal termination of Gaussian 16 at Mon Feb 12 22:48:51 2024.
