 Gaussian 16, Revision A.03,
 Gaussian 16:  ES64L-G16RevA.03 25-Dec-2016

 ------------------
 #p CCSD(T)/cc-pVTZ
 ------------------

 ----------
 CO2_CO2_10
 ----------
 Symbolic Z-matrix:
 Charge =  0 Multiplicity = 1

                         Standard orientation:
 ---------------------------------------------------------------------
 Center     Atomic      Atomic             Coordinates (Angstroms)
 Number     Number       Type             X           Y           Z
 ---------------------------------------------------------------------
      1          8           0        1.233548   -2.375048    0.000000
      2          6           0        0.411183   -1.552683    0.000000
      3          8           0       -0.411183   -0.730318   -0.000000
      4          8           0       -0.411183    0.389683   -0.000000
      5          6           0       -0.411183    1.552683   -0.000000
      6          8           0       -0.411183    2.715682   -0.000000
 ---------------------------------------------------------------------

 SCF Done:  E(RHF) =  -374.658501955     A.U. after   21 cycles
 E2 =    -0.1271415372D+01 EUMP2 =    -0.37592991732713D+03
 CCSD(T)
 CCSD(T)= -0.37596768130D+03

 The electronic state is 1-A'.
 Alpha  occ. eigenvalues --  -20.77901 -20.75266 -20.69401 -20.53405 -11.52800
 Alpha  occ. eigenvalues --  -11.30886  -1.86452  -1.55174  -1.49564  -1.38758
 Alpha  occ. eigenvalues --   -1.19630  -0.92488  -0.92303  -0.81036  -0.71967
 Alpha  occ. eigenvalues --   -0.70918  -0.66514  -0.59694  -0.58716  -0.53438
 Alpha  occ. eigenvalues --   -0.47871  -0.17041
 Alpha virt. eigenvalues --    0.12257   0.12805   0.13318   0.17534   0.25920
 Alpha virt. eigenvalues --    0.29066   0.32778   0.34334   0.35679   0.38455
 Alpha virt. eigenvalues --    0.46118   0.50071   0.55206   0.61937   0.66452

 Mulliken charges:
               1
     1  O   -0.379171
     2  C    0.086400
     3  O   -0.067381
     4  O    0.259887
     5  C    0.283298
     6  O   -0.183032
 Sum of Mulliken charges =  -0.00000

 Dipole moment (field-independent basis, Debye):
    X=             -2.5228    Y=              4.1456    Z=             -0.0000  Tot=              4.8529
 Quadrupole moment (field-independent basis, Debye-Ang):
   XX=            -33.9702   YY=            -46.4419   ZZ=            -29.3663
   XY=              4.5635   XZ=             -0.0000   YZ=              0.0000

 .9090923\CCSD=-375.8954546\CCSD(T)=-375.9676813\RMSD=2.881e-09\PG=CS [
 Normal termination of Gaussian 16 at Fri Feb  9 19:30:44 2024.
