 Gaussian 16, Revision A.03,
 Gaussian 16:  ES64L-G16RevA.03 25-Dec-2016

 ------------------
 #p CCSD(T)/cc-pVTZ
 ------------------

 ----------
 CO2_CO2_49
 ----------
 Symbolic Z-matrix:
 Charge =  0 Multiplicity = 1

                         Standard orientation:
 ---------------------------------------------------------------------
 Center     Atomic      Atomic             Coordinates (Angstroms)
 Number     Number       Type             X           Y           Z
 ---------------------------------------------------------------------
      1          8           0        1.233548   -2.635048    0.000000
      2          6           0        0.411183   -1.812682    0.000000
      3          8           0       -0.411183   -0.990317   -0.000000
      4          8           0       -0.411183    0.649683   -0.000000
      5          6           0       -0.411183    1.812682   -0.000000
      6          8           0       -0.411183    2.975682   -0.000000
 ---------------------------------------------------------------------

 SCF Done:  E(RHF) =  -375.265975473     A.U. after   14 cycles
 E2 =    -0.1225652979D+01 EUMP2 =    -0.37649162845201D+03
 CCSD(T)
 CCSD(T)= -0.37652529392D+03

 The electronic state is 1-A'.
 Alpha  occ. eigenvalues --  -20.64231 -20.62988 -20.62356 -20.62067 -11.44259
 Alpha  occ. eigenvalues --  -11.43251  -1.53930  -1.50796  -1.47743  -1.44845
 Alpha  occ. eigenvalues --   -0.92172  -0.76726  -0.75353  -0.72351  -0.71798
 Alpha  occ. eigenvalues --   -0.69268  -0.68944  -0.61479  -0.55651  -0.53614
 Alpha  occ. eigenvalues --   -0.50756  -0.47366
 Alpha virt. eigenvalues --    0.16442   0.19644   0.19836   0.20644   0.22567
 Alpha virt. eigenvalues --    0.23193   0.34104   0.36398   0.37835   0.39107
 Alpha virt. eigenvalues --    0.42418   0.45947   0.53888   0.57941   0.68003

 Mulliken charges:
               1
     1  O   -0.300960
     2  C    0.506809
     3  O   -0.214972
     4  O   -0.206868
     5  C    0.523605
     6  O   -0.307614
 Sum of Mulliken charges =  -0.00000

 Dipole moment (field-independent basis, Debye):
    X=             -0.2671    Y=              0.2926    Z=             -0.0000  Tot=              0.3962
 Quadrupole moment (field-independent basis, Debye-Ang):
   XX=            -32.1393   YY=            -39.7401   ZZ=            -29.3247
   XY=              3.0609   XZ=             -0.0000   YZ=              0.0000

 376.4757287\CCSD=-376.4655152\CCSD(T)=-376.5252939\RMSD=4.065e-09\PG=C
 Normal termination of Gaussian 16 at Fri Feb  9 23:08:34 2024.
