 Gaussian 16, Revision A.03,
 Gaussian 16:  ES64L-G16RevA.03 25-Dec-2016

 ------------------
 #p CCSD(T)/cc-pVTZ
 ------------------

 -----------
 CO2_CO2_130
 -----------
 Symbolic Z-matrix:
 Charge =  0 Multiplicity = 1

                         Standard orientation:
 ---------------------------------------------------------------------
 Center     Atomic      Atomic             Coordinates (Angstroms)
 Number     Number       Type             X           Y           Z
 ---------------------------------------------------------------------
      1          8           0        1.233548   -3.175048   -0.000000
      2          6           0        0.411183   -2.352683   -0.000000
      3          8           0       -0.411183   -1.530317    0.000000
      4          8           0       -0.411183    1.189682    0.000000
      5          6           0       -0.411183    2.352683    0.000000
      6          8           0       -0.411183    3.515683    0.000000
 ---------------------------------------------------------------------

 SCF Done:  E(RHF) =  -375.410318331     A.U. after   11 cycles
 E2 =    -0.1205407906D+01 EUMP2 =    -0.37661572623677D+03
 CCSD(T)
 CCSD(T)= -0.37665340308D+03

 The electronic state is 1-A'.
 Alpha  occ. eigenvalues --  -20.64692 -20.64558 -20.64443 -20.64282 -11.45583
 Alpha  occ. eigenvalues --  -11.45329  -1.52472  -1.52187  -1.47174  -1.46867
 Alpha  occ. eigenvalues --   -0.80242  -0.78810  -0.74369  -0.72712  -0.70965
 Alpha  occ. eigenvalues --   -0.70947  -0.70653  -0.70532  -0.54004  -0.53956
 Alpha  occ. eigenvalues --   -0.53523  -0.53507
 Alpha virt. eigenvalues --    0.17110   0.18537   0.20647   0.20771   0.21044
 Alpha virt. eigenvalues --    0.21162   0.33117   0.36768   0.39189   0.39339
 Alpha virt. eigenvalues --    0.40374   0.41819   0.54369   0.55334   0.64329

 Mulliken charges:
               1
     1  O   -0.278468
     2  C    0.529445
     3  O   -0.251130
     4  O   -0.245660
     5  C    0.527963
     6  O   -0.282149
 Sum of Mulliken charges =  -0.00000

 Dipole moment (field-independent basis, Debye):
    X=             -0.0679    Y=              0.0224    Z=              0.0000  Tot=              0.0715
 Quadrupole moment (field-independent basis, Debye-Ang):
   XX=            -31.9991   YY=            -37.7951   ZZ=            -29.4025
   XY=              2.6900   XZ=              0.0000   YZ=             -0.0000

 -376.6042971\CCSD=-376.5959745\CCSD(T)=-376.6534031\RMSD=3.943e-09\PG=
 Normal termination of Gaussian 16 at Sat Feb 10 17:33:21 2024.
