 Gaussian 16, Revision A.03,
 Gaussian 16:  ES64L-G16RevA.03 25-Dec-2016

 ------------------
 #p CCSD(T)/cc-pVTZ
 ------------------

 ----------
 CO2_CO2_11
 ----------
 Symbolic Z-matrix:
 Charge =  0 Multiplicity = 1

                         Standard orientation:
 ---------------------------------------------------------------------
 Center     Atomic      Atomic             Coordinates (Angstroms)
 Number     Number       Type             X           Y           Z
 ---------------------------------------------------------------------
      1          8           0       -1.744500   -1.141500    0.000000
      2          6           0       -0.581500   -1.141500    0.000000
      3          8           0        0.581500   -1.141500    0.000000
      4          8           0        0.581500   -0.021500    0.000000
      5          6           0        0.581500    1.141500    0.000000
      6          8           0        0.581500    2.304500    0.000000
 ---------------------------------------------------------------------

 SCF Done:  E(RHF) =  -374.547138209     A.U. after   21 cycles
 E2 =    -0.1267881927D+01 EUMP2 =    -0.37581502013589D+03
 CCSD(T)
 CCSD(T)= -0.37585741154D+03

 The electronic state is 1-A'.
 Alpha  occ. eigenvalues --  -20.82839 -20.82273 -20.63234 -20.57821 -11.46259
 Alpha  occ. eigenvalues --  -11.33688  -1.96841  -1.52677  -1.46749  -1.42545
 Alpha  occ. eigenvalues --   -1.15577  -1.01454  -0.98627  -0.75273  -0.73879
 Alpha  occ. eigenvalues --   -0.69968  -0.69615  -0.61714  -0.57478  -0.56104
 Alpha  occ. eigenvalues --   -0.51909  -0.15144
 Alpha virt. eigenvalues --    0.13524   0.14487   0.15700   0.18180   0.21301
 Alpha virt. eigenvalues --    0.29909   0.34175   0.36300   0.38114   0.41738
 Alpha virt. eigenvalues --    0.44387   0.46093   0.53060   0.58199   0.59454

 Mulliken charges:
               1
     1  O   -0.329983
     2  C    0.046003
     3  O    0.049460
     4  O    0.337198
     5  C    0.170983
     6  O   -0.273660
 Sum of Mulliken charges =  -0.00000

 Dipole moment (field-independent basis, Debye):
    X=              2.5512    Y=             -0.8111    Z=              0.0000  Tot=              2.6771
 Quadrupole moment (field-independent basis, Debye-Ang):
   XX=            -38.3212   YY=            -40.0671   ZZ=            -28.9507
   XY=             -5.3003   XZ=              0.0000   YZ=              0.0000

 16\CCSD(T)=-375.8574115\RMSD=9.608e-09\PG=CS [SG(C2O4)]\\@
 Normal termination of Gaussian 16 at Fri Feb  9 19:44:15 2024.
