 Gaussian 16, Revision A.03,
 Gaussian 16:  ES64L-G16RevA.03 25-Dec-2016

 ------------------
 #p CCSD(T)/cc-pVTZ
 ------------------

 -----------
 CO2_CO2_143
 -----------
 Symbolic Z-matrix:
 Charge =  0 Multiplicity = 1

                         Standard orientation:
 ---------------------------------------------------------------------
 Center     Atomic      Atomic             Coordinates (Angstroms)
 Number     Number       Type             X           Y           Z
 ---------------------------------------------------------------------
      1          8           0       -1.744500   -2.021500    0.000000
      2          6           0       -0.581500   -2.021500    0.000000
      3          8           0        0.581500   -2.021500    0.000000
      4          8           0        0.581500    0.858500    0.000000
      5          6           0        0.581500    2.021500    0.000000
      6          8           0        0.581500    3.184500    0.000000
 ---------------------------------------------------------------------

 SCF Done:  E(RHF) =  -375.412332740     A.U. after   12 cycles
 E2 =    -0.1204928774D+01 EUMP2 =    -0.37661726151350D+03
 CCSD(T)
 CCSD(T)= -0.37665509844D+03

 The electronic state is 1-A'.
 Alpha  occ. eigenvalues --  -20.65380 -20.65367 -20.64352 -20.64133 -11.46375
 Alpha  occ. eigenvalues --  -11.45254  -1.53193  -1.52063  -1.47895  -1.46760
 Alpha  occ. eigenvalues --   -0.80463  -0.79206  -0.74767  -0.73360  -0.71665
 Alpha  occ. eigenvalues --   -0.71662  -0.70551  -0.70238  -0.54663  -0.54655
 Alpha  occ. eigenvalues --   -0.53521  -0.53473
 Alpha virt. eigenvalues --    0.16350   0.19102   0.19800   0.20069   0.21174
 Alpha virt. eigenvalues --    0.22006   0.34444   0.34622   0.38123   0.39185
 Alpha virt. eigenvalues --    0.41095   0.45133   0.54042   0.56664   0.64792

 Mulliken charges:
               1
     1  O   -0.274562
     2  C    0.535765
     3  O   -0.263899
     4  O   -0.261220
     5  C    0.538634
     6  O   -0.274717
 Sum of Mulliken charges =  -0.00000

 Dipole moment (field-independent basis, Debye):
    X=              0.1049    Y=              0.1338    Z=              0.0000  Tot=              0.1700
 Quadrupole moment (field-independent basis, Debye-Ang):
   XX=            -34.5917   YY=            -34.6043   ZZ=            -29.3916
   XY=             -0.0436   XZ=              0.0000   YZ=              0.0000

 7141\CCSD(T)=-376.6550984\RMSD=8.544e-09\PG=CS [SG(C2O4)]\\@
 Normal termination of Gaussian 16 at Sat Feb 10 18:36:10 2024.
