 Gaussian 16, Revision A.03,
 Gaussian 16:  ES64L-G16RevA.03 25-Dec-2016

 ------------------
 #p CCSD(T)/cc-pVTZ
 ------------------

 -----------
 CO2_CO2_288
 -----------
 Symbolic Z-matrix:
 Charge =  0 Multiplicity = 1

                         Standard orientation:
 ---------------------------------------------------------------------
 Center     Atomic      Atomic             Coordinates (Angstroms)
 Number     Number       Type             X           Y           Z
 ---------------------------------------------------------------------
      1          8           0        0.000000    0.000000    4.746000
      2          6           0        0.000000    0.000000    3.583000
      3          8           0        0.000000    0.000000    2.420000
      4          8           0        0.000000    0.000000   -2.420000
      5          6           0        0.000000    0.000000   -3.583000
      6          8           0        0.000000    0.000000   -4.746000
 ---------------------------------------------------------------------

 SCF Done:  E(RHF) =  -375.412946749     A.U. after   10 cycles
 E2 =    -0.1203431622D+01 EUMP2 =    -0.37661637837116D+03
 CCSD(T)
 CCSD(T)= -0.37665428722D+03

 The electronic state is 1-SGG.
 Alpha  occ. eigenvalues --  -20.64827 -20.64827 -20.64804 -20.64804 -11.45789
 Alpha  occ. eigenvalues --  -11.45789  -1.52609  -1.52609  -1.47308  -1.47308
 Alpha  occ. eigenvalues --   -0.79714  -0.79702  -0.73898  -0.73883  -0.71085
 Alpha  occ. eigenvalues --   -0.71085  -0.71084  -0.71084  -0.54056  -0.54056
 Alpha  occ. eigenvalues --   -0.54055  -0.54055
 Alpha virt. eigenvalues --    0.17549   0.17683   0.20667   0.20667   0.20670
 Alpha virt. eigenvalues --    0.20670   0.33814   0.34803   0.39660   0.39660
 Alpha virt. eigenvalues --    0.39665   0.39665   0.54881   0.54936   0.65338

 Mulliken charges:
               1
     1  O   -0.269732
     2  C    0.535412
     3  O   -0.265680
     4  O   -0.265680
     5  C    0.535412
     6  O   -0.269732
 Sum of Mulliken charges =   0.00000

 Dipole moment (field-independent basis, Debye):
    X=             -0.0000    Y=              0.0000    Z=              0.0000  Tot=              0.0000
 Quadrupole moment (field-independent basis, Debye-Ang):
   XX=            -29.3907   YY=            -29.3907   ZZ=            -39.9663
   XY=              0.0000   XZ=              0.0000   YZ=             -0.0000

 71403\CCSD(T)=-376.6542872\RMSD=4.694e-09\PG=D*H [C*(O1C1O1.O1C1O1)]\\
 Normal termination of Gaussian 16 at Mon Feb 12 22:22:35 2024.
