 Gaussian 16, Revision A.03,
 Gaussian 16:  ES64L-G16RevA.03 25-Dec-2016

 ------------------
 #p CCSD(T)/cc-pVTZ
 ------------------

 ----------
 CO2_CO2_46
 ----------
 Symbolic Z-matrix:
 Charge =  0 Multiplicity = 1

                         Standard orientation:
 ---------------------------------------------------------------------
 Center     Atomic      Atomic             Coordinates (Angstroms)
 Number     Number       Type             X           Y           Z
 ---------------------------------------------------------------------
      1          8           0        1.233548   -2.615048    0.000000
      2          6           0        0.411183   -1.792683    0.000000
      3          8           0       -0.411183   -0.970317    0.000000
      4          8           0       -0.411183    0.629683   -0.000000
      5          6           0       -0.411183    1.792683   -0.000000
      6          8           0       -0.411183    2.955682   -0.000000
 ---------------------------------------------------------------------

 SCF Done:  E(RHF) =  -375.243045893     A.U. after   14 cycles
 E2 =    -0.1228434653D+01 EUMP2 =    -0.37647148054670D+03
 CCSD(T)
 CCSD(T)= -0.37650455358D+03

 The electronic state is 1-A'.
 Alpha  occ. eigenvalues --  -20.64225 -20.62822 -20.62260 -20.62010 -11.44160
 Alpha  occ. eigenvalues --  -11.43006  -1.54378  -1.50709  -1.47786  -1.44672
 Alpha  occ. eigenvalues --   -0.93435  -0.76675  -0.75295  -0.72572  -0.72021
 Alpha  occ. eigenvalues --   -0.69143  -0.68808  -0.60938  -0.55878  -0.53507
 Alpha  occ. eigenvalues --   -0.50530  -0.46254
 Alpha virt. eigenvalues --    0.16374   0.19515   0.19823   0.20642   0.22729
 Alpha virt. eigenvalues --    0.23348   0.34086   0.36443   0.37786   0.39108
 Alpha virt. eigenvalues --    0.42550   0.46135   0.53898   0.58174   0.68082

 Mulliken charges:
               1
     1  O   -0.303217
     2  C    0.502447
     3  O   -0.209294
     4  O   -0.204137
     5  C    0.522560
     6  O   -0.308360
 Sum of Mulliken charges =  -0.00000

 Dipole moment (field-independent basis, Debye):
    X=             -0.2890    Y=              0.3404    Z=             -0.0000  Tot=              0.4465
 Quadrupole moment (field-independent basis, Debye-Ang):
   XX=            -32.1542   YY=            -39.9236   ZZ=            -29.3086
   XY=              3.0977   XZ=             -0.0000   YZ=              0.0000

 =-376.4549514\CCSD=-376.44444\CCSD(T)=-376.5045536\RMSD=4.982e-09\PG=C
 Normal termination of Gaussian 16 at Fri Feb  9 22:52:03 2024.
