 Gaussian 16, Revision A.03,
 Gaussian 16:  ES64L-G16RevA.03 25-Dec-2016

 ------------------
 #p CCSD(T)/cc-pVTZ
 ------------------

 ----------
 CO2_CO2_52
 ----------
 Symbolic Z-matrix:
 Charge =  0 Multiplicity = 1

                         Standard orientation:
 ---------------------------------------------------------------------
 Center     Atomic      Atomic             Coordinates (Angstroms)
 Number     Number       Type             X           Y           Z
 ---------------------------------------------------------------------
      1          8           0        1.233548   -2.655048    0.000000
      2          6           0        0.411183   -1.832683    0.000000
      3          8           0       -0.411183   -1.010317    0.000000
      4          8           0       -0.411183    0.669682   -0.000000
      5          6           0       -0.411183    1.832683   -0.000000
      6          8           0       -0.411183    2.995683   -0.000000
 ---------------------------------------------------------------------

 SCF Done:  E(RHF) =  -375.285934202     A.U. after   13 cycles
 E2 =    -0.1223228676D+01 EUMP2 =    -0.37650916287724D+03
 CCSD(T)
 CCSD(T)= -0.37654334262D+03

 The electronic state is 1-A'.
 Alpha  occ. eigenvalues --  -20.64243 -20.63132 -20.62475 -20.62154 -11.44359
 Alpha  occ. eigenvalues --  -11.43464  -1.53580  -1.50885  -1.47687  -1.45010
 Alpha  occ. eigenvalues --   -0.91004  -0.76788  -0.75398  -0.72167  -0.71620
 Alpha  occ. eigenvalues --   -0.69392  -0.69073  -0.62081  -0.55447  -0.53700
 Alpha  occ. eigenvalues --   -0.50971  -0.48290
 Alpha virt. eigenvalues --    0.16502   0.19757   0.19819   0.20659   0.22422
 Alpha virt. eigenvalues --    0.23045   0.34114   0.36363   0.37884   0.39104
 Alpha virt. eigenvalues --    0.42293   0.45767   0.53875   0.57726   0.67758

 Mulliken charges:
               1
     1  O   -0.298913
     2  C    0.510377
     3  O   -0.219853
     4  O   -0.209225
     5  C    0.524246
     6  O   -0.306633
 Sum of Mulliken charges =  -0.00000

 Dipole moment (field-independent basis, Debye):
    X=             -0.2481    Y=              0.2539    Z=             -0.0000  Tot=              0.3550
 Quadrupole moment (field-independent basis, Debye-Ang):
   XX=            -32.1268   YY=            -39.5756   ZZ=            -29.3387
   XY=              3.0279   XZ=             -0.0000   YZ=              0.0000

 76.4938075\CCSD=-376.4838501\CCSD(T)=-376.5433426\RMSD=8.426e-09\PG=CS
 Normal termination of Gaussian 16 at Fri Feb  9 23:23:24 2024.
