 Gaussian 16, Revision A.03,
 Gaussian 16:  ES64L-G16RevA.03 25-Dec-2016

 ------------------
 #p CCSD(T)/cc-pVTZ
 ------------------

 ---------
 CO2_CO2_5
 ---------
 Symbolic Z-matrix:
 Charge =  0 Multiplicity = 1

                         Standard orientation:
 ---------------------------------------------------------------------
 Center     Atomic      Atomic             Coordinates (Angstroms)
 Number     Number       Type             X           Y           Z
 ---------------------------------------------------------------------
      1          8           0       -1.744500   -1.101500    0.000000
      2          6           0       -0.581500   -1.101500    0.000000
      3          8           0        0.581500   -1.101500    0.000000
      4          8           0        0.581500   -0.061500    0.000000
      5          6           0        0.581500    1.101500    0.000000
      6          8           0        0.581500    2.264500    0.000000
 ---------------------------------------------------------------------

 SCF Done:  E(RHF) =  -374.437314814     A.U. after   21 cycles
 E2 =    -0.1259667760D+01 EUMP2 =    -0.37569698257432D+03
 CCSD(T)
 CCSD(T)= -0.37573775842D+03

 The electronic state is 1-A'.
 Alpha  occ. eigenvalues --  -20.85326 -20.82401 -20.60909 -20.59172 -11.43720
 Alpha  occ. eigenvalues --  -11.35158  -2.06993  -1.51857  -1.44970  -1.43704
 Alpha  occ. eigenvalues --   -1.20718  -1.05021  -1.04287  -0.73210  -0.72610
 Alpha  occ. eigenvalues --   -0.71080  -0.67964  -0.61948  -0.57407  -0.55239
 Alpha  occ. eigenvalues --   -0.50704  -0.15231
 Alpha virt. eigenvalues --    0.13647   0.15324   0.15829   0.18478   0.21669
 Alpha virt. eigenvalues --    0.30067   0.36647   0.38244   0.39250   0.42428
 Alpha virt. eigenvalues --    0.44121   0.46093   0.51887   0.58153   0.60625

 Mulliken charges:
               1
     1  O   -0.320512
     2  C    0.071922
     3  O    0.052888
     4  O    0.408523
     5  C    0.108290
     6  O   -0.321112
 Sum of Mulliken charges =  -0.00000

 Dipole moment (field-independent basis, Debye):
    X=              2.3050    Y=             -1.8809    Z=              0.0000  Tot=              2.9750
 Quadrupole moment (field-independent basis, Debye-Ang):
   XX=            -38.2443   YY=            -39.7467   ZZ=            -28.8036
   XY=             -4.9212   XZ=              0.0000   YZ=              0.0000

 3\CCSD(T)=-375.7377584\RMSD=2.686e-09\PG=CS [SG(C2O4)]\\@
 Normal termination of Gaussian 16 at Fri Feb  9 18:37:46 2024.
