 Gaussian 16, Revision A.03,
 Gaussian 16:  ES64L-G16RevA.03 25-Dec-2016

 ------------------
 #p CCSD(T)/cc-pVTZ
 ------------------

 ----------
 CO2_CO2_19
 ----------
 Symbolic Z-matrix:
 Charge =  0 Multiplicity = 1

                         Standard orientation:
 ---------------------------------------------------------------------
 Center     Atomic      Atomic             Coordinates (Angstroms)
 Number     Number       Type             X           Y           Z
 ---------------------------------------------------------------------
      1          8           0        1.233548   -2.435048    0.000000
      2          6           0        0.411183   -1.612683    0.000000
      3          8           0       -0.411183   -0.790317    0.000000
      4          8           0       -0.411183    0.449682   -0.000000
      5          6           0       -0.411183    1.612683   -0.000000
      6          8           0       -0.411183    2.775683   -0.000000
 ---------------------------------------------------------------------

 SCF Done:  E(RHF) =  -374.847984076     A.U. after   17 cycles
 E2 =    -0.1274891460D+01 EUMP2 =    -0.37612287553576D+03
 CCSD(T)
 CCSD(T)= -0.37614802103D+03

 The electronic state is 1-A'.
 Alpha  occ. eigenvalues --  -20.67814 -20.67275 -20.66051 -20.58017 -11.46062
 Alpha  occ. eigenvalues --  -11.36311  -1.70068  -1.51857  -1.46731  -1.42482
 Alpha  occ. eigenvalues --   -1.10271  -0.81812  -0.80932  -0.78013  -0.71208
 Alpha  occ. eigenvalues --   -0.68787  -0.68247  -0.59208  -0.58256  -0.52981
 Alpha  occ. eigenvalues --   -0.48745  -0.25242
 Alpha virt. eigenvalues --    0.14741   0.16502   0.16601   0.19721   0.24987
 Alpha virt. eigenvalues --    0.26465   0.33497   0.36570   0.36736   0.38790
 Alpha virt. eigenvalues --    0.44614   0.48911   0.53728   0.61568   0.67011

 Mulliken charges:
               1
     1  O   -0.342453
     2  C    0.317980
     3  O   -0.098686
     4  O   -0.081786
     5  C    0.471925
     6  O   -0.266981
 Sum of Mulliken charges =  -0.00000

 Dipole moment (field-independent basis, Debye):
    X=             -1.0237    Y=              2.3358    Z=             -0.0000  Tot=              2.5502
 Quadrupole moment (field-independent basis, Debye-Ang):
   XX=            -32.7943   YY=            -44.0528   ZZ=            -29.0825
   XY=              3.8933   XZ=             -0.0000   YZ=              0.0000

 =-376.0945362\CCSD=-376.0804898\CCSD(T)=-376.148021\RMSD=4.605e-09\PG=
 Normal termination of Gaussian 16 at Fri Feb  9 20:30:46 2024.
