 Gaussian 16, Revision A.03,
 Gaussian 16:  ES64L-G16RevA.03 25-Dec-2016

 ------------------
 #p CCSD(T)/cc-pVTZ
 ------------------

 -----------
 CO2_CO2_153
 -----------
 Symbolic Z-matrix:
 Charge =  0 Multiplicity = 1

                         Standard orientation:
 ---------------------------------------------------------------------
 Center     Atomic      Atomic             Coordinates (Angstroms)
 Number     Number       Type             X           Y           Z
 ---------------------------------------------------------------------
      1          8           0        0.000000    0.000000    3.846000
      2          6           0        0.000000    0.000000    2.683000
      3          8           0        0.000000    0.000000    1.520000
      4          8           0        0.000000    0.000000   -1.520000
      5          6           0        0.000000    0.000000   -2.683000
      6          8           0        0.000000    0.000000   -3.846000
 ---------------------------------------------------------------------

 SCF Done:  E(RHF) =  -375.411944637     A.U. after   10 cycles
 E2 =    -0.1204576377D+01 EUMP2 =    -0.37661652101455D+03
 CCSD(T)
 CCSD(T)= -0.37665428627D+03

 The electronic state is 1-SGG.
 Alpha  occ. eigenvalues --  -20.64589 -20.64589 -20.64501 -20.64500 -11.45499
 Alpha  occ. eigenvalues --  -11.45499  -1.52370  -1.52335  -1.47073  -1.47018
 Alpha  occ. eigenvalues --   -0.79869  -0.79033  -0.74072  -0.73018  -0.70869
 Alpha  occ. eigenvalues --   -0.70869  -0.70793  -0.70793  -0.53880  -0.53880
 Alpha  occ. eigenvalues --   -0.53690  -0.53690
 Alpha virt. eigenvalues --    0.17535   0.18127   0.20722   0.20722   0.21075
 Alpha virt. eigenvalues --    0.21075   0.32850   0.37243   0.39643   0.39643
 Alpha virt. eigenvalues --    0.40013   0.40013   0.54752   0.54862   0.60378

 Mulliken charges:
               1
     1  O   -0.279016
     2  C    0.530651
     3  O   -0.251635
     4  O   -0.251635
     5  C    0.530651
     6  O   -0.279016
 Sum of Mulliken charges =   0.00000

 Dipole moment (field-independent basis, Debye):
    X=             -0.0000    Y=              0.0000    Z=              0.0000  Tot=              0.0000
 Quadrupole moment (field-independent basis, Debye-Ang):
   XX=            -29.3991   YY=            -29.3991   ZZ=            -40.3736
   XY=              0.0000   XZ=              0.0000   YZ=              0.0000

 9806\CCSD(T)=-376.6542863\RMSD=4.570e-09\PG=D*H [C*(O1C1O1.O1C1O1)]\\@
 Normal termination of Gaussian 16 at Sat Feb 10 19:22:12 2024.
