 Gaussian 16, Revision A.03,
 Gaussian 16:  ES64L-G16RevA.03 25-Dec-2016

 ------------------
 #p CCSD(T)/cc-pVTZ
 ------------------

 -----------
 CO2_CO2_275
 -----------
 Symbolic Z-matrix:
 Charge =  0 Multiplicity = 1

                         Standard orientation:
 ---------------------------------------------------------------------
 Center     Atomic      Atomic             Coordinates (Angstroms)
 Number     Number       Type             X           Y           Z
 ---------------------------------------------------------------------
      1          8           0       -1.744500   -2.901500    0.000000
      2          6           0       -0.581500   -2.901500    0.000000
      3          8           0        0.581500   -2.901500    0.000000
      4          8           0        0.581500    1.738500    0.000000
      5          6           0        0.581500    2.901500    0.000000
      6          8           0        0.581500    4.064500    0.000000
 ---------------------------------------------------------------------

 SCF Done:  E(RHF) =  -375.413333449     A.U. after   10 cycles
 E2 =    -0.1203341594D+01 EUMP2 =    -0.37661667504313D+03
 CCSD(T)
 CCSD(T)= -0.37665461211D+03

 The electronic state is 1-A'.
 Alpha  occ. eigenvalues --  -20.65145 -20.65123 -20.64747 -20.64726 -11.46119
 Alpha  occ. eigenvalues --  -11.45721  -1.52925  -1.52528  -1.47627  -1.47230
 Alpha  occ. eigenvalues --   -0.80046  -0.79647  -0.74232  -0.73834  -0.71399
 Alpha  occ. eigenvalues --   -0.71397  -0.71007  -0.70995  -0.54380  -0.54378
 Alpha  occ. eigenvalues --   -0.53986  -0.53979
 Alpha virt. eigenvalues --    0.17056   0.17889   0.20354   0.20363   0.20748
 Alpha virt. eigenvalues --    0.20762   0.33196   0.34738   0.39364   0.39376
 Alpha virt. eigenvalues --    0.39760   0.40178   0.54524   0.54947   0.65794

 Mulliken charges:
               1
     1  O   -0.270173
     2  C    0.537849
     3  O   -0.267742
     4  O   -0.270726
     5  C    0.538045
     6  O   -0.267253
 Sum of Mulliken charges =  -0.00000

 Dipole moment (field-independent basis, Debye):
    X=              0.0194    Y=              0.0349    Z=              0.0000  Tot=              0.0399
 Quadrupole moment (field-independent basis, Debye-Ang):
   XX=            -34.5529   YY=            -34.5176   ZZ=            -29.3885
   XY=             -0.0156   XZ=              0.0000   YZ=              0.0000

 755\CCSD(T)=-376.6546121\RMSD=4.507e-09\PG=CS [SG(C2O4)]\\@
 Normal termination of Gaussian 16 at Mon Feb 12 21:35:52 2024.
