 Gaussian 16, Revision A.03,
 Gaussian 16:  ES64L-G16RevA.03 25-Dec-2016

 ------------------
 #p CCSD(T)/cc-pVTZ
 ------------------

 ----------
 CO2_CO2_70
 ----------
 Symbolic Z-matrix:
 Charge =  0 Multiplicity = 1

                         Standard orientation:
 ---------------------------------------------------------------------
 Center     Atomic      Atomic             Coordinates (Angstroms)
 Number     Number       Type             X           Y           Z
 ---------------------------------------------------------------------
      1          8           0        1.233548   -2.775048    0.000000
      2          6           0        0.411183   -1.952682    0.000000
      3          8           0       -0.411183   -1.130317    0.000000
      4          8           0       -0.411183    0.789683   -0.000000
      5          6           0       -0.411183    1.952682   -0.000000
      6          8           0       -0.411183    3.115682   -0.000000
 ---------------------------------------------------------------------

 SCF Done:  E(RHF) =  -375.360762839     A.U. after   12 cycles
 E2 =    -0.1213824430D+01 EUMP2 =    -0.37657458726889D+03
 CCSD(T)
 CCSD(T)= -0.37661072382D+03

 The electronic state is 1-A'.
 Alpha  occ. eigenvalues --  -20.64372 -20.63715 -20.63294 -20.62888 -11.44869
 Alpha  occ. eigenvalues --  -11.44324  -1.52620  -1.51380  -1.47341  -1.45811
 Alpha  occ. eigenvalues --   -0.85721  -0.77272  -0.75427  -0.71584  -0.71084
 Alpha  occ. eigenvalues --   -0.70047  -0.69710  -0.65895  -0.54624  -0.53915
 Alpha  occ. eigenvalues --   -0.52029  -0.51342
 Alpha virt. eigenvalues --    0.16743   0.19482   0.20215   0.20799   0.21798
 Alpha virt. eigenvalues --    0.22308   0.34006   0.36339   0.38197   0.39104
 Alpha virt. eigenvalues --    0.41651   0.44753   0.53805   0.56708   0.66244

 Mulliken charges:
               1
     1  O   -0.289926
     2  C    0.522686
     3  O   -0.238031
     4  O   -0.217732
     5  C    0.522314
     6  O   -0.299312
 Sum of Mulliken charges =  -0.00000

 Dipole moment (field-independent basis, Debye):
    X=             -0.1698    Y=              0.1246    Z=             -0.0000  Tot=              0.2106
 Quadrupole moment (field-independent basis, Debye-Ang):
   XX=            -32.0774   YY=            -38.8472   ZZ=            -29.3894
   XY=              2.8827   XZ=             -0.0000   YZ=              0.0000

 6.5613247\CCSD=-376.5523028\CCSD(T)=-376.6107238\RMSD=7.987e-09\PG=CS
 Normal termination of Gaussian 16 at Sat Feb 10 00:54:19 2024.
