 Gaussian 16, Revision A.03,
 Gaussian 16:  ES64L-G16RevA.03 25-Dec-2016

 ------------------
 #p CCSD(T)/cc-pVTZ
 ------------------

 ----------
 CO2_CO2_28
 ----------
 Symbolic Z-matrix:
 Charge =  0 Multiplicity = 1

                         Standard orientation:
 ---------------------------------------------------------------------
 Center     Atomic      Atomic             Coordinates (Angstroms)
 Number     Number       Type             X           Y           Z
 ---------------------------------------------------------------------
      1          8           0        1.233548   -2.495048   -0.000000
      2          6           0        0.411183   -1.672683   -0.000000
      3          8           0       -0.411183   -0.850317   -0.000000
      4          8           0       -0.411183    0.509682   -0.000000
      5          6           0       -0.411183    1.672682    0.000000
      6          8           0       -0.411183    2.835683    0.000000
 ---------------------------------------------------------------------

 SCF Done:  E(RHF) =  -375.021641917     A.U. after   15 cycles
 E2 =    -0.1256054895D+01 EUMP2 =    -0.37627769681162D+03
 CCSD(T)
 CCSD(T)= -0.37630499355D+03

 The electronic state is 1-A'.
 Alpha  occ. eigenvalues --  -20.64680 -20.63489 -20.63471 -20.60802 -11.44102
 Alpha  occ. eigenvalues --  -11.40098  -1.61087  -1.50662  -1.47230  -1.43626
 Alpha  occ. eigenvalues --   -1.03317  -0.77253  -0.76292  -0.75472  -0.73282
 Alpha  occ. eigenvalues --   -0.68528  -0.67976  -0.59388  -0.57655  -0.52756
 Alpha  occ. eigenvalues --   -0.49166  -0.34371
 Alpha virt. eigenvalues --    0.15638   0.18178   0.18658   0.20625   0.24371
 Alpha virt. eigenvalues --    0.24455   0.33813   0.36854   0.37367   0.39021
 Alpha virt. eigenvalues --    0.43597   0.47642   0.53808   0.60096   0.67553

 Mulliken charges:
               1
     1  O   -0.323633
     2  C    0.434106
     3  O   -0.148687
     4  O   -0.167863
     5  C    0.505420
     6  O   -0.299342
 Sum of Mulliken charges =  -0.00000

 Dipole moment (field-independent basis, Debye):
    X=             -0.5653    Y=              1.0964    Z=              0.0000  Tot=              1.2335
 Quadrupole moment (field-independent basis, Debye-Ang):
   XX=            -32.3812   YY=            -41.8361   ZZ=            -29.1580
   XY=              3.4698   XZ=             -0.0000   YZ=             -0.0000

 376.2543623\CCSD=-376.2411208\CCSD(T)=-376.3049935\RMSD=8.164e-09\PG=C
 Normal termination of Gaussian 16 at Fri Feb  9 21:18:20 2024.
