 Gaussian 16, Revision A.03,
 Gaussian 16:  ES64L-G16RevA.03 25-Dec-2016

 ------------------
 #p CCSD(T)/cc-pVTZ
 ------------------

 -----------
 CO2_CO2_129
 -----------
 Symbolic Z-matrix:
 Charge =  0 Multiplicity = 1

                         Standard orientation:
 ---------------------------------------------------------------------
 Center     Atomic      Atomic             Coordinates (Angstroms)
 Number     Number       Type             X           Y           Z
 ---------------------------------------------------------------------
      1          8           0        0.000000    0.000000    3.686000
      2          6           0        0.000000    0.000000    2.523000
      3          8           0        0.000000    0.000000    1.360000
      4          8           0        0.000000    0.000000   -1.360000
      5          6           0        0.000000    0.000000   -2.523000
      6          8           0        0.000000    0.000000   -3.686000
 ---------------------------------------------------------------------

 SCF Done:  E(RHF) =  -375.410347137     A.U. after   10 cycles
 E2 =    -0.1205339873D+01 EUMP2 =    -0.37661568701001D+03
 CCSD(T)
 CCSD(T)= -0.37665335260D+03

 The electronic state is 1-SGG.
 Alpha  occ. eigenvalues --  -20.64494 -20.64494 -20.64336 -20.64335 -11.45367
 Alpha  occ. eigenvalues --  -11.45367  -1.52295  -1.52207  -1.47008  -1.46872
 Alpha  occ. eigenvalues --   -0.80286  -0.78617  -0.74362  -0.72277  -0.70809
 Alpha  occ. eigenvalues --   -0.70809  -0.70647  -0.70647  -0.53874  -0.53874
 Alpha  occ. eigenvalues --   -0.53478  -0.53478
 Alpha virt. eigenvalues --    0.17551   0.18280   0.20669   0.20669   0.21298
 Alpha virt. eigenvalues --    0.21298   0.33254   0.37827   0.39518   0.39518
 Alpha virt. eigenvalues --    0.40204   0.40204   0.54335   0.54848   0.65369

 Mulliken charges:
               1
     1  O   -0.284411
     2  C    0.525199
     3  O   -0.240788
     4  O   -0.240788
     5  C    0.525199
     6  O   -0.284411
 Sum of Mulliken charges =   0.00000

 Dipole moment (field-independent basis, Debye):
    X=             -0.0000    Y=              0.0000    Z=              0.0000  Tot=              0.0000
 Quadrupole moment (field-independent basis, Debye-Ang):
   XX=            -29.4048   YY=            -29.4048   ZZ=            -40.5556
   XY=              0.0000   XZ=              0.0000   YZ=              0.0000

 9464\CCSD(T)=-376.6533526\RMSD=4.812e-09\PG=D*H [C*(O1C1O1.O1C1O1)]\\@
 Normal termination of Gaussian 16 at Sat Feb 10 17:27:16 2024.
