 Gaussian 16, Revision A.03,
 Gaussian 16:  ES64L-G16RevA.03 25-Dec-2016

 ------------------
 #p CCSD(T)/cc-pVTZ
 ------------------

 ----------
 CO2_CO2_71
 ----------
 Symbolic Z-matrix:
 Charge =  0 Multiplicity = 1

                         Standard orientation:
 ---------------------------------------------------------------------
 Center     Atomic      Atomic             Coordinates (Angstroms)
 Number     Number       Type             X           Y           Z
 ---------------------------------------------------------------------
      1          8           0       -1.744500   -1.541500    0.000000
      2          6           0       -0.581500   -1.541500    0.000000
      3          8           0        0.581500   -1.541500    0.000000
      4          8           0        0.581500    0.378500    0.000000
      5          6           0        0.581500    1.541500    0.000000
      6          8           0        0.581500    2.704500    0.000000
 ---------------------------------------------------------------------

 SCF Done:  E(RHF) =  -375.349223275     A.U. after   13 cycles
 E2 =    -0.1215839265D+01 EUMP2 =    -0.37656506254055D+03
 CCSD(T)
 CCSD(T)= -0.37660141286D+03

 The electronic state is 1-A'.
 Alpha  occ. eigenvalues --  -20.65558 -20.64483 -20.63727 -20.61938 -11.46161
 Alpha  occ. eigenvalues --  -11.44183  -1.54068  -1.51378  -1.48313  -1.45662
 Alpha  occ. eigenvalues --   -0.84673  -0.78682  -0.76736  -0.73244  -0.72347
 Alpha  occ. eigenvalues --   -0.71107  -0.69531  -0.65727  -0.55482  -0.54813
 Alpha  occ. eigenvalues --   -0.52087  -0.50388
 Alpha virt. eigenvalues --    0.15820   0.18599   0.19826   0.21018   0.21666
 Alpha virt. eigenvalues --    0.23894   0.33828   0.36243   0.36762   0.40237
 Alpha virt. eigenvalues --    0.43343   0.47433   0.53386   0.58416   0.65848

 Mulliken charges:
               1
     1  O   -0.287261
     2  C    0.526258
     3  O   -0.252945
     4  O   -0.232234
     5  C    0.530635
     6  O   -0.284452
 Sum of Mulliken charges =  -0.00000

 Dipole moment (field-independent basis, Debye):
    X=              0.3335    Y=              0.3186    Z=              0.0000  Tot=              0.4612
 Quadrupole moment (field-independent basis, Debye-Ang):
   XX=            -34.6248   YY=            -35.4273   ZZ=            -29.3621
   XY=             -0.1508   XZ=              0.0000   YZ=              0.0000

 837\CCSD(T)=-376.6014129\RMSD=6.518e-09\PG=CS [SG(C2O4)]\\@
 Normal termination of Gaussian 16 at Sat Feb 10 01:00:54 2024.
