 Gaussian 16, Revision A.03,
 Gaussian 16:  ES64L-G16RevA.03 25-Dec-2016

 ------------------
 #p CCSD(T)/cc-pVTZ
 ------------------

 -----------
 CO2_CO2_159
 -----------
 Symbolic Z-matrix:
 Charge =  0 Multiplicity = 1

                         Standard orientation:
 ---------------------------------------------------------------------
 Center     Atomic      Atomic             Coordinates (Angstroms)
 Number     Number       Type             X           Y           Z
 ---------------------------------------------------------------------
      1          8           0        0.000000    0.000000    3.886000
      2          6           0        0.000000    0.000000    2.723000
      3          8           0        0.000000    0.000000    1.560000
      4          8           0        0.000000    0.000000   -1.560000
      5          6           0        0.000000    0.000000   -2.723000
      6          8           0        0.000000    0.000000   -3.886000
 ---------------------------------------------------------------------

 SCF Done:  E(RHF) =  -375.412132397     A.U. after   10 cycles
 E2 =    -0.1204441197D+01 EUMP2 =    -0.37661657359423D+03
 CCSD(T)
 CCSD(T)= -0.37665435419D+03

 The electronic state is 1-SGG.
 Alpha  occ. eigenvalues --  -20.64608 -20.64608 -20.64530 -20.64530 -11.45525
 Alpha  occ. eigenvalues --  -11.45525  -1.52387  -1.52360  -1.47089  -1.47045
 Alpha  occ. eigenvalues --   -0.79814  -0.79112  -0.74024  -0.73137  -0.70883
 Alpha  occ. eigenvalues --   -0.70883  -0.70820  -0.70820  -0.53887  -0.53887
 Alpha  occ. eigenvalues --   -0.53728  -0.53728
 Alpha virt. eigenvalues --    0.17516   0.18101   0.20730   0.20730   0.21033
 Alpha virt. eigenvalues --    0.21033   0.32700   0.37133   0.39661   0.39661
 Alpha virt. eigenvalues --    0.39976   0.39976   0.54761   0.54986   0.59628

 Mulliken charges:
               1
     1  O   -0.277852
     2  C    0.531612
     3  O   -0.253760
     4  O   -0.253760
     5  C    0.531612
     6  O   -0.277852
 Sum of Mulliken charges =  -0.00000

 Dipole moment (field-independent basis, Debye):
    X=             -0.0000    Y=             -0.0000    Z=              0.0000  Tot=              0.0000
 Quadrupole moment (field-independent basis, Debye-Ang):
   XX=            -29.3981   YY=            -29.3981   ZZ=            -40.3375
   XY=              0.0000   XZ=              0.0000   YZ=              0.0000

 70669\CCSD(T)=-376.6543542\RMSD=4.561e-09\PG=D*H [C*(O1C1O1.O1C1O1)]\\
 Normal termination of Gaussian 16 at Sat Feb 10 19:51:28 2024.
