 Gaussian 16, Revision A.03,
 Gaussian 16:  ES64L-G16RevA.03 25-Dec-2016

 ------------------
 #p CCSD(T)/cc-pVTZ
 ------------------

 ----------
 CO2_CO2_30
 ----------
 Symbolic Z-matrix:
 Charge =  0 Multiplicity = 1

                         Standard orientation:
 ---------------------------------------------------------------------
 Center     Atomic      Atomic             Coordinates (Angstroms)
 Number     Number       Type             X           Y           Z
 ---------------------------------------------------------------------
      1          8           0        0.000000    0.000000    3.026000
      2          6           0        0.000000    0.000000    1.863000
      3          8           0        0.000000    0.000000    0.700000
      4          8           0        0.000000    0.000000   -0.700000
      5          6           0        0.000000    0.000000   -1.863000
      6          8           0        0.000000    0.000000   -3.026000
 ---------------------------------------------------------------------

 SCF Done:  E(RHF) =  -375.066302880     A.U. after   12 cycles
 E2 =    -0.1242955500D+01 EUMP2 =    -0.37630925838066D+03
 CCSD(T)
 CCSD(T)= -0.37633982033D+03

 The electronic state is 1-SGG.
 Alpha  occ. eigenvalues --  -20.63069 -20.63069 -20.60660 -20.60653 -11.42017
 Alpha  occ. eigenvalues --  -11.42017  -1.56950  -1.49872  -1.47834  -1.43460
 Alpha  occ. eigenvalues --   -1.02091  -0.75711  -0.75038  -0.72983  -0.72983
 Alpha  occ. eigenvalues --   -0.67802  -0.67802  -0.56885  -0.56885  -0.48602
 Alpha  occ. eigenvalues --   -0.48602  -0.41571
 Alpha virt. eigenvalues --    0.16995   0.18791   0.18791   0.20594   0.24964
 Alpha virt. eigenvalues --    0.24964   0.31234   0.38359   0.38359   0.40728
 Alpha virt. eigenvalues --    0.42602   0.42602   0.52613   0.60810   0.67618

 Mulliken charges:
               1
     1  O   -0.322007
     2  C    0.504616
     3  O   -0.182609
     4  O   -0.182609
     5  C    0.504616
     6  O   -0.322007
 Sum of Mulliken charges =  -0.00000

 Dipole moment (field-independent basis, Debye):
    X=             -0.0000    Y=             -0.0000    Z=              0.0000  Tot=              0.0000
 Quadrupole moment (field-independent basis, Debye-Ang):
   XX=            -29.2583   YY=            -29.2583   ZZ=            -43.4196
   XY=              0.0000   XZ=              0.0000   YZ=              0.0000

 8\CCSD(T)=-376.3398203\RMSD=5.103e-09\PG=D*H [C*(O1C1O1.O1C1O1)]\\@
 Normal termination of Gaussian 16 at Fri Feb  9 21:27:10 2024.
