 Gaussian 16, Revision A.03,
 Gaussian 16:  ES64L-G16RevA.03 25-Dec-2016

 ------------------
 #p CCSD(T)/cc-pVTZ
 ------------------

 -----------
 CO2_CO2_227
 -----------
 Symbolic Z-matrix:
 Charge =  0 Multiplicity = 1

                         Standard orientation:
 ---------------------------------------------------------------------
 Center     Atomic      Atomic             Coordinates (Angstroms)
 Number     Number       Type             X           Y           Z
 ---------------------------------------------------------------------
      1          8           0       -1.744500   -2.581500    0.000000
      2          6           0       -0.581500   -2.581500    0.000000
      3          8           0        0.581500   -2.581500    0.000000
      4          8           0        0.581500    1.418500    0.000000
      5          6           0        0.581500    2.581500    0.000000
      6          8           0        0.581500    3.744500    0.000000
 ---------------------------------------------------------------------

 SCF Done:  E(RHF) =  -375.413486616     A.U. after   10 cycles
 E2 =    -0.1203499665D+01 EUMP2 =    -0.37661698628028D+03
 CCSD(T)
 CCSD(T)= -0.37665491106D+03

 The electronic state is 1-A'.
 Alpha  occ. eigenvalues --  -20.65216 -20.65181 -20.64660 -20.64623 -11.46186
 Alpha  occ. eigenvalues --  -11.45628  -1.52988  -1.52432  -1.47690  -1.47135
 Alpha  occ. eigenvalues --   -0.80114  -0.79556  -0.74304  -0.73743  -0.71461
 Alpha  occ. eigenvalues --   -0.71459  -0.70914  -0.70890  -0.54445  -0.54443
 Alpha  occ. eigenvalues --   -0.53895  -0.53882
 Alpha virt. eigenvalues --    0.16594   0.18175   0.20246   0.20294   0.20842
 Alpha virt. eigenvalues --    0.20948   0.32556   0.34825   0.39226   0.39251
 Alpha virt. eigenvalues --    0.39923   0.41117   0.54484   0.54734   0.65482

 Mulliken charges:
               1
     1  O   -0.271066
     2  C    0.538011
     3  O   -0.267252
     4  O   -0.271030
     5  C    0.539064
     6  O   -0.267726
 Sum of Mulliken charges =  -0.00000

 Dipole moment (field-independent basis, Debye):
    X=              0.0329    Y=              0.0544    Z=              0.0000  Tot=              0.0635
 Quadrupole moment (field-independent basis, Debye-Ang):
   XX=            -34.5605   YY=            -34.5082   ZZ=            -29.3886
   XY=             -0.0185   XZ=              0.0000   YZ=              0.0000

 1\CCSD(T)=-376.6549111\RMSD=4.993e-09\PG=CS [SG(C2O4)]\\@
 Normal termination of Gaussian 16 at Mon Feb 12 18:40:02 2024.
