 Gaussian 16, Revision A.03,
 Gaussian 16:  ES64L-G16RevA.03 25-Dec-2016

 ------------------
 #p CCSD(T)/cc-pVTZ
 ------------------

 -----------
 CO2_CO2_188
 -----------
 Symbolic Z-matrix:
 Charge =  0 Multiplicity = 1

                         Standard orientation:
 ---------------------------------------------------------------------
 Center     Atomic      Atomic             Coordinates (Angstroms)
 Number     Number       Type             X           Y           Z
 ---------------------------------------------------------------------
      1          8           0       -1.744500   -2.321500    0.000000
      2          6           0       -0.581500   -2.321500    0.000000
      3          8           0        0.581500   -2.321500    0.000000
      4          8           0        0.581500    1.158500    0.000000
      5          6           0        0.581500    2.321500    0.000000
      6          8           0        0.581500    3.484500    0.000000
 ---------------------------------------------------------------------

 SCF Done:  E(RHF) =  -375.413558200     A.U. after   10 cycles
 E2 =    -0.1203844299D+01 EUMP2 =    -0.37661740249920D+03
 CCSD(T)
 CCSD(T)= -0.37665530665D+03

 The electronic state is 1-A'.
 Alpha  occ. eigenvalues --  -20.65296 -20.65251 -20.64555 -20.64481 -11.46264
 Alpha  occ. eigenvalues --  -11.45508  -1.53063  -1.52309  -1.47766  -1.47012
 Alpha  occ. eigenvalues --   -0.80206  -0.79440  -0.74411  -0.73623  -0.71536
 Alpha  occ. eigenvalues --   -0.71534  -0.70796  -0.70732  -0.54523  -0.54521
 Alpha  occ. eigenvalues --   -0.53777  -0.53755
 Alpha virt. eigenvalues --    0.16424   0.18487   0.20095   0.20207   0.20962
 Alpha virt. eigenvalues --    0.21307   0.33064   0.34663   0.38881   0.39134
 Alpha virt. eigenvalues --    0.40259   0.42446   0.54462   0.55063   0.64334

 Mulliken charges:
               1
     1  O   -0.271826
     2  C    0.537044
     3  O   -0.265998
     4  O   -0.269013
     5  C    0.539593
     6  O   -0.269800
 Sum of Mulliken charges =  -0.00000

 Dipole moment (field-independent basis, Debye):
    X=              0.0538    Y=              0.0801    Z=              0.0000  Tot=              0.0964
 Quadrupole moment (field-independent basis, Debye-Ang):
   XX=            -34.5695   YY=            -34.5157   ZZ=            -29.3888
   XY=             -0.0242   XZ=              0.0000   YZ=              0.0000

 0936\CCSD(T)=-376.6553066\RMSD=6.409e-09\PG=CS [SG(C2O4)]\\@
 Normal termination of Gaussian 16 at Sat Feb 10 22:15:24 2024.
