 Gaussian 16, Revision A.03,
 Gaussian 16:  ES64L-G16RevA.03 25-Dec-2016

 ------------------
 #p CCSD(T)/cc-pVTZ
 ------------------

 -----------
 CO2_CO2_282
 -----------
 Symbolic Z-matrix:
 Charge =  0 Multiplicity = 1

                         Standard orientation:
 ---------------------------------------------------------------------
 Center     Atomic      Atomic             Coordinates (Angstroms)
 Number     Number       Type             X           Y           Z
 ---------------------------------------------------------------------
      1          8           0        0.000000    0.000000    4.706000
      2          6           0        0.000000    0.000000    3.543000
      3          8           0        0.000000    0.000000    2.380000
      4          8           0        0.000000    0.000000   -2.380000
      5          6           0        0.000000    0.000000   -3.543000
      6          8           0        0.000000    0.000000   -4.706000
 ---------------------------------------------------------------------

 SCF Done:  E(RHF) =  -375.412936996     A.U. after   10 cycles
 E2 =    -0.1203443693D+01 EUMP2 =    -0.37661638068907D+03
 CCSD(T)
 CCSD(T)= -0.37665428741D+03

 The electronic state is 1-SGG.
 Alpha  occ. eigenvalues --  -20.64821 -20.64821 -20.64798 -20.64798 -11.45782
 Alpha  occ. eigenvalues --  -11.45782  -1.52603  -1.52603  -1.47302  -1.47302
 Alpha  occ. eigenvalues --   -0.79708  -0.79694  -0.73893  -0.73874  -0.71079
 Alpha  occ. eigenvalues --   -0.71079  -0.71078  -0.71078  -0.54050  -0.54050
 Alpha  occ. eigenvalues --   -0.54048  -0.54048
 Alpha virt. eigenvalues --    0.17540   0.17698   0.20672   0.20672   0.20676
 Alpha virt. eigenvalues --    0.20676   0.33730   0.34889   0.39664   0.39664
 Alpha virt. eigenvalues --    0.39670   0.39670   0.54882   0.54944   0.65167

 Mulliken charges:
               1
     1  O   -0.269793
     2  C    0.535343
     3  O   -0.265550
     4  O   -0.265550
     5  C    0.535343
     6  O   -0.269793
 Sum of Mulliken charges =  -0.00000

 Dipole moment (field-independent basis, Debye):
    X=             -0.0000    Y=             -0.0000    Z=              0.0000  Tot=              0.0000
 Quadrupole moment (field-independent basis, Debye-Ang):
   XX=            -29.3908   YY=            -29.3908   ZZ=            -39.9757
   XY=              0.0000   XZ=              0.0000   YZ=             -0.0000

 1389\CCSD(T)=-376.6542874\RMSD=4.694e-09\PG=D*H [C*(O1C1O1.O1C1O1)]\\@
 Normal termination of Gaussian 16 at Mon Feb 12 21:59:28 2024.
