 Gaussian 16, Revision A.03,
 Gaussian 16:  ES64L-G16RevA.03 25-Dec-2016

 ------------------
 #p CCSD(T)/cc-pVTZ
 ------------------

 -----------
 CO2_CO2_117
 -----------
 Symbolic Z-matrix:
 Charge =  0 Multiplicity = 1

                         Standard orientation:
 ---------------------------------------------------------------------
 Center     Atomic      Atomic             Coordinates (Angstroms)
 Number     Number       Type             X           Y           Z
 ---------------------------------------------------------------------
      1          8           0        0.000000    0.000000    3.606000
      2          6           0        0.000000    0.000000    2.443000
      3          8           0        0.000000    0.000000    1.280000
      4          8           0        0.000000    0.000000   -1.280000
      5          6           0        0.000000    0.000000   -2.443000
      6          8           0        0.000000    0.000000   -3.606000
 ---------------------------------------------------------------------

 SCF Done:  E(RHF) =  -375.408444727     A.U. after   10 cycles
 E2 =    -0.1205927661D+01 EUMP2 =    -0.37661437238816D+03
 CCSD(T)
 CCSD(T)= -0.37665194927D+03

 The electronic state is 1-SGG.
 Alpha  occ. eigenvalues --  -20.64432 -20.64432 -20.64206 -20.64206 -11.45274
 Alpha  occ. eigenvalues --  -11.45273  -1.52257  -1.52115  -1.46979  -1.46767
 Alpha  occ. eigenvalues --   -0.80698  -0.78343  -0.74567  -0.71656  -0.70781
 Alpha  occ. eigenvalues --   -0.70781  -0.70543  -0.70543  -0.53891  -0.53891
 Alpha  occ. eigenvalues --   -0.53322  -0.53322
 Alpha virt. eigenvalues --    0.17511   0.18392   0.20625   0.20625   0.21451
 Alpha virt. eigenvalues --    0.21451   0.33254   0.38201   0.39417   0.39417
 Alpha virt. eigenvalues --    0.40332   0.40332   0.54064   0.55014   0.67275

 Mulliken charges:
               1
     1  O   -0.287523
     2  C    0.521702
     3  O   -0.234179
     4  O   -0.234179
     5  C    0.521702
     6  O   -0.287523
 Sum of Mulliken charges =   0.00000

 Dipole moment (field-independent basis, Debye):
    X=             -0.0000    Y=              0.0000    Z=             -0.0000  Tot=              0.0000
 Quadrupole moment (field-independent basis, Debye-Ang):
   XX=            -29.4084   YY=            -29.4084   ZZ=            -40.6776
   XY=              0.0000   XZ=              0.0000   YZ=              0.0000

 44695\CCSD(T)=-376.6519493\RMSD=5.098e-09\PG=D*H [C*(O1C1O1.O1C1O1)]\\
 Normal termination of Gaussian 16 at Sat Feb 10 16:27:43 2024.
