 Gaussian 16, Revision A.03,
 Gaussian 16:  ES64L-G16RevA.03 25-Dec-2016

 ------------------
 #p CCSD(T)/cc-pVTZ
 ------------------

 -----------
 CO2_CO2_174
 -----------
 Symbolic Z-matrix:
 Charge =  0 Multiplicity = 1

                         Standard orientation:
 ---------------------------------------------------------------------
 Center     Atomic      Atomic             Coordinates (Angstroms)
 Number     Number       Type             X           Y           Z
 ---------------------------------------------------------------------
      1          8           0        0.000000    0.000000    3.986000
      2          6           0        0.000000    0.000000    2.823000
      3          8           0        0.000000    0.000000    1.660000
      4          8           0        0.000000    0.000000   -1.660000
      5          6           0        0.000000    0.000000   -2.823000
      6          8           0        0.000000    0.000000   -3.986000
 ---------------------------------------------------------------------

 SCF Done:  E(RHF) =  -375.412439190     A.U. after   10 cycles
 E2 =    -0.1204168853D+01 EUMP2 =    -0.37661660804362D+03
 CCSD(T)
 CCSD(T)= -0.37665441895D+03

 The electronic state is 1-SGG.
 Alpha  occ. eigenvalues --  -20.64651 -20.64651 -20.64590 -20.64590 -11.45579
 Alpha  occ. eigenvalues --  -11.45579  -1.52427  -1.52412  -1.47127  -1.47102
 Alpha  occ. eigenvalues --   -0.79726  -0.79274  -0.73938  -0.73365  -0.70917
 Alpha  occ. eigenvalues --   -0.70917  -0.70878  -0.70878  -0.53907  -0.53907
 Alpha  occ. eigenvalues --   -0.53807  -0.53807
 Alpha virt. eigenvalues --    0.17457   0.18049   0.20740   0.20740   0.20943
 Alpha virt. eigenvalues --    0.20943   0.32351   0.36892   0.39691   0.39691
 Alpha virt. eigenvalues --    0.39898   0.39898   0.54809   0.55212   0.58607

 Mulliken charges:
               1
     1  O   -0.275320
     2  C    0.533272
     3  O   -0.257952
     4  O   -0.257952
     5  C    0.533272
     6  O   -0.275320
 Sum of Mulliken charges =  -0.00000

 Dipole moment (field-independent basis, Debye):
    X=             -0.0000    Y=             -0.0000    Z=              0.0000  Tot=              0.0000
 Quadrupole moment (field-independent basis, Debye-Ang):
   XX=            -29.3961   YY=            -29.3961   ZZ=            -40.2595
   XY=              0.0000   XZ=              0.0000   YZ=              0.0000

 1692\CCSD(T)=-376.654419\RMSD=4.582e-09\PG=D*H [C*(O1C1O1.O1C1O1)]\\@
 Normal termination of Gaussian 16 at Sat Feb 10 21:03:39 2024.
