 Gaussian 16, Revision A.03,
 Gaussian 16:  ES64L-G16RevA.03 25-Dec-2016

 ------------------
 #p CCSD(T)/cc-pVTZ
 ------------------

 -----------
 CO2_CO2_289
 -----------
 Symbolic Z-matrix:
 Charge =  0 Multiplicity = 1

                         Standard orientation:
 ---------------------------------------------------------------------
 Center     Atomic      Atomic             Coordinates (Angstroms)
 Number     Number       Type             X           Y           Z
 ---------------------------------------------------------------------
      1          8           0        1.233548   -4.235048    0.000000
      2          6           0        0.411183   -3.412683    0.000000
      3          8           0       -0.411183   -2.590317    0.000000
      4          8           0       -0.411183    2.249683    0.000000
      5          6           0       -0.411183    3.412683    0.000000
      6          8           0       -0.411183    4.575682    0.000000
 ---------------------------------------------------------------------

 SCF Done:  E(RHF) =  -375.413016058     A.U. after   10 cycles
 E2 =    -0.1203406017D+01 EUMP2 =    -0.37661642207505D+03
 CCSD(T)
 CCSD(T)= -0.37665433757D+03

 The electronic state is 1-A'.
 Alpha  occ. eigenvalues --  -20.64909 -20.64896 -20.64817 -20.64794 -11.45878
 Alpha  occ. eigenvalues --  -11.45781  -1.52696  -1.52598  -1.47396  -1.47298
 Alpha  occ. eigenvalues --   -0.79799  -0.79702  -0.73983  -0.73886  -0.71171
 Alpha  occ. eigenvalues --   -0.71171  -0.71074  -0.71072  -0.54144  -0.54144
 Alpha  occ. eigenvalues --   -0.54047  -0.54044
 Alpha virt. eigenvalues --    0.17494   0.17673   0.20584   0.20584   0.20679
 Alpha virt. eigenvalues --    0.20684   0.33647   0.34882   0.39582   0.39584
 Alpha virt. eigenvalues --    0.39676   0.39694   0.54813   0.54933   0.65597

 Mulliken charges:
               1
     1  O   -0.269786
     2  C    0.535863
     3  O   -0.266075
     4  O   -0.266782
     5  C    0.535881
     6  O   -0.269101
 Sum of Mulliken charges =  -0.00000

 Dipole moment (field-independent basis, Debye):
    X=             -0.0142    Y=              0.0056    Z=              0.0000  Tot=              0.0152
 Quadrupole moment (field-independent basis, Debye-Ang):
   XX=            -31.9687   YY=            -37.3002   ZZ=            -29.3901
   XY=              2.6014   XZ=             -0.0000   YZ=              0.0000

 Q=-376.6053659\CCSD=-376.5971938\CCSD(T)=-376.6543376\RMSD=5.857e-09\P
 Normal termination of Gaussian 16 at Mon Feb 12 22:27:03 2024.
