 Gaussian 16, Revision A.03,
 Gaussian 16:  ES64L-G16RevA.03 25-Dec-2016

 ------------------
 #p CCSD(T)/cc-pVTZ
 ------------------

 -----------
 CO2_CO2_226
 -----------
 Symbolic Z-matrix:
 Charge =  0 Multiplicity = 1

                         Standard orientation:
 ---------------------------------------------------------------------
 Center     Atomic      Atomic             Coordinates (Angstroms)
 Number     Number       Type             X           Y           Z
 ---------------------------------------------------------------------
      1          8           0        1.233548   -3.815048    0.000000
      2          6           0        0.411183   -2.992682    0.000000
      3          8           0       -0.411183   -2.170317    0.000000
      4          8           0       -0.411183    1.829683   -0.000000
      5          6           0       -0.411183    2.992682   -0.000000
      6          8           0       -0.411183    4.155682   -0.000000
 ---------------------------------------------------------------------

 SCF Done:  E(RHF) =  -375.412931523     A.U. after   11 cycles
 E2 =    -0.1203624553D+01 EUMP2 =    -0.37661655607602D+03
 CCSD(T)
 CCSD(T)= -0.37665443757D+03

 The electronic state is 1-A'.
 Alpha  occ. eigenvalues --  -20.64865 -20.64844 -20.64740 -20.64704 -11.45825
 Alpha  occ. eigenvalues --  -11.45693  -1.52648  -1.52514  -1.47347  -1.47212
 Alpha  occ. eigenvalues --   -0.79753  -0.79601  -0.73941  -0.73775  -0.71124
 Alpha  occ. eigenvalues --   -0.71124  -0.70992  -0.70986  -0.54094  -0.54094
 Alpha  occ. eigenvalues --   -0.53961  -0.53954
 Alpha virt. eigenvalues --    0.17292   0.17901   0.20625   0.20628   0.20757
 Alpha virt. eigenvalues --    0.20765   0.32230   0.36133   0.39585   0.39601
 Alpha virt. eigenvalues --    0.39758   0.39887   0.54832   0.54990   0.63087

 Mulliken charges:
               1
     1  O   -0.270905
     2  C    0.535222
     3  O   -0.264257
     4  O   -0.265405
     5  C    0.535309
     6  O   -0.269964
 Sum of Mulliken charges =  -0.00000

 Dipole moment (field-independent basis, Debye):
    X=             -0.0238    Y=              0.0067    Z=             -0.0000  Tot=              0.0247
 Quadrupole moment (field-independent basis, Debye-Ang):
   XX=            -31.9730   YY=            -37.3866   ZZ=            -29.3918
   XY=              2.6169   XZ=             -0.0000   YZ=              0.0000

 Q=-376.6054552\CCSD=-376.5972635\CCSD(T)=-376.6544376\RMSD=2.630e-09\P
 Normal termination of Gaussian 16 at Mon Feb 12 18:35:18 2024.
