 Gaussian 16, Revision A.03,
 Gaussian 16:  ES64L-G16RevA.03 25-Dec-2016

 ------------------
 #p CCSD(T)/cc-pVTZ
 ------------------

 ----------
 CO2_CO2_23
 ----------
 Symbolic Z-matrix:
 Charge =  0 Multiplicity = 1

                         Standard orientation:
 ---------------------------------------------------------------------
 Center     Atomic      Atomic             Coordinates (Angstroms)
 Number     Number       Type             X           Y           Z
 ---------------------------------------------------------------------
      1          8           0       -1.744500   -1.221500    0.000000
      2          6           0       -0.581500   -1.221500    0.000000
      3          8           0        0.581500   -1.221500    0.000000
      4          8           0        0.581500    0.058500    0.000000
      5          6           0        0.581500    1.221500    0.000000
      6          8           0        0.581500    2.384500    0.000000
 ---------------------------------------------------------------------

 SCF Done:  E(RHF) =  -374.810272525     A.U. after   17 cycles
 E2 =    -0.1282118406D+01 EUMP2 =    -0.37609239093081D+03
 CCSD(T)
 CCSD(T)= -0.37611711306D+03

 The electronic state is 1-A'.
 Alpha  occ. eigenvalues --  -20.66370 -20.66094 -20.65433 -20.61920 -11.44620
 Alpha  occ. eigenvalues --  -11.41022  -1.72558  -1.51342  -1.47409  -1.44445
 Alpha  occ. eigenvalues --   -1.00819  -0.87677  -0.81346  -0.77399  -0.73844
 Alpha  occ. eigenvalues --   -0.69677  -0.68292  -0.61663  -0.58762  -0.54581
 Alpha  occ. eigenvalues --   -0.50131  -0.24781
 Alpha virt. eigenvalues --    0.14712   0.16111   0.17625   0.21718   0.22836
 Alpha virt. eigenvalues --    0.25641   0.32308   0.36453   0.38155   0.41872
 Alpha virt. eigenvalues --    0.44280   0.46630   0.54926   0.57743   0.63407

 Mulliken charges:
               1
     1  O   -0.291927
     2  C    0.311844
     3  O   -0.057202
     4  O   -0.151415
     5  C    0.449960
     6  O   -0.261259
 Sum of Mulliken charges =  -0.00000

 Dipole moment (field-independent basis, Debye):
    X=              1.3620    Y=              0.7328    Z=              0.0000  Tot=              1.5466
 Quadrupole moment (field-independent basis, Debye-Ang):
   XX=            -34.7759   YY=            -38.9412   ZZ=            -29.1845
   XY=             -1.5899   XZ=              0.0000   YZ=              0.0000

 02\CCSD(T)=-376.1171131\RMSD=8.515e-09\PG=CS [SG(C2O4)]\\@
 Normal termination of Gaussian 16 at Fri Feb  9 20:52:54 2024.
