 Gaussian 16, Revision A.03,
 Gaussian 16:  ES64L-G16RevA.03 25-Dec-2016

 ------------------
 #p CCSD(T)/cc-pVTZ
 ------------------

 -----------
 CO2_CO2_127
 -----------
 Symbolic Z-matrix:
 Charge =  0 Multiplicity = 1

                         Standard orientation:
 ---------------------------------------------------------------------
 Center     Atomic      Atomic             Coordinates (Angstroms)
 Number     Number       Type             X           Y           Z
 ---------------------------------------------------------------------
      1          8           0        1.233548   -3.155048   -0.000000
      2          6           0        0.411183   -2.332683   -0.000000
      3          8           0       -0.411183   -1.510317    0.000000
      4          8           0       -0.411183    1.169682    0.000000
      5          6           0       -0.411183    2.332682    0.000000
      6          8           0       -0.411183    3.495683    0.000000
 ---------------------------------------------------------------------

 SCF Done:  E(RHF) =  -375.409913603     A.U. after   11 cycles
 E2 =    -0.1205552081D+01 EUMP2 =    -0.37661546568409D+03
 CCSD(T)
 CCSD(T)= -0.37665312295D+03

 The electronic state is 1-A'.
 Alpha  occ. eigenvalues --  -20.64682 -20.64535 -20.64424 -20.64251 -11.45567
 Alpha  occ. eigenvalues --  -11.45306  -1.52464  -1.52167  -1.47167  -1.46844
 Alpha  occ. eigenvalues --   -0.80314  -0.78754  -0.74415  -0.72626  -0.70960
 Alpha  occ. eigenvalues --   -0.70937  -0.70630  -0.70488  -0.54008  -0.53953
 Alpha  occ. eigenvalues --   -0.53489  -0.53472
 Alpha virt. eigenvalues --    0.17097   0.18571   0.20641   0.20778   0.21061
 Alpha virt. eigenvalues --    0.21192   0.33168   0.36760   0.39153   0.39324
 Alpha virt. eigenvalues --    0.40415   0.41938   0.54316   0.55363   0.64367

 Mulliken charges:
               1
     1  O   -0.278810
     2  C    0.529194
     3  O   -0.250569
     4  O   -0.244222
     5  C    0.527269
     6  O   -0.282862
 Sum of Mulliken charges =   0.00000

 Dipole moment (field-independent basis, Debye):
    X=             -0.0706    Y=              0.0241    Z=              0.0000  Tot=              0.0746
 Quadrupole moment (field-independent basis, Debye-Ang):
   XX=            -32.0014   YY=            -37.8221   ZZ=            -29.4033
   XY=              2.6946   XZ=              0.0000   YZ=             -0.0000

 Q=-376.6040081\CCSD=-376.5956749\CCSD(T)=-376.6531229\RMSD=4.006e-09\P
 Normal termination of Gaussian 16 at Sat Feb 10 17:18:51 2024.
