 Gaussian 16, Revision A.03,
 Gaussian 16:  ES64L-G16RevA.03 25-Dec-2016

 ------------------
 #p CCSD(T)/cc-pVTZ
 ------------------

 -----------
 CO2_CO2_133
 -----------
 Symbolic Z-matrix:
 Charge =  0 Multiplicity = 1

                         Standard orientation:
 ---------------------------------------------------------------------
 Center     Atomic      Atomic             Coordinates (Angstroms)
 Number     Number       Type             X           Y           Z
 ---------------------------------------------------------------------
      1          8           0        1.233548   -3.195048   -0.000000
      2          6           0        0.411183   -2.372683   -0.000000
      3          8           0       -0.411183   -1.550317   -0.000000
      4          8           0       -0.411183    1.209683    0.000000
      5          6           0       -0.411183    2.372683    0.000000
      6          8           0       -0.411183    3.535682    0.000000
 ---------------------------------------------------------------------

 SCF Done:  E(RHF) =  -375.410665834     A.U. after   11 cycles
 E2 =    -0.1205274666D+01 EUMP2 =    -0.37661594050042D+03
 CCSD(T)
 CCSD(T)= -0.37665363440D+03

 The electronic state is 1-A'.
 Alpha  occ. eigenvalues --  -20.64701 -20.64579 -20.64460 -20.64311 -11.45598
 Alpha  occ. eigenvalues --  -11.45351  -1.52480  -1.52206  -1.47181  -1.46888
 Alpha  occ. eigenvalues --   -0.80178  -0.78864  -0.74326  -0.72792  -0.70971
 Alpha  occ. eigenvalues --   -0.70957  -0.70674  -0.70571  -0.54002  -0.53960
 Alpha  occ. eigenvalues --   -0.53554  -0.53540
 Alpha virt. eigenvalues --    0.17121   0.18505   0.20653   0.20763   0.21029
 Alpha virt. eigenvalues --    0.21135   0.33061   0.36774   0.39223   0.39354
 Alpha virt. eigenvalues --    0.40335   0.41703   0.54422   0.55307   0.64248

 Mulliken charges:
               1
     1  O   -0.278133
     2  C    0.529715
     3  O   -0.251710
     4  O   -0.247045
     5  C    0.528627
     6  O   -0.281454
 Sum of Mulliken charges =  -0.00000

 Dipole moment (field-independent basis, Debye):
    X=             -0.0654    Y=              0.0209    Z=              0.0000  Tot=              0.0686
 Quadrupole moment (field-independent basis, Debye-Ang):
   XX=            -31.9970   YY=            -37.7697   ZZ=            -29.4018
   XY=              2.6855   XZ=             -0.0000   YZ=             -0.0000

 -376.6045374\CCSD=-376.5962239\CCSD(T)=-376.6536344\RMSD=3.876e-09\PG=
 Normal termination of Gaussian 16 at Sat Feb 10 17:47:13 2024.
