 Gaussian 16, Revision A.03,
 Gaussian 16:  ES64L-G16RevA.03 25-Dec-2016

 ------------------
 #p CCSD(T)/cc-pVTZ
 ------------------

 -----------
 CO2_CO2_201
 -----------
 Symbolic Z-matrix:
 Charge =  0 Multiplicity = 1

                         Standard orientation:
 ---------------------------------------------------------------------
 Center     Atomic      Atomic             Coordinates (Angstroms)
 Number     Number       Type             X           Y           Z
 ---------------------------------------------------------------------
      1          8           0        0.000000    0.000000    4.166000
      2          6           0        0.000000    0.000000    3.003000
      3          8           0        0.000000    0.000000    1.840000
      4          8           0        0.000000    0.000000   -1.840000
      5          6           0        0.000000    0.000000   -3.003000
      6          8           0        0.000000    0.000000   -4.166000
 ---------------------------------------------------------------------

 SCF Done:  E(RHF) =  -375.412704157     A.U. after   10 cycles
 E2 =    -0.1203841445D+01 EUMP2 =    -0.37661654560188D+03
 CCSD(T)
 CCSD(T)= -0.37665439386D+03

 The electronic state is 1-SGG.
 Alpha  occ. eigenvalues --  -20.64712 -20.64712 -20.64669 -20.64669 -11.45654
 Alpha  occ. eigenvalues --  -11.45654  -1.52488  -1.52482  -1.47186  -1.47177
 Alpha  occ. eigenvalues --   -0.79668  -0.79465  -0.73869  -0.73610  -0.70971
 Alpha  occ. eigenvalues --   -0.70971  -0.70954  -0.70954  -0.53947  -0.53947
 Alpha  occ. eigenvalues --   -0.53904  -0.53904
 Alpha virt. eigenvalues --    0.17386   0.17971   0.20738   0.20738   0.20829
 Alpha virt. eigenvalues --    0.20829   0.32151   0.36463   0.39707   0.39707
 Alpha virt. eigenvalues --    0.39801   0.39801   0.54910   0.55125   0.59420

 Mulliken charges:
               1
     1  O   -0.272247
     2  C    0.534364
     3  O   -0.262117
     4  O   -0.262117
     5  C    0.534364
     6  O   -0.272247
 Sum of Mulliken charges =   0.00000

 Dipole moment (field-independent basis, Debye):
    X=             -0.0000    Y=             -0.0000    Z=              0.0000  Tot=              0.0000
 Quadrupole moment (field-independent basis, Debye-Ang):
   XX=            -29.3938   YY=            -29.3938   ZZ=            -40.1537
   XY=              0.0000   XZ=              0.0000   YZ=             -0.0000

 1\CCSD(T)=-376.6543939\RMSD=4.663e-09\PG=D*H [C*(O1C1O1.O1C1O1)]\\@
 Normal termination of Gaussian 16 at Sat Feb 10 23:16:55 2024.
