 Gaussian 16, Revision A.03,
 Gaussian 16:  ES64L-G16RevA.03 25-Dec-2016

 ------------------
 #p CCSD(T)/cc-pVTZ
 ------------------

 ----------
 CO2_CO2_91
 ----------
 Symbolic Z-matrix:
 Charge =  0 Multiplicity = 1

                         Standard orientation:
 ---------------------------------------------------------------------
 Center     Atomic      Atomic             Coordinates (Angstroms)
 Number     Number       Type             X           Y           Z
 ---------------------------------------------------------------------
      1          8           0        1.233548   -2.915048    0.000000
      2          6           0        0.411183   -2.092683    0.000000
      3          8           0       -0.411183   -1.270317    0.000000
      4          8           0       -0.411183    0.929683   -0.000000
      5          6           0       -0.411183    2.092683   -0.000000
      6          8           0       -0.411183    3.255682   -0.000000
 ---------------------------------------------------------------------

 SCF Done:  E(RHF) =  -375.394756246     A.U. after   11 cycles
 E2 =    -0.1208831780D+01 EUMP2 =    -0.37660358802637D+03
 CCSD(T)
 CCSD(T)= -0.37664070013D+03

 The electronic state is 1-A'.
 Alpha  occ. eigenvalues --  -20.64519 -20.64092 -20.63994 -20.63612 -11.45249
 Alpha  occ. eigenvalues --  -11.44861  -1.52415  -1.51790  -1.47161  -1.46383
 Alpha  occ. eigenvalues --   -0.82377  -0.77884  -0.75122  -0.71574  -0.70937
 Alpha  occ. eigenvalues --   -0.70595  -0.70196  -0.68905  -0.54205  -0.53936
 Alpha  occ. eigenvalues --   -0.52816  -0.52660
 Alpha virt. eigenvalues --    0.16894   0.19077   0.20472   0.20850   0.21386
 Alpha virt. eigenvalues --    0.21732   0.33667   0.36520   0.38586   0.39154
 Alpha virt. eigenvalues --    0.41079   0.43631   0.53835   0.55979   0.64975

 Mulliken charges:
               1
     1  O   -0.284065
     2  C    0.527453
     3  O   -0.245561
     4  O   -0.225402
     5  C    0.519883
     6  O   -0.292309
 Sum of Mulliken charges =  -0.00000

 Dipole moment (field-independent basis, Debye):
    X=             -0.1178    Y=              0.0642    Z=              0.0000  Tot=              0.1342
 Quadrupole moment (field-independent basis, Debye-Ang):
   XX=            -32.0414   YY=            -38.3174   ZZ=            -29.4075
   XY=              2.7817   XZ=              0.0000   YZ=              0.0000

 914324\CCSD=-376.5828465\CCSD(T)=-376.6407001\RMSD=4.116e-09\PG=CS [SG
 Normal termination of Gaussian 16 at Sat Feb 10 02:38:10 2024.
