 Gaussian 16, Revision A.03,
 Gaussian 16:  ES64L-G16RevA.03 25-Dec-2016

 ------------------
 #p CCSD(T)/cc-pVTZ
 ------------------

 ----------
 CO2_CO2_29
 ----------
 Symbolic Z-matrix:
 Charge =  0 Multiplicity = 1

                         Standard orientation:
 ---------------------------------------------------------------------
 Center     Atomic      Atomic             Coordinates (Angstroms)
 Number     Number       Type             X           Y           Z
 ---------------------------------------------------------------------
      1          8           0       -1.744500   -1.261500    0.000000
      2          6           0       -0.581500   -1.261500    0.000000
      3          8           0        0.581500   -1.261500    0.000000
      4          8           0        0.581500    0.098500    0.000000
      5          6           0        0.581500    1.261500    0.000000
      6          8           0        0.581500    2.424500    0.000000
 ---------------------------------------------------------------------

 SCF Done:  E(RHF) =  -374.943831918     A.U. after   16 cycles
 E2 =    -0.1265155431D+01 EUMP2 =    -0.37620898734831D+03
 CCSD(T)
 CCSD(T)= -0.37623640077D+03

 The electronic state is 1-A'.
 Alpha  occ. eigenvalues --  -20.65237 -20.63959 -20.62818 -20.62812 -11.44281
 Alpha  occ. eigenvalues --  -11.42394  -1.66002  -1.51103  -1.48120  -1.43994
 Alpha  occ. eigenvalues --   -0.97161  -0.84108  -0.77723  -0.77134  -0.74438
 Alpha  occ. eigenvalues --   -0.69274  -0.68262  -0.61958  -0.58312  -0.54167
 Alpha  occ. eigenvalues --   -0.49801  -0.30837
 Alpha virt. eigenvalues --    0.15242   0.16697   0.18467   0.21899   0.23510
 Alpha virt. eigenvalues --    0.24611   0.32671   0.36546   0.38005   0.41724
 Alpha virt. eigenvalues --    0.44175   0.46674   0.55099   0.57997   0.64193

 Mulliken charges:
               1
     1  O   -0.291447
     2  C    0.405607
     3  O   -0.128519
     4  O   -0.189478
     5  C    0.484205
     6  O   -0.280368
 Sum of Mulliken charges =  -0.00000

 Dipole moment (field-independent basis, Debye):
    X=              0.9421    Y=              0.5333    Z=              0.0000  Tot=              1.0826
 Quadrupole moment (field-independent basis, Debye-Ang):
   XX=            -34.5380   YY=            -37.8546   ZZ=            -29.1735
   XY=             -0.9142   XZ=              0.0000   YZ=              0.0000

 954\CCSD(T)=-376.2364008\RMSD=4.294e-09\PG=CS [SG(C2O4)]\\@
 Normal termination of Gaussian 16 at Fri Feb  9 21:24:47 2024.
