 Gaussian 16, Revision A.03,
 Gaussian 16:  ES64L-G16RevA.03 25-Dec-2016

 ------------------
 #p CCSD(T)/cc-pVTZ
 ------------------

 -----------
 CO2_CO2_184
 -----------
 Symbolic Z-matrix:
 Charge =  0 Multiplicity = 1

                         Standard orientation:
 ---------------------------------------------------------------------
 Center     Atomic      Atomic             Coordinates (Angstroms)
 Number     Number       Type             X           Y           Z
 ---------------------------------------------------------------------
      1          8           0        1.233548   -3.535048    0.000000
      2          6           0        0.411183   -2.712683    0.000000
      3          8           0       -0.411183   -1.890317    0.000000
      4          8           0       -0.411183    1.549682   -0.000000
      5          6           0       -0.411183    2.712683   -0.000000
      6          8           0       -0.411183    3.875683   -0.000000
 ---------------------------------------------------------------------

 SCF Done:  E(RHF) =  -375.412705642     A.U. after   11 cycles
 E2 =    -0.1204016236D+01 EUMP2 =    -0.37661672187787D+03
 CCSD(T)
 CCSD(T)= -0.37665455741D+03

 The electronic state is 1-A'.
 Alpha  occ. eigenvalues --  -20.64813 -20.64778 -20.64656 -20.64600 -11.45760
 Alpha  occ. eigenvalues --  -11.45593  -1.52592  -1.52421  -1.47289  -1.47117
 Alpha  occ. eigenvalues --   -0.79763  -0.79431  -0.73967  -0.73571  -0.71070
 Alpha  occ. eigenvalues --   -0.71070  -0.70900  -0.70886  -0.54042  -0.54039
 Alpha  occ. eigenvalues --   -0.53858  -0.53847
 Alpha virt. eigenvalues --    0.17173   0.18109   0.20666   0.20668   0.20848
 Alpha virt. eigenvalues --    0.20852   0.31915   0.36697   0.39536   0.39550
 Alpha virt. eigenvalues --    0.39900   0.40351   0.54905   0.55058   0.60834

 Mulliken charges:
               1
     1  O   -0.273164
     2  C    0.533999
     3  O   -0.260708
     4  O   -0.262124
     5  C    0.534675
     6  O   -0.272678
 Sum of Mulliken charges =  -0.00000

 Dipole moment (field-independent basis, Debye):
    X=             -0.0357    Y=              0.0083    Z=             -0.0000  Tot=              0.0366
 Quadrupole moment (field-independent basis, Debye-Ang):
   XX=            -31.9778   YY=            -37.4914   ZZ=            -29.3938
   XY=              2.6359   XZ=             -0.0000   YZ=              0.0000

 Q=-376.6055486\CCSD=-376.5973264\CCSD(T)=-376.6545574\RMSD=2.918e-09\P
 Normal termination of Gaussian 16 at Sat Feb 10 21:52:44 2024.
