 Gaussian 16, Revision A.03,
 Gaussian 16:  ES64L-G16RevA.03 25-Dec-2016

 ------------------
 #p CCSD(T)/cc-pVTZ
 ------------------

 -----------
 CO2_CO2_166
 -----------
 Symbolic Z-matrix:
 Charge =  0 Multiplicity = 1

                         Standard orientation:
 ---------------------------------------------------------------------
 Center     Atomic      Atomic             Coordinates (Angstroms)
 Number     Number       Type             X           Y           Z
 ---------------------------------------------------------------------
      1          8           0        1.233548   -3.415048    0.000000
      2          6           0        0.411183   -2.592683    0.000000
      3          8           0       -0.411183   -1.770317   -0.000000
      4          8           0       -0.411183    1.429683   -0.000000
      5          6           0       -0.411183    2.592683   -0.000000
      6          8           0       -0.411183    3.755682   -0.000000
 ---------------------------------------------------------------------

 SCF Done:  E(RHF) =  -375.412421742     A.U. after   11 cycles
 E2 =    -0.1204309667D+01 EUMP2 =    -0.37661673140920D+03
 CCSD(T)
 CCSD(T)= -0.37665453669D+03

 The electronic state is 1-A'.
 Alpha  occ. eigenvalues --  -20.64781 -20.64731 -20.64603 -20.64529 -11.45718
 Alpha  occ. eigenvalues --  -11.45529  -1.52558  -1.52363  -1.47255  -1.47057
 Alpha  occ. eigenvalues --   -0.79820  -0.79293  -0.74030  -0.73396  -0.71039
 Alpha  occ. eigenvalues --   -0.71038  -0.70841  -0.70817  -0.54018  -0.54010
 Alpha  occ. eigenvalues --   -0.53786  -0.53774
 Alpha virt. eigenvalues --    0.17168   0.18221   0.20674   0.20694   0.20898
 Alpha virt. eigenvalues --    0.20921   0.32253   0.36772   0.39482   0.39490
 Alpha virt. eigenvalues --    0.40011   0.40708   0.54840   0.55143   0.61149

 Mulliken charges:
               1
     1  O   -0.274729
     2  C    0.532842
     3  O   -0.258033
     4  O   -0.258659
     5  C    0.533629
     6  O   -0.275051
 Sum of Mulliken charges =  -0.00000

 Dipole moment (field-independent basis, Debye):
    X=             -0.0436    Y=              0.0107    Z=              0.0000  Tot=              0.0449
 Quadrupole moment (field-independent basis, Debye-Ang):
   XX=            -31.9818   YY=            -37.5639   ZZ=            -29.3955
   XY=              2.6490   XZ=             -0.0000   YZ=             -0.0000

 Q=-376.6055066\CCSD=-376.5972627\CCSD(T)=-376.6545367\RMSD=3.160e-09\P
 Normal termination of Gaussian 16 at Sat Feb 10 20:26:17 2024.
