 Gaussian 16, Revision A.03,
 Gaussian 16:  ES64L-G16RevA.03 25-Dec-2016

 ------------------
 #p CCSD(T)/cc-pVTZ
 ------------------

 ----------
 CO2_CO2_87
 ----------
 Symbolic Z-matrix:
 Charge =  0 Multiplicity = 1

                         Standard orientation:
 ---------------------------------------------------------------------
 Center     Atomic      Atomic             Coordinates (Angstroms)
 Number     Number       Type             X           Y           Z
 ---------------------------------------------------------------------
      1          8           0        0.000000    0.000000    3.406000
      2          6           0        0.000000    0.000000    2.243000
      3          8           0        0.000000    0.000000    1.080000
      4          8           0        0.000000    0.000000   -1.080000
      5          6           0        0.000000    0.000000   -2.243000
      6          8           0        0.000000    0.000000   -3.406000
 ---------------------------------------------------------------------

 SCF Done:  E(RHF) =  -375.392944717     A.U. after   10 cycles
 E2 =    -0.1208747775D+01 EUMP2 =    -0.37660169249161D+03
 CCSD(T)
 CCSD(T)= -0.37663876923D+03

 The electronic state is 1-SGG.
 Alpha  occ. eigenvalues --  -20.64203 -20.64203 -20.63582 -20.63581 -11.44880
 Alpha  occ. eigenvalues --  -11.44880  -1.52196  -1.51743  -1.46971  -1.46307
 Alpha  occ. eigenvalues --   -0.83109  -0.77503  -0.75136  -0.70744  -0.70744
 Alpha  occ. eigenvalues --   -0.70115  -0.70115  -0.68515  -0.54074  -0.54074
 Alpha  occ. eigenvalues --   -0.52650  -0.52650
 Alpha virt. eigenvalues --    0.17341   0.18796   0.20429   0.20429   0.22044
 Alpha virt. eigenvalues --    0.22044   0.32933   0.39044   0.39044   0.39146
 Alpha virt. eigenvalues --    0.40781   0.40781   0.53457   0.55867   0.67504

 Mulliken charges:
               1
     1  O   -0.296869
     2  C    0.514846
     3  O   -0.217977
     4  O   -0.217977
     5  C    0.514846
     6  O   -0.296869
 Sum of Mulliken charges =   0.00000

 Dipole moment (field-independent basis, Debye):
    X=             -0.0000    Y=             -0.0000    Z=              0.0000  Tot=              0.0000
 Quadrupole moment (field-independent basis, Debye-Ang):
   XX=            -29.4114   YY=            -29.4114   ZZ=            -41.1404
   XY=              0.0000   XZ=              0.0000   YZ=              0.0000

 967\CCSD(T)=-376.6387692\RMSD=6.220e-09\PG=D*H [C*(O1C1O1.O1C1O1)]\\@
 Normal termination of Gaussian 16 at Sat Feb 10 02:18:07 2024.
