 Gaussian 16, Revision A.03,
 Gaussian 16:  ES64L-G16RevA.03 25-Dec-2016

 ------------------
 #p CCSD(T)/cc-pVTZ
 ------------------

 -----------
 CO2_CO2_104
 -----------
 Symbolic Z-matrix:
 Charge =  0 Multiplicity = 1

                         Standard orientation:
 ---------------------------------------------------------------------
 Center     Atomic      Atomic             Coordinates (Angstroms)
 Number     Number       Type             X           Y           Z
 ---------------------------------------------------------------------
      1          8           0       -1.744500   -1.761500    0.000000
      2          6           0       -0.581500   -1.761500    0.000000
      3          8           0        0.581500   -1.761500    0.000000
      4          8           0        0.581500    0.598500    0.000000
      5          6           0        0.581500    1.761500    0.000000
      6          8           0        0.581500    2.924500    0.000000
 ---------------------------------------------------------------------

 SCF Done:  E(RHF) =  -375.401699863     A.U. after   13 cycles
 E2 =    -0.1207847741D+01 EUMP2 =    -0.37660954760415D+03
 CCSD(T)
 CCSD(T)= -0.37664707934D+03

 The electronic state is 1-A'.
 Alpha  occ. eigenvalues --  -20.65499 -20.65252 -20.64065 -20.63372 -11.46424
 Alpha  occ. eigenvalues --  -11.44821  -1.53400  -1.51702  -1.48071  -1.46347
 Alpha  occ. eigenvalues --   -0.81413  -0.78866  -0.75696  -0.73014  -0.71871
 Alpha  occ. eigenvalues --   -0.71724  -0.70144  -0.68764  -0.54909  -0.54807
 Alpha  occ. eigenvalues --   -0.53035  -0.52790
 Alpha virt. eigenvalues --    0.16059   0.19324   0.19935   0.19947   0.21427
 Alpha virt. eigenvalues --    0.22930   0.34226   0.35468   0.37313   0.39600
 Alpha virt. eigenvalues --    0.42289   0.47309   0.53099   0.57923   0.66703

 Mulliken charges:
               1
     1  O   -0.280991
     2  C    0.537404
     3  O   -0.263541
     4  O   -0.246286
     5  C    0.534302
     6  O   -0.280889
 Sum of Mulliken charges =  -0.00000

 Dipole moment (field-independent basis, Debye):
    X=              0.1938    Y=              0.2191    Z=              0.0000  Tot=              0.2925
 Quadrupole moment (field-independent basis, Debye-Ang):
   XX=            -34.6244   YY=            -34.8721   ZZ=            -29.3937
   XY=             -0.0760   XZ=              0.0000   YZ=              0.0000

 2736\CCSD(T)=-376.6470793\RMSD=2.810e-09\PG=CS [SG(C2O4)]\\@
 Normal termination of Gaussian 16 at Sat Feb 10 15:24:10 2024.
