 Gaussian 16, Revision A.03,
 Gaussian 16:  ES64L-G16RevA.03 25-Dec-2016

 ------------------
 #p CCSD(T)/cc-pVTZ
 ------------------

 ---------
 CO2_CO2_1
 ---------
 Symbolic Z-matrix:
 Charge =  0 Multiplicity = 1

                         Standard orientation:
 ---------------------------------------------------------------------
 Center     Atomic      Atomic             Coordinates (Angstroms)
 Number     Number       Type             X           Y           Z
 ---------------------------------------------------------------------
      1          8           0        1.233548   -2.315048    0.000000
      2          6           0        0.411183   -1.492683    0.000000
      3          8           0       -0.411183   -0.670317    0.000000
      4          8           0       -0.411183    0.329683   -0.000000
      5          6           0       -0.411183    1.492683   -0.000000
      6          8           0       -0.411183    2.655682   -0.000000
 ---------------------------------------------------------------------

 SCF Done:  E(RHF) =  -374.477742959     A.U. after   22 cycles
 E2 =    -0.1254153744D+01 EUMP2 =    -0.37573189670300D+03
 CCSD(T)
 CCSD(T)= -0.37577628563D+03

 The electronic state is 1-A'.
 Alpha  occ. eigenvalues --  -20.86388 -20.81592 -20.69718 -20.53192 -11.55531
 Alpha  occ. eigenvalues --  -11.31561  -2.05201  -1.56487  -1.51443  -1.38765
 Alpha  occ. eigenvalues --   -1.28577  -1.04616  -1.04489  -0.81094  -0.73232
 Alpha  occ. eigenvalues --   -0.72058  -0.66296  -0.60264  -0.58867  -0.53531
 Alpha  occ. eigenvalues --   -0.47447  -0.14850
 Alpha virt. eigenvalues --    0.10603   0.10956   0.12642   0.17567   0.25858
 Alpha virt. eigenvalues --    0.29118   0.33367   0.33970   0.36779   0.38029
 Alpha virt. eigenvalues --    0.46045   0.50016   0.57370   0.61977   0.63857

 Mulliken charges:
               1
     1  O   -0.355241
     2  C   -0.181727
     3  O    0.085522
     4  O    0.566775
     5  C    0.087261
     6  O   -0.202591
 Sum of Mulliken charges =  -0.00000

 Dipole moment (field-independent basis, Debye):
    X=             -4.6170    Y=              3.3976    Z=             -0.0000  Tot=              5.7324
 Quadrupole moment (field-independent basis, Debye-Ang):
   XX=            -34.8788   YY=            -45.1496   ZZ=            -29.9670
   XY=              4.7315   XZ=             -0.0000   YZ=              0.0000

 375.7141279\CCSD=-375.7041843\CCSD(T)=-375.7762856\RMSD=1.847e-09\PG=C
 Normal termination of Gaussian 16 at Fri Feb  9 17:58:39 2024.
