 Gaussian 16, Revision A.03,
 Gaussian 16:  ES64L-G16RevA.03 25-Dec-2016

 ------------------
 #p CCSD(T)/cc-pVTZ
 ------------------

 -----------
 CO2_CO2_247
 -----------
 Symbolic Z-matrix:
 Charge =  0 Multiplicity = 1

                         Standard orientation:
 ---------------------------------------------------------------------
 Center     Atomic      Atomic             Coordinates (Angstroms)
 Number     Number       Type             X           Y           Z
 ---------------------------------------------------------------------
      1          8           0        1.233548   -3.955048    0.000000
      2          6           0        0.411183   -3.132682    0.000000
      3          8           0       -0.411183   -2.310317   -0.000000
      4          8           0       -0.411183    1.969683   -0.000000
      5          6           0       -0.411183    3.132682   -0.000000
      6          8           0       -0.411183    4.295682   -0.000000
 ---------------------------------------------------------------------

 SCF Done:  E(RHF) =  -375.412967542     A.U. after   10 cycles
 E2 =    -0.1203519760D+01 EUMP2 =    -0.37661648730262D+03
 CCSD(T)
 CCSD(T)= -0.37665438430D+03

 The electronic state is 1-A'.
 Alpha  occ. eigenvalues --  -20.64883 -20.64865 -20.64769 -20.64739 -11.45847
 Alpha  occ. eigenvalues --  -11.45727  -1.52667  -1.52547  -1.47366  -1.47246
 Alpha  occ. eigenvalues --   -0.79768  -0.79644  -0.73953  -0.73824  -0.71143
 Alpha  occ. eigenvalues --   -0.71143  -0.71024  -0.71019  -0.54114  -0.54114
 Alpha  occ. eigenvalues --   -0.53995  -0.53990
 Alpha virt. eigenvalues --    0.17380   0.17811   0.20609   0.20611   0.20726
 Alpha virt. eigenvalues --    0.20734   0.32753   0.35693   0.39590   0.39599
 Alpha virt. eigenvalues --    0.39722   0.39786   0.54813   0.54982   0.64325

 Mulliken charges:
               1
     1  O   -0.270377
     2  C    0.535479
     3  O   -0.265078
     4  O   -0.266024
     5  C    0.535498
     6  O   -0.269498
 Sum of Mulliken charges =  -0.00000

 Dipole moment (field-independent basis, Debye):
    X=             -0.0199    Y=              0.0065    Z=             -0.0000  Tot=              0.0209
 Quadrupole moment (field-independent basis, Debye-Ang):
   XX=            -31.9713   YY=            -37.3531   ZZ=            -29.3911
   XY=              2.6108   XZ=              0.0000   YZ=              0.0000

 Q=-376.6054076\CCSD=-376.597225\CCSD(T)=-376.6543843\RMSD=8.716e-09\PG
 Normal termination of Gaussian 16 at Mon Feb 12 19:52:05 2024.
