 Gaussian 16, Revision A.03,
 Gaussian 16:  ES64L-G16RevA.03 25-Dec-2016

 ------------------
 #p CCSD(T)/cc-pVTZ
 ------------------

 -----------
 CO2_CO2_177
 -----------
 Symbolic Z-matrix:
 Charge =  0 Multiplicity = 1

                         Standard orientation:
 ---------------------------------------------------------------------
 Center     Atomic      Atomic             Coordinates (Angstroms)
 Number     Number       Type             X           Y           Z
 ---------------------------------------------------------------------
      1          8           0        0.000000    0.000000    4.006000
      2          6           0        0.000000    0.000000    2.843000
      3          8           0        0.000000    0.000000    1.680000
      4          8           0        0.000000    0.000000   -1.680000
      5          6           0        0.000000    0.000000   -2.843000
      6          8           0        0.000000    0.000000   -4.006000
 ---------------------------------------------------------------------

 SCF Done:  E(RHF) =  -375.412481895     A.U. after   10 cycles
 E2 =    -0.1204123634D+01 EUMP2 =    -0.37661660552956D+03
 CCSD(T)
 CCSD(T)= -0.37665442139D+03

 The electronic state is 1-SGG.
 Alpha  occ. eigenvalues --  -20.64659 -20.64659 -20.64601 -20.64601 -11.45589
 Alpha  occ. eigenvalues --  -11.45589  -1.52435  -1.52421  -1.47134  -1.47112
 Alpha  occ. eigenvalues --   -0.79715  -0.79300  -0.73926  -0.73400  -0.70924
 Alpha  occ. eigenvalues --   -0.70924  -0.70888  -0.70888  -0.53911  -0.53911
 Alpha  occ. eigenvalues --   -0.53820  -0.53820
 Alpha virt. eigenvalues --    0.17446   0.18040   0.20741   0.20741   0.20928
 Alpha virt. eigenvalues --    0.20928   0.32296   0.36846   0.39695   0.39695
 Alpha virt. eigenvalues --    0.39885   0.39885   0.54821   0.55231   0.58547

 Mulliken charges:
               1
     1  O   -0.274883
     2  C    0.533489
     3  O   -0.258607
     4  O   -0.258607
     5  C    0.533489
     6  O   -0.274883
 Sum of Mulliken charges =   0.00000

 Dipole moment (field-independent basis, Debye):
    X=             -0.0000    Y=              0.0000    Z=              0.0000  Tot=              0.0000
 Quadrupole moment (field-independent basis, Debye-Ang):
   XX=            -29.3957   YY=            -29.3957   ZZ=            -40.2458
   XY=              0.0000   XZ=              0.0000   YZ=              0.0000

 7178\CCSD(T)=-376.6544214\RMSD=4.591e-09\PG=D*H [C*(O1C1O1.O1C1O1)]\\@
 Normal termination of Gaussian 16 at Sat Feb 10 21:17:17 2024.
