 Gaussian 16, Revision A.03,
 Gaussian 16:  ES64L-G16RevA.03 25-Dec-2016

 ------------------
 #p CCSD(T)/cc-pVTZ
 ------------------

 ---------
 CO2_CO2_0
 ---------
 Symbolic Z-matrix:
 Charge =  0 Multiplicity = 1

                         Standard orientation:
 ---------------------------------------------------------------------
 Center     Atomic      Atomic             Coordinates (Angstroms)
 Number     Number       Type             X           Y           Z
 ---------------------------------------------------------------------
      1          8           0        0.000000    0.000000    2.826000
      2          6           0        0.000000    0.000000    1.663000
      3          8           0        0.000000    0.000000    0.500000
      4          8           0        0.000000    0.000000   -0.500000
      5          6           0        0.000000    0.000000   -1.663000
      6          8           0        0.000000    0.000000   -2.826000
 ---------------------------------------------------------------------

 SCF Done:  E(RHF) =  -374.421944544     A.U. after   13 cycles
 E2 =    -0.1264053529D+01 EUMP2 =    -0.37568599807243D+03
 CCSD(T)
 CCSD(T)= -0.37572121586D+03

 Unable to determine electronic state:  an orbital has unidentified symmetry.
 Alpha  occ. eigenvalues --  -20.86757 -20.86528 -20.58740 -20.58740 -11.41311
 Alpha  occ. eigenvalues --  -11.41309  -2.05388  -1.53706  -1.44801  -1.43038
 Alpha  occ. eigenvalues --   -1.32646  -1.06497  -1.06382  -0.71478  -0.71299
 Alpha  occ. eigenvalues --   -0.70605  -0.69412  -0.61336  -0.57597  -0.51426
 Alpha  occ. eigenvalues --   -0.49275  -0.13485
 Alpha virt. eigenvalues --    0.12517   0.13975   0.15852   0.17418   0.24806
 Alpha virt. eigenvalues --    0.27109   0.35146   0.35728   0.35869   0.41331
 Alpha virt. eigenvalues --    0.41893   0.42854   0.48819   0.66500   0.67265

 Mulliken charges:
               1
     1  O   -0.358421
     2  C    0.085862
     3  O    0.272560
     4  O    0.272560
     5  C    0.085862
     6  O   -0.358421
 Sum of Mulliken charges =   0.00000

 Dipole moment (field-independent basis, Debye):
    X=             -0.0000    Y=             -0.0000    Z=              0.0000  Tot=              0.0000
 Quadrupole moment (field-independent basis, Debye-Ang):
   XX=            -28.7239   YY=            -32.5892   ZZ=            -56.5934
   XY=              0.0000   XZ=              0.0000   YZ=              0.0000

 08\MP4DQ=-375.6365476\MP4SDQ=-375.6568956\CCSD=-375.6522149\CCSD(T)=-3
 Normal termination of Gaussian 16 at Fri Feb  9 17:41:41 2024.
