 Gaussian 16, Revision A.03,
 Gaussian 16:  ES64L-G16RevA.03 25-Dec-2016

 ------------------
 #p CCSD(T)/cc-pVTZ
 ------------------

 -----------
 CO2_CO2_149
 -----------
 Symbolic Z-matrix:
 Charge =  0 Multiplicity = 1

                         Standard orientation:
 ---------------------------------------------------------------------
 Center     Atomic      Atomic             Coordinates (Angstroms)
 Number     Number       Type             X           Y           Z
 ---------------------------------------------------------------------
      1          8           0       -1.744500   -2.061500    0.000000
      2          6           0       -0.581500   -2.061500    0.000000
      3          8           0        0.581500   -2.061500    0.000000
      4          8           0        0.581500    0.898500    0.000000
      5          6           0        0.581500    2.061500    0.000000
      6          8           0        0.581500    3.224500    0.000000
 ---------------------------------------------------------------------

 SCF Done:  E(RHF) =  -375.412742100     A.U. after   12 cycles
 E2 =    -0.1204704882D+01 EUMP2 =    -0.37661744698145D+03
 CCSD(T)
 CCSD(T)= -0.37665529998D+03

 The electronic state is 1-A'.
 Alpha  occ. eigenvalues --  -20.65374 -20.65349 -20.64386 -20.64200 -11.46360
 Alpha  occ. eigenvalues --  -11.45299  -1.53171  -1.52105  -1.47874  -1.46804
 Alpha  occ. eigenvalues --   -0.80406  -0.79246  -0.74688  -0.73407  -0.71644
 Alpha  occ. eigenvalues --   -0.71642  -0.70594  -0.70346  -0.54640  -0.54634
 Alpha  occ. eigenvalues --   -0.53568  -0.53526
 Alpha virt. eigenvalues --    0.16375   0.19000   0.19850   0.20089   0.21140
 Alpha virt. eigenvalues --    0.21892   0.34423   0.34475   0.38243   0.39153
 Alpha virt. eigenvalues --    0.40948   0.44714   0.54151   0.56419   0.64261

 Mulliken charges:
               1
     1  O   -0.273958
     2  C    0.535785
     3  O   -0.264118
     4  O   -0.262718
     5  C    0.538902
     6  O   -0.273893
 Sum of Mulliken charges =  -0.00000

 Dipole moment (field-independent basis, Debye):
    X=              0.0956    Y=              0.1244    Z=              0.0000  Tot=              0.1569
 Quadrupole moment (field-independent basis, Debye-Ang):
   XX=            -34.5875   YY=            -34.5835   ZZ=            -29.3909
   XY=             -0.0401   XZ=              0.0000   YZ=              0.0000

 6\CCSD(T)=-376.6553\RMSD=7.480e-09\PG=CS [SG(C2O4)]\\@
 Normal termination of Gaussian 16 at Sat Feb 10 19:06:05 2024.
