 Gaussian 16, Revision A.03,
 Gaussian 16:  ES64L-G16RevA.03 25-Dec-2016

 ------------------
 #p CCSD(T)/cc-pVTZ
 ------------------

 -----------
 CO2_CO2_115
 -----------
 Symbolic Z-matrix:
 Charge =  0 Multiplicity = 1

                         Standard orientation:
 ---------------------------------------------------------------------
 Center     Atomic      Atomic             Coordinates (Angstroms)
 Number     Number       Type             X           Y           Z
 ---------------------------------------------------------------------
      1          8           0        1.233548   -3.075048    0.000000
      2          6           0        0.411183   -2.252682    0.000000
      3          8           0       -0.411183   -1.430317    0.000000
      4          8           0       -0.411183    1.089683   -0.000000
      5          6           0       -0.411183    2.252682   -0.000000
      6          8           0       -0.411183    3.415682   -0.000000
 ---------------------------------------------------------------------

 SCF Done:  E(RHF) =  -375.407496918     A.U. after   11 cycles
 E2 =    -0.1206267794D+01 EUMP2 =    -0.37661376471198D+03
 CCSD(T)
 CCSD(T)= -0.37665131721D+03

 The electronic state is 1-A'.
 Alpha  occ. eigenvalues --  -20.64638 -20.64416 -20.64341 -20.64101 -11.45491
 Alpha  occ. eigenvalues --  -11.45197  -1.52434  -1.52073  -1.47146  -1.46736
 Alpha  occ. eigenvalues --   -0.80708  -0.78503  -0.74626  -0.72243  -0.70939
 Alpha  occ. eigenvalues --   -0.70881  -0.70524  -0.70241  -0.54036  -0.53943
 Alpha  occ. eigenvalues --   -0.53328  -0.53297
 Alpha virt. eigenvalues --    0.17037   0.18717   0.20606   0.20810   0.21138
 Alpha virt. eigenvalues --    0.21328   0.33340   0.36712   0.38990   0.39262
 Alpha virt. eigenvalues --    0.40599   0.42455   0.54112   0.55510   0.64409

 Mulliken charges:
               1
     1  O   -0.280263
     2  C    0.528440
     3  O   -0.248594
     4  O   -0.238055
     5  C    0.524315
     6  O   -0.285842
 Sum of Mulliken charges =  -0.00000

 Dipole moment (field-independent basis, Debye):
    X=             -0.0829    Y=              0.0328    Z=             -0.0000  Tot=              0.0891
 Quadrupole moment (field-independent basis, Debye-Ang):
   XX=            -32.0121   YY=            -37.9474   ZZ=            -29.4065
   XY=              2.7163   XZ=             -0.0000   YZ=              0.0000

 Q=-376.6021613\CCSD=-376.5937755\CCSD(T)=-376.6513172\RMSD=4.179e-09\P
 Normal termination of Gaussian 16 at Sat Feb 10 16:19:00 2024.
