 Gaussian 16, Revision A.03,
 Gaussian 16:  ES64L-G16RevA.03 25-Dec-2016

 ------------------
 #p CCSD(T)/cc-pVTZ
 ------------------

 ----------
 CO2_CO2_20
 ----------
 Symbolic Z-matrix:
 Charge =  0 Multiplicity = 1

                         Standard orientation:
 ---------------------------------------------------------------------
 Center     Atomic      Atomic             Coordinates (Angstroms)
 Number     Number       Type             X           Y           Z
 ---------------------------------------------------------------------
      1          8           0       -1.744500   -1.201500    0.000000
      2          6           0       -0.581500   -1.201500    0.000000
      3          8           0        0.581500   -1.201500    0.000000
      4          8           0        0.581500    0.038500    0.000000
      5          6           0        0.581500    1.201500    0.000000
      6          8           0        0.581500    2.364500    0.000000
 ---------------------------------------------------------------------

 SCF Done:  E(RHF) =  -374.737210660     A.U. after   20 cycles
 E2 =    -0.1289310885D+01 EUMP2 =    -0.37602652154479D+03
 CCSD(T)
 CCSD(T)= -0.37605124055D+03

 The electronic state is 1-A'.
 Alpha  occ. eigenvalues --  -20.69483 -20.68254 -20.65734 -20.60990 -11.45457
 Alpha  occ. eigenvalues --  -11.39587  -1.77187  -1.51725  -1.46894  -1.44828
 Alpha  occ. eigenvalues --   -1.03358  -0.90283  -0.84266  -0.77714  -0.73102
 Alpha  occ. eigenvalues --   -0.70301  -0.68561  -0.61452  -0.58750  -0.55081
 Alpha  occ. eigenvalues --   -0.50635  -0.21613
 Alpha virt. eigenvalues --    0.14203   0.15735   0.16973   0.21577   0.21962
 Alpha virt. eigenvalues --    0.26565   0.32031   0.36312   0.38167   0.41815
 Alpha virt. eigenvalues --    0.44366   0.46656   0.54721   0.57555   0.62732

 Mulliken charges:
               1
     1  O   -0.294694
     2  C    0.235557
     3  O   -0.013742
     4  O   -0.101385
     5  C    0.416589
     6  O   -0.242325
 Sum of Mulliken charges =  -0.00000

 Dipole moment (field-independent basis, Debye):
    X=              1.7164    Y=              0.8878    Z=              0.0000  Tot=              1.9324
 Quadrupole moment (field-independent basis, Debye-Ang):
   XX=            -35.1440   YY=            -39.6401   ZZ=            -29.2147
   XY=             -2.2296   XZ=              0.0000   YZ=              0.0000

 08\CCSD(T)=-376.0512405\RMSD=4.755e-09\PG=CS [SG(C2O4)]\\@
 Normal termination of Gaussian 16 at Fri Feb  9 20:36:56 2024.
