 Gaussian 16, Revision A.03,
 Gaussian 16:  ES64L-G16RevA.03 25-Dec-2016

 ------------------
 #p CCSD(T)/cc-pVTZ
 ------------------

 -----------
 CO2_CO2_209
 -----------
 Symbolic Z-matrix:
 Charge =  0 Multiplicity = 1

                         Standard orientation:
 ---------------------------------------------------------------------
 Center     Atomic      Atomic             Coordinates (Angstroms)
 Number     Number       Type             X           Y           Z
 ---------------------------------------------------------------------
      1          8           0       -1.744500   -2.461500    0.000000
      2          6           0       -0.581500   -2.461500    0.000000
      3          8           0        0.581500   -2.461500    0.000000
      4          8           0        0.581500    1.298500    0.000000
      5          6           0        0.581500    2.461500    0.000000
      6          8           0        0.581500    3.624500    0.000000
 ---------------------------------------------------------------------

 SCF Done:  E(RHF) =  -375.413545137     A.U. after   10 cycles
 E2 =    -0.1203621701D+01 EUMP2 =    -0.37661716683783D+03
 CCSD(T)
 CCSD(T)= -0.37665508363D+03

 The electronic state is 1-A'.
 Alpha  occ. eigenvalues --  -20.65251 -20.65211 -20.64617 -20.64567 -11.46219
 Alpha  occ. eigenvalues --  -11.45580  -1.53019  -1.52383  -1.47722  -1.47085
 Alpha  occ. eigenvalues --   -0.80150  -0.79510  -0.74345  -0.73696  -0.71492
 Alpha  occ. eigenvalues --   -0.71490  -0.70867  -0.70830  -0.54478  -0.54476
 Alpha  occ. eigenvalues --   -0.53847  -0.53831
 Alpha virt. eigenvalues --    0.16478   0.18303   0.20185   0.20258   0.20892
 Alpha virt. eigenvalues --    0.21087   0.32634   0.34767   0.39101   0.39195
 Alpha virt. eigenvalues --    0.40045   0.41643   0.54525   0.54729   0.65087

 Mulliken charges:
               1
     1  O   -0.271385
     2  C    0.537720
     3  O   -0.266808
     4  O   -0.270503
     5  C    0.539419
     6  O   -0.268443
 Sum of Mulliken charges =  -0.00000

 Dipole moment (field-independent basis, Debye):
    X=              0.0408    Y=              0.0647    Z=              0.0000  Tot=              0.0765
 Quadrupole moment (field-independent basis, Debye-Ang):
   XX=            -34.5641   YY=            -34.5078   ZZ=            -29.3886
   XY=             -0.0202   XZ=              0.0000   YZ=              0.0000

 9052\CCSD(T)=-376.6550836\RMSD=5.483e-09\PG=CS [SG(C2O4)]\\@
 Normal termination of Gaussian 16 at Sat Feb 10 23:57:54 2024.
