 Gaussian 16, Revision A.03,
 Gaussian 16:  ES64L-G16RevA.03 25-Dec-2016

 ------------------
 #p CCSD(T)/cc-pVTZ
 ------------------

 -----------
 CO2_CO2_202
 -----------
 Symbolic Z-matrix:
 Charge =  0 Multiplicity = 1

                         Standard orientation:
 ---------------------------------------------------------------------
 Center     Atomic      Atomic             Coordinates (Angstroms)
 Number     Number       Type             X           Y           Z
 ---------------------------------------------------------------------
      1          8           0        1.233548   -3.655048    0.000000
      2          6           0        0.411183   -2.832682    0.000000
      3          8           0       -0.411183   -2.010317    0.000000
      4          8           0       -0.411183    1.669683   -0.000000
      5          6           0       -0.411183    2.832682   -0.000000
      6          8           0       -0.411183    3.995682   -0.000000
 ---------------------------------------------------------------------

 SCF Done:  E(RHF) =  -375.412845260     A.U. after   11 cycles
 E2 =    -0.1203810210D+01 EUMP2 =    -0.37661665547013D+03
 CCSD(T)
 CCSD(T)= -0.37665451337D+03

 The electronic state is 1-A'.
 Alpha  occ. eigenvalues --  -20.64838 -20.64812 -20.64697 -20.64653 -11.45793
 Alpha  occ. eigenvalues --  -11.45642  -1.52619  -1.52467  -1.47317  -1.47164
 Alpha  occ. eigenvalues --   -0.79746  -0.79524  -0.73942  -0.73683  -0.71096
 Alpha  occ. eigenvalues --   -0.71096  -0.70946  -0.70936  -0.54066  -0.54065
 Alpha  occ. eigenvalues --   -0.53910  -0.53901
 Alpha virt. eigenvalues --    0.17205   0.18015   0.20647   0.20650   0.20803
 Alpha virt. eigenvalues --    0.20808   0.31863   0.36525   0.39565   0.39586
 Alpha virt. eigenvalues --    0.39823   0.40098   0.54893   0.54994   0.61529

 Mulliken charges:
               1
     1  O   -0.271951
     2  C    0.534712
     3  O   -0.262649
     4  O   -0.264085
     5  C    0.535077
     6  O   -0.271104
 Sum of Mulliken charges =  -0.00000

 Dipole moment (field-independent basis, Debye):
    X=             -0.0297    Y=              0.0072    Z=             -0.0000  Tot=              0.0305
 Quadrupole moment (field-independent basis, Debye-Ang):
   XX=            -31.9752   YY=            -37.4377   ZZ=            -29.3927
   XY=              2.6262   XZ=             -0.0000   YZ=              0.0000

 Q=-376.6055191\CCSD=-376.5973126\CCSD(T)=-376.6545134\RMSD=2.765e-09\P
 Normal termination of Gaussian 16 at Sat Feb 10 23:23:20 2024.
