 Gaussian 16, Revision A.03,
 Gaussian 16:  ES64L-G16RevA.03 25-Dec-2016

 ------------------
 #p CCSD(T)/cc-pVTZ
 ------------------

 ----------
 CO2_CO2_74
 ----------
 Symbolic Z-matrix:
 Charge =  0 Multiplicity = 1

                         Standard orientation:
 ---------------------------------------------------------------------
 Center     Atomic      Atomic             Coordinates (Angstroms)
 Number     Number       Type             X           Y           Z
 ---------------------------------------------------------------------
      1          8           0       -1.744500   -1.561500    0.000000
      2          6           0       -0.581500   -1.561500    0.000000
      3          8           0        0.581500   -1.561500    0.000000
      4          8           0        0.581500    0.398500    0.000000
      5          6           0        0.581500    1.561500    0.000000
      6          8           0        0.581500    2.724500    0.000000
 ---------------------------------------------------------------------

 SCF Done:  E(RHF) =  -375.358121509     A.U. after   13 cycles
 E2 =    -0.1214657399D+01 EUMP2 =    -0.37657277890725D+03
 CCSD(T)
 CCSD(T)= -0.37660931778D+03

 The electronic state is 1-A'.
 Alpha  occ. eigenvalues --  -20.65559 -20.64596 -20.63760 -20.62105 -11.46212
 Alpha  occ. eigenvalues --  -11.44253  -1.53941  -1.51398  -1.48286  -1.45749
 Alpha  occ. eigenvalues --   -0.84197  -0.78671  -0.76661  -0.73176  -0.72272
 Alpha  occ. eigenvalues --   -0.71211  -0.69600  -0.66074  -0.55397  -0.54828
 Alpha  occ. eigenvalues --   -0.52209  -0.50795
 Alpha virt. eigenvalues --    0.15839   0.18684   0.19839   0.20898   0.21645
 Alpha virt. eigenvalues --    0.23807   0.33881   0.36142   0.36801   0.40165
 Alpha virt. eigenvalues --    0.43258   0.47475   0.53296   0.58381   0.65930

 Mulliken charges:
               1
     1  O   -0.286799
     2  C    0.528329
     3  O   -0.254931
     4  O   -0.233073
     5  C    0.530579
     6  O   -0.284105
 Sum of Mulliken charges =  -0.00000

 Dipole moment (field-independent basis, Debye):
    X=              0.3170    Y=              0.3092    Z=              0.0000  Tot=              0.4428
 Quadrupole moment (field-independent basis, Debye-Ang):
   XX=            -34.6279   YY=            -35.3562   ZZ=            -29.3680
   XY=             -0.1399   XZ=              0.0000   YZ=              0.0000

 361\CCSD(T)=-376.6093178\RMSD=5.927e-09\PG=CS [SG(C2O4)]\\@
 Normal termination of Gaussian 16 at Sat Feb 10 01:17:23 2024.
