 Gaussian 16, Revision A.03,
 Gaussian 16:  ES64L-G16RevA.03 25-Dec-2016

 ------------------
 #p CCSD(T)/cc-pVTZ
 ------------------

 -----------
 CO2_CO2_196
 -----------
 Symbolic Z-matrix:
 Charge =  0 Multiplicity = 1

                         Standard orientation:
 ---------------------------------------------------------------------
 Center     Atomic      Atomic             Coordinates (Angstroms)
 Number     Number       Type             X           Y           Z
 ---------------------------------------------------------------------
      1          8           0        1.233548   -3.615048    0.000000
      2          6           0        0.411183   -2.792683    0.000000
      3          8           0       -0.411183   -1.970317   -0.000000
      4          8           0       -0.411183    1.629682   -0.000000
      5          6           0       -0.411183    2.792683   -0.000000
      6          8           0       -0.411183    3.955683   -0.000000
 ---------------------------------------------------------------------

 SCF Done:  E(RHF) =  -375.412808672     A.U. after   11 cycles
 E2 =    -0.1203871398D+01 EUMP2 =    -0.37661668007040D+03
 CCSD(T)
 CCSD(T)= -0.37665453104D+03

 The electronic state is 1-A'.
 Alpha  occ. eigenvalues --  -20.64830 -20.64801 -20.64684 -20.64637 -11.45783
 Alpha  occ. eigenvalues --  -11.45627  -1.52611  -1.52453  -1.47309  -1.47150
 Alpha  occ. eigenvalues --   -0.79749  -0.79497  -0.73947  -0.73651  -0.71088
 Alpha  occ. eigenvalues --   -0.71088  -0.70932  -0.70921  -0.54058  -0.54057
 Alpha  occ. eigenvalues --   -0.53895  -0.53885
 Alpha virt. eigenvalues --    0.17190   0.18045   0.20654   0.20656   0.20817
 Alpha virt. eigenvalues --    0.20820   0.31845   0.36595   0.39557   0.39577
 Alpha virt. eigenvalues --    0.39845   0.40172   0.54906   0.55006   0.61220

 Mulliken charges:
               1
     1  O   -0.272312
     2  C    0.534515
     3  O   -0.262081
     4  O   -0.263559
     5  C    0.534984
     6  O   -0.271547
 Sum of Mulliken charges =  -0.00000

 Dipole moment (field-independent basis, Debye):
    X=             -0.0315    Y=              0.0075    Z=             -0.0000  Tot=              0.0324
 Quadrupole moment (field-independent basis, Debye-Ang):
   XX=            -31.9760   YY=            -37.4538   ZZ=            -29.3930
   XY=              2.6291   XZ=             -0.0000   YZ=             -0.0000

 -376.6055326\CCSD=-376.5973213\CCSD(T)=-376.654531\RMSD=2.810e-09\PG=C
 Normal termination of Gaussian 16 at Sat Feb 10 22:52:41 2024.
