 Gaussian 16, Revision A.03,
 Gaussian 16:  ES64L-G16RevA.03 25-Dec-2016

 ------------------
 #p CCSD(T)/cc-pVTZ
 ------------------

 -----------
 CO2_CO2_181
 -----------
 Symbolic Z-matrix:
 Charge =  0 Multiplicity = 1

                         Standard orientation:
 ---------------------------------------------------------------------
 Center     Atomic      Atomic             Coordinates (Angstroms)
 Number     Number       Type             X           Y           Z
 ---------------------------------------------------------------------
      1          8           0        1.233548   -3.515048    0.000000
      2          6           0        0.411183   -2.692682    0.000000
      3          8           0       -0.411183   -1.870317    0.000000
      4          8           0       -0.411183    1.529683   -0.000000
      5          6           0       -0.411183    2.692682   -0.000000
      6          8           0       -0.411183    3.855682   -0.000000
 ---------------------------------------------------------------------

 SCF Done:  E(RHF) =  -375.412671678     A.U. after   11 cycles
 E2 =    -0.1204057815D+01 EUMP2 =    -0.37661672949324D+03
 CCSD(T)
 CCSD(T)= -0.37665456074D+03

 The electronic state is 1-A'.
 Alpha  occ. eigenvalues --  -20.64808 -20.64771 -20.64648 -20.64590 -11.45754
 Alpha  occ. eigenvalues --  -11.45583  -1.52587  -1.52413  -1.47284  -1.47108
 Alpha  occ. eigenvalues --   -0.79769  -0.79412  -0.73974  -0.73547  -0.71065
 Alpha  occ. eigenvalues --   -0.71065  -0.70891  -0.70876  -0.54038  -0.54034
 Alpha  occ. eigenvalues --   -0.53848  -0.53837
 Alpha virt. eigenvalues --    0.17171   0.18127   0.20668   0.20672   0.20855
 Alpha virt. eigenvalues --    0.20862   0.31954   0.36715   0.39529   0.39541
 Alpha virt. eigenvalues --    0.39916   0.40403   0.54900   0.55074   0.60802

 Mulliken charges:
               1
     1  O   -0.273403
     2  C    0.533840
     3  O   -0.260313
     4  O   -0.261667
     5  C    0.534559
     6  O   -0.273016
 Sum of Mulliken charges =  -0.00000

 Dipole moment (field-independent basis, Debye):
    X=             -0.0368    Y=              0.0086    Z=             -0.0000  Tot=              0.0378
 Quadrupole moment (field-independent basis, Debye-Ang):
   XX=            -31.9783   YY=            -37.5020   ZZ=            -29.3940
   XY=              2.6378   XZ=             -0.0000   YZ=              0.0000

 Q=-376.6055489\CCSD=-376.5973236\CCSD(T)=-376.6545607\RMSD=2.951e-09\P
 Normal termination of Gaussian 16 at Sat Feb 10 21:38:13 2024.
