 Gaussian 16, Revision A.03,
 Gaussian 16:  ES64L-G16RevA.03 25-Dec-2016

 ------------------
 #p CCSD(T)/cc-pVTZ
 ------------------

 -----------
 CO2_CO2_265
 -----------
 Symbolic Z-matrix:
 Charge =  0 Multiplicity = 1

                         Standard orientation:
 ---------------------------------------------------------------------
 Center     Atomic      Atomic             Coordinates (Angstroms)
 Number     Number       Type             X           Y           Z
 ---------------------------------------------------------------------
      1          8           0        1.233548   -4.075048    0.000000
      2          6           0        0.411183   -3.252683    0.000000
      3          8           0       -0.411183   -2.430318    0.000000
      4          8           0       -0.411183    2.089683    0.000000
      5          6           0       -0.411183    3.252683    0.000000
      6          8           0       -0.411183    4.415682    0.000000
 ---------------------------------------------------------------------

 SCF Done:  E(RHF) =  -375.412989552     A.U. after   10 cycles
 E2 =    -0.1203459364D+01 EUMP2 =    -0.37661644891518D+03
 CCSD(T)
 CCSD(T)= -0.37665435557D+03

 The electronic state is 1-A'.
 Alpha  occ. eigenvalues --  -20.64895 -20.64880 -20.64791 -20.64764 -11.45862
 Alpha  occ. eigenvalues --  -11.45752  -1.52681  -1.52571  -1.47380  -1.47270
 Alpha  occ. eigenvalues --   -0.79782  -0.79672  -0.73966  -0.73854  -0.71156
 Alpha  occ. eigenvalues --   -0.71156  -0.71047  -0.71044  -0.54128  -0.54128
 Alpha  occ. eigenvalues --   -0.54019  -0.54015
 Alpha virt. eigenvalues --    0.17442   0.17743   0.20597   0.20598   0.20704
 Alpha virt. eigenvalues --    0.20711   0.33191   0.35312   0.39589   0.39593
 Alpha virt. eigenvalues --    0.39700   0.39735   0.54811   0.54964   0.65053

 Mulliken charges:
               1
     1  O   -0.270078
     2  C    0.535655
     3  O   -0.265568
     4  O   -0.266396
     5  C    0.535669
     6  O   -0.269282
 Sum of Mulliken charges =  -0.00000

 Dipole moment (field-independent basis, Debye):
    X=             -0.0172    Y=              0.0062    Z=              0.0000  Tot=              0.0183
 Quadrupole moment (field-independent basis, Debye-Ang):
   XX=            -31.9701   YY=            -37.3288   ZZ=            -29.3906
   XY=              2.6064   XZ=             -0.0000   YZ=              0.0000

 =-376.6053817\CCSD=-376.5972045\CCSD(T)=-376.6543556\RMSD=7.248e-09\PG
 Normal termination of Gaussian 16 at Mon Feb 12 20:58:14 2024.
