 Gaussian 16, Revision A.03,
 Gaussian 16:  ES64L-G16RevA.03 25-Dec-2016

 ------------------
 #p CCSD(T)/cc-pVTZ
 ------------------

 ----------
 CO2_CO2_18
 ----------
 Symbolic Z-matrix:
 Charge =  0 Multiplicity = 1

                         Standard orientation:
 ---------------------------------------------------------------------
 Center     Atomic      Atomic             Coordinates (Angstroms)
 Number     Number       Type             X           Y           Z
 ---------------------------------------------------------------------
      1          8           0        0.000000    0.000000    2.946000
      2          6           0        0.000000    0.000000    1.783000
      3          8           0        0.000000    0.000000    0.620000
      4          8           0        0.000000    0.000000   -0.620000
      5          6           0        0.000000    0.000000   -1.783000
      6          8           0        0.000000    0.000000   -2.946000
 ---------------------------------------------------------------------

 SCF Done:  E(RHF) =  -374.815979623     A.U. after   13 cycles
 E2 =    -0.1275523707D+01 EUMP2 =    -0.37609150333069D+03
 CCSD(T)
 CCSD(T)= -0.37611694041D+03

 The electronic state is 1-SGG.
 Alpha  occ. eigenvalues --  -20.62464 -20.62464 -20.62343 -20.62314 -11.40682
 Alpha  occ. eigenvalues --  -11.40681  -1.65128  -1.49236  -1.47573  -1.42956
 Alpha  occ. eigenvalues --   -1.10027  -0.77008  -0.77008  -0.75221  -0.74673
 Alpha  occ. eigenvalues --   -0.66971  -0.66971  -0.58281  -0.58281  -0.47336
 Alpha  occ. eigenvalues --   -0.47336  -0.27318
 Alpha virt. eigenvalues --    0.16434   0.17611   0.17611   0.21944   0.25707
 Alpha virt. eigenvalues --    0.25707   0.30201   0.38301   0.38301   0.41088
 Alpha virt. eigenvalues --    0.43293   0.43293   0.51264   0.63348   0.67050

 Mulliken charges:
               1
     1  O   -0.305455
     2  C    0.459425
     3  O   -0.153970
     4  O   -0.153970
     5  C    0.459425
     6  O   -0.305455
 Sum of Mulliken charges =   0.00000

 Dipole moment (field-independent basis, Debye):
    X=             -0.0000    Y=             -0.0000    Z=             -0.0000  Tot=              0.0000
 Quadrupole moment (field-independent basis, Debye-Ang):
   XX=            -29.2594   YY=            -29.2594   ZZ=            -45.0794
   XY=             -0.0000   XZ=              0.0000   YZ=              0.0000

 7229\CCSD(T)=-376.1169404\RMSD=1.736e-09\PG=D*H [C*(O1C1O1.O1C1O1)]\\@
 Normal termination of Gaussian 16 at Fri Feb  9 20:24:09 2024.
