 Gaussian 16, Revision A.03,
 Gaussian 16:  ES64L-G16RevA.03 25-Dec-2016

 ------------------
 #p CCSD(T)/cc-pVTZ
 ------------------

 -----------
 CO2_CO2_258
 -----------
 Symbolic Z-matrix:
 Charge =  0 Multiplicity = 1

                         Standard orientation:
 ---------------------------------------------------------------------
 Center     Atomic      Atomic             Coordinates (Angstroms)
 Number     Number       Type             X           Y           Z
 ---------------------------------------------------------------------
      1          8           0        0.000000    0.000000    4.546000
      2          6           0        0.000000    0.000000    3.383000
      3          8           0        0.000000    0.000000    2.220000
      4          8           0        0.000000    0.000000   -2.220000
      5          6           0        0.000000    0.000000   -3.383000
      6          8           0        0.000000    0.000000   -4.546000
 ---------------------------------------------------------------------

 SCF Done:  E(RHF) =  -375.412893988     A.U. after   10 cycles
 E2 =    -0.1203507315D+01 EUMP2 =    -0.37661640130318D+03
 CCSD(T)
 CCSD(T)= -0.37665429707D+03

 The electronic state is 1-SGG.
 Alpha  occ. eigenvalues --  -20.64796 -20.64796 -20.64768 -20.64768 -11.45753
 Alpha  occ. eigenvalues --  -11.45753  -1.52576  -1.52576  -1.47275  -1.47274
 Alpha  occ. eigenvalues --   -0.79687  -0.79654  -0.73874  -0.73829  -0.71053
 Alpha  occ. eigenvalues --   -0.71053  -0.71051  -0.71051  -0.54024  -0.54024
 Alpha  occ. eigenvalues --   -0.54018  -0.54018
 Alpha virt. eigenvalues --    0.17491   0.17774   0.20694   0.20694   0.20705
 Alpha virt. eigenvalues --    0.20705   0.33289   0.35309   0.39681   0.39681
 Alpha virt. eigenvalues --    0.39695   0.39695   0.54894   0.54969   0.64097

 Mulliken charges:
               1
     1  O   -0.270090
     2  C    0.535042
     3  O   -0.264951
     4  O   -0.264951
     5  C    0.535042
     6  O   -0.270090
 Sum of Mulliken charges =  -0.00000

 Dipole moment (field-independent basis, Debye):
    X=             -0.0000    Y=              0.0000    Z=             -0.0000  Tot=              0.0000
 Quadrupole moment (field-independent basis, Debye-Ang):
   XX=            -29.3915   YY=            -29.3915   ZZ=            -40.0169
   XY=              0.0000   XZ=              0.0000   YZ=             -0.0000

 1399\CCSD(T)=-376.6542971\RMSD=4.695e-09\PG=D*H [C*(O1C1O1.O1C1O1)]\\@
 Normal termination of Gaussian 16 at Mon Feb 12 20:32:02 2024.
