 Gaussian 16, Revision A.03,
 Gaussian 16:  ES64L-G16RevA.03 25-Dec-2016

 ------------------
 #p CCSD(T)/cc-pVTZ
 ------------------

 -----------
 CO2_CO2_217
 -----------
 Symbolic Z-matrix:
 Charge =  0 Multiplicity = 1

                         Standard orientation:
 ---------------------------------------------------------------------
 Center     Atomic      Atomic             Coordinates (Angstroms)
 Number     Number       Type             X           Y           Z
 ---------------------------------------------------------------------
      1          8           0        1.233548   -3.755048   -0.000000
      2          6           0        0.411183   -2.932682   -0.000000
      3          8           0       -0.411183   -2.110317   -0.000000
      4          8           0       -0.411183    1.769682    0.000000
      5          6           0       -0.411183    2.932682    0.000000
      6          8           0       -0.411183    4.095683    0.000000
 ---------------------------------------------------------------------

 SCF Done:  E(RHF) =  -375.412907366     A.U. after   11 cycles
 E2 =    -0.1203684741D+01 EUMP2 =    -0.37661659210711D+03
 CCSD(T)
 CCSD(T)= -0.37665446546D+03

 The electronic state is 1-A'.
 Alpha  occ. eigenvalues --  -20.64856 -20.64833 -20.64725 -20.64687 -11.45814
 Alpha  occ. eigenvalues --  -11.45675  -1.52638  -1.52498  -1.47336  -1.47196
 Alpha  occ. eigenvalues --   -0.79748  -0.79576  -0.73938  -0.73746  -0.71115
 Alpha  occ. eigenvalues --   -0.71114  -0.70976  -0.70969  -0.54084  -0.54084
 Alpha  occ. eigenvalues --   -0.53944  -0.53936
 Alpha virt. eigenvalues --    0.17255   0.17942   0.20633   0.20636   0.20772
 Alpha virt. eigenvalues --    0.20780   0.32047   0.36299   0.39579   0.39598
 Alpha virt. eigenvalues --    0.39778   0.39952   0.54850   0.54990   0.62480

 Mulliken charges:
               1
     1  O   -0.271229
     2  C    0.535071
     3  O   -0.263763
     4  O   -0.265020
     5  C    0.535233
     6  O   -0.270292
 Sum of Mulliken charges =  -0.00000

 Dipole moment (field-independent basis, Debye):
    X=             -0.0258    Y=              0.0068    Z=              0.0000  Tot=              0.0267
 Quadrupole moment (field-independent basis, Debye-Ang):
   XX=            -31.9737   YY=            -37.4038   ZZ=            -29.3921
   XY=              2.6200   XZ=             -0.0000   YZ=             -0.0000

 Q=-376.6054794\CCSD=-376.5972829\CCSD(T)=-376.6544655\RMSD=2.675e-09\P
 Normal termination of Gaussian 16 at Sun Feb 11 00:37:10 2024.
