 Gaussian 16, Revision A.03,
 Gaussian 16:  ES64L-G16RevA.03 25-Dec-2016

 ------------------
 #p CCSD(T)/cc-pVTZ
 ------------------

 ----------
 CO2_CO2_45
 ----------
 Symbolic Z-matrix:
 Charge =  0 Multiplicity = 1

                         Standard orientation:
 ---------------------------------------------------------------------
 Center     Atomic      Atomic             Coordinates (Angstroms)
 Number     Number       Type             X           Y           Z
 ---------------------------------------------------------------------
      1          8           0        0.000000    0.000000    3.126000
      2          6           0        0.000000    0.000000    1.963000
      3          8           0        0.000000    0.000000    0.800000
      4          8           0        0.000000    0.000000   -0.800000
      5          6           0        0.000000    0.000000   -1.963000
      6          8           0        0.000000    0.000000   -3.126000
 ---------------------------------------------------------------------

 SCF Done:  E(RHF) =  -375.245685001     A.U. after   11 cycles
 E2 =    -0.1224551099D+01 EUMP2 =    -0.37647023609956D+03
 CCSD(T)
 CCSD(T)= -0.37650414436D+03

 The electronic state is 1-SGG.
 Alpha  occ. eigenvalues --  -20.63534 -20.63534 -20.61304 -20.61303 -11.43319
 Alpha  occ. eigenvalues --  -11.43319  -1.53466  -1.50572  -1.47590  -1.44561
 Alpha  occ. eigenvalues --   -0.94331  -0.76227  -0.75300  -0.71428  -0.71428
 Alpha  occ. eigenvalues --   -0.68702  -0.68702  -0.55511  -0.55511  -0.53818
 Alpha  occ. eigenvalues --   -0.50218  -0.50218
 Alpha virt. eigenvalues --    0.17157   0.19576   0.19576   0.19838   0.23874
 Alpha virt. eigenvalues --    0.23874   0.31950   0.38460   0.38460   0.40293
 Alpha virt. eigenvalues --    0.41921   0.41921   0.53052   0.58730   0.68308

 Mulliken charges:
               1
     1  O   -0.318056
     2  C    0.516850
     3  O   -0.198795
     4  O   -0.198795
     5  C    0.516850
     6  O   -0.318056
 Sum of Mulliken charges =   0.00000

 Dipole moment (field-independent basis, Debye):
    X=             -0.0000    Y=             -0.0000    Z=             -0.0000  Tot=              0.0000
 Quadrupole moment (field-independent basis, Debye-Ang):
   XX=            -29.3372   YY=            -29.3372   ZZ=            -42.4719
   XY=              0.0000   XZ=              0.0000   YZ=              0.0000

 92\CCSD(T)=-376.5041444\RMSD=2.311e-09\PG=D*H [C*(O1C1O1.O1C1O1)]\\@
 Normal termination of Gaussian 16 at Fri Feb  9 22:45:58 2024.
