 Gaussian 16, Revision A.03,
 Gaussian 16:  ES64L-G16RevA.03 25-Dec-2016

 ------------------
 #p CCSD(T)/cc-pVTZ
 ------------------

 -----------
 CO2_CO2_207
 -----------
 Symbolic Z-matrix:
 Charge =  0 Multiplicity = 1

                         Standard orientation:
 ---------------------------------------------------------------------
 Center     Atomic      Atomic             Coordinates (Angstroms)
 Number     Number       Type             X           Y           Z
 ---------------------------------------------------------------------
      1          8           0        0.000000    0.000000    4.206000
      2          6           0        0.000000    0.000000    3.043000
      3          8           0        0.000000    0.000000    1.880000
      4          8           0        0.000000    0.000000   -1.880000
      5          6           0        0.000000    0.000000   -3.043000
      6          8           0        0.000000    0.000000   -4.206000
 ---------------------------------------------------------------------

 SCF Done:  E(RHF) =  -375.412738459     A.U. after   10 cycles
 E2 =    -0.1203788112D+01 EUMP2 =    -0.37661652657091D+03
 CCSD(T)
 CCSD(T)= -0.37665438141D+03

 The electronic state is 1-SGG.
 Alpha  occ. eigenvalues --  -20.64723 -20.64723 -20.64682 -20.64682 -11.45667
 Alpha  occ. eigenvalues --  -11.45667  -1.52499  -1.52495  -1.47197  -1.47191
 Alpha  occ. eigenvalues --   -0.79665  -0.79496  -0.73864  -0.73646  -0.70981
 Alpha  occ. eigenvalues --   -0.70981  -0.70967  -0.70967  -0.53956  -0.53956
 Alpha  occ. eigenvalues --   -0.53921  -0.53921
 Alpha virt. eigenvalues --    0.17383   0.17952   0.20735   0.20735   0.20810
 Alpha virt. eigenvalues --    0.20810   0.32202   0.36355   0.39707   0.39707
 Alpha virt. eigenvalues --    0.39784   0.39784   0.54927   0.55077   0.59887

 Mulliken charges:
               1
     1  O   -0.271806
     2  C    0.534451
     3  O   -0.262644
     4  O   -0.262644
     5  C    0.534451
     6  O   -0.271806
 Sum of Mulliken charges =  -0.00000

 Dipole moment (field-independent basis, Debye):
    X=             -0.0000    Y=             -0.0000    Z=             -0.0000  Tot=              0.0000
 Quadrupole moment (field-independent basis, Debye-Ang):
   XX=            -29.3935   YY=            -29.3935   ZZ=            -40.1349
   XY=              0.0000   XZ=              0.0000   YZ=             -0.0000

 71852\CCSD(T)=-376.6543814\RMSD=4.675e-09\PG=D*H [C*(O1C1O1.O1C1O1)]\\
 Normal termination of Gaussian 16 at Sat Feb 10 23:45:55 2024.
