 Gaussian 16, Revision A.03,
 Gaussian 16:  ES64L-G16RevA.03 25-Dec-2016

 ------------------
 #p CCSD(T)/cc-pVTZ
 ------------------

 -----------
 CO2_CO2_262
 -----------
 Symbolic Z-matrix:
 Charge =  0 Multiplicity = 1

                         Standard orientation:
 ---------------------------------------------------------------------
 Center     Atomic      Atomic             Coordinates (Angstroms)
 Number     Number       Type             X           Y           Z
 ---------------------------------------------------------------------
      1          8           0        1.233548   -4.055048   -0.000000
      2          6           0        0.411183   -3.232683   -0.000000
      3          8           0       -0.411183   -2.410317   -0.000000
      4          8           0       -0.411183    2.069682    0.000000
      5          6           0       -0.411183    3.232683    0.000000
      6          8           0       -0.411183    4.395683    0.000000
 ---------------------------------------------------------------------

 SCF Done:  E(RHF) =  -375.412985912     A.U. after   10 cycles
 E2 =    -0.1203468170D+01 EUMP2 =    -0.37661645408212D+03
 CCSD(T)
 CCSD(T)= -0.37665435932D+03

 The electronic state is 1-A'.
 Alpha  occ. eigenvalues --  -20.64893 -20.64878 -20.64788 -20.64760 -11.45860
 Alpha  occ. eigenvalues --  -11.45748  -1.52679  -1.52567  -1.47378  -1.47266
 Alpha  occ. eigenvalues --   -0.79780  -0.79668  -0.73964  -0.73850  -0.71154
 Alpha  occ. eigenvalues --   -0.71154  -0.71044  -0.71040  -0.54126  -0.54126
 Alpha  occ. eigenvalues --   -0.54015  -0.54011
 Alpha virt. eigenvalues --    0.17433   0.17753   0.20599   0.20600   0.20708
 Alpha virt. eigenvalues --    0.20715   0.33123   0.35373   0.39589   0.39594
 Alpha virt. eigenvalues --    0.39703   0.39741   0.54811   0.54967   0.64954

 Mulliken charges:
               1
     1  O   -0.270121
     2  C    0.535627
     3  O   -0.265494
     4  O   -0.266342
     5  C    0.535641
     6  O   -0.269311
 Sum of Mulliken charges =  -0.00000

 Dipole moment (field-independent basis, Debye):
    X=             -0.0176    Y=              0.0063    Z=             -0.0000  Tot=              0.0187
 Quadrupole moment (field-independent basis, Debye-Ang):
   XX=            -31.9703   YY=            -37.3326   ZZ=            -29.3907
   XY=              2.6071   XZ=             -0.0000   YZ=             -0.0000

 Q=-376.605385\CCSD=-376.5972071\CCSD(T)=-376.6543593\RMSD=7.465e-09\PG
 Normal termination of Gaussian 16 at Mon Feb 12 20:47:22 2024.
