 Gaussian 16, Revision A.03,
 Gaussian 16:  ES64L-G16RevA.03 25-Dec-2016

 ------------------
 #p CCSD(T)/cc-pVTZ
 ------------------

 ----------
 CO2_CO2_77
 ----------
 Symbolic Z-matrix:
 Charge =  0 Multiplicity = 1

                         Standard orientation:
 ---------------------------------------------------------------------
 Center     Atomic      Atomic             Coordinates (Angstroms)
 Number     Number       Type             X           Y           Z
 ---------------------------------------------------------------------
      1          8           0       -1.744500   -1.581500    0.000000
      2          6           0       -0.581500   -1.581500    0.000000
      3          8           0        0.581500   -1.581500    0.000000
      4          8           0        0.581500    0.418500    0.000000
      5          6           0        0.581500    1.581500    0.000000
      6          8           0        0.581500    2.744500    0.000000
 ---------------------------------------------------------------------

 SCF Done:  E(RHF) =  -375.365827008     A.U. after   13 cycles
 E2 =    -0.1213602059D+01 EUMP2 =    -0.37657942906745D+03
 CCSD(T)
 CCSD(T)= -0.37661613348D+03

 The electronic state is 1-A'.
 Alpha  occ. eigenvalues --  -20.65559 -20.64700 -20.63793 -20.62266 -11.46256
 Alpha  occ. eigenvalues --  -11.44320  -1.53837  -1.51421  -1.48261  -1.45829
 Alpha  occ. eigenvalues --   -0.83765  -0.78669  -0.76580  -0.73118  -0.72207
 Alpha  occ. eigenvalues --   -0.71306  -0.69666  -0.66411  -0.55322  -0.54838
 Alpha  occ. eigenvalues --   -0.52322  -0.51144
 Alpha virt. eigenvalues --    0.15858   0.18764   0.19851   0.20784   0.21624
 Alpha virt. eigenvalues --    0.23718   0.33931   0.36049   0.36843   0.40097
 Alpha virt. eigenvalues --    0.43171   0.47511   0.53217   0.58343   0.66012

 Mulliken charges:
               1
     1  O   -0.286315
     2  C    0.530172
     3  O   -0.256656
     4  O   -0.233972
     5  C    0.530573
     6  O   -0.283802
 Sum of Mulliken charges =  -0.00000

 Dipole moment (field-independent basis, Debye):
    X=              0.3014    Y=              0.2998    Z=              0.0000  Tot=              0.4251
 Quadrupole moment (field-independent basis, Debye-Ang):
   XX=            -34.6301   YY=            -35.2903   ZZ=            -29.3732
   XY=             -0.1302   XZ=              0.0000   YZ=              0.0000

 CCSD(T)=-376.6161335\RMSD=5.428e-09\PG=CS [SG(C2O4)]\\@
 Normal termination of Gaussian 16 at Sat Feb 10 01:31:55 2024.
