 Gaussian 16, Revision A.03,
 Gaussian 16:  ES64L-G16RevA.03 25-Dec-2016

 ------------------
 #p CCSD(T)/cc-pVTZ
 ------------------

 -----------
 CO2_CO2_218
 -----------
 Symbolic Z-matrix:
 Charge =  0 Multiplicity = 1

                         Standard orientation:
 ---------------------------------------------------------------------
 Center     Atomic      Atomic             Coordinates (Angstroms)
 Number     Number       Type             X           Y           Z
 ---------------------------------------------------------------------
      1          8           0       -1.744500   -2.521500    0.000000
      2          6           0       -0.581500   -2.521500    0.000000
      3          8           0        0.581500   -2.521500    0.000000
      4          8           0        0.581500    1.358500    0.000000
      5          6           0        0.581500    2.521500    0.000000
      6          8           0        0.581500    3.684500    0.000000
 ---------------------------------------------------------------------

 SCF Done:  E(RHF) =  -375.413518120     A.U. after   10 cycles
 E2 =    -0.1203554454D+01 EUMP2 =    -0.37661707257352D+03
 CCSD(T)
 CCSD(T)= -0.37665499362D+03

 The electronic state is 1-A'.
 Alpha  occ. eigenvalues --  -20.65233 -20.65195 -20.64640 -20.64597 -11.46202
 Alpha  occ. eigenvalues --  -11.45605  -1.53003  -1.52409  -1.47706  -1.47111
 Alpha  occ. eigenvalues --   -0.80131  -0.79534  -0.74323  -0.73721  -0.71476
 Alpha  occ. eigenvalues --   -0.71474  -0.70892  -0.70862  -0.54461  -0.54459
 Alpha  occ. eigenvalues --   -0.53872  -0.53858
 Alpha virt. eigenvalues --    0.16527   0.18236   0.20217   0.20277   0.20866
 Alpha virt. eigenvalues --    0.21012   0.32562   0.34801   0.39170   0.39224
 Alpha virt. eigenvalues --    0.39978   0.41365   0.54512   0.54706   0.65315

 Mulliken charges:
               1
     1  O   -0.271226
     2  C    0.537902
     3  O   -0.267058
     4  O   -0.270838
     5  C    0.539257
     6  O   -0.268036
 Sum of Mulliken charges =  -0.00000

 Dipole moment (field-independent basis, Debye):
    X=              0.0366    Y=              0.0593    Z=              0.0000  Tot=              0.0696
 Quadrupole moment (field-independent basis, Debye-Ang):
   XX=            -34.5622   YY=            -34.5075   ZZ=            -29.3886
   XY=             -0.0192   XZ=              0.0000   YZ=              0.0000

 254\CCSD(T)=-376.6549936\RMSD=5.212e-09\PG=CS [SG(C2O4)]\\@
 Normal termination of Gaussian 16 at Sun Feb 11 00:42:54 2024.
