 Gaussian 16, Revision A.03,
 Gaussian 16:  ES64L-G16RevA.03 25-Dec-2016

 ------------------
 #p CCSD(T)/cc-pVTZ
 ------------------

 -----------
 CO2_CO2_106
 -----------
 Symbolic Z-matrix:
 Charge =  0 Multiplicity = 1

                         Standard orientation:
 ---------------------------------------------------------------------
 Center     Atomic      Atomic             Coordinates (Angstroms)
 Number     Number       Type             X           Y           Z
 ---------------------------------------------------------------------
      1          8           0        1.233548   -3.015048    0.000000
      2          6           0        0.411183   -2.192683    0.000000
      3          8           0       -0.411183   -1.370317    0.000000
      4          8           0       -0.411183    1.029682   -0.000000
      5          6           0       -0.411183    2.192682   -0.000000
      6          8           0       -0.411183    3.355683   -0.000000
 ---------------------------------------------------------------------

 SCF Done:  E(RHF) =  -375.404404299     A.U. after   11 cycles
 E2 =    -0.1207002940D+01 EUMP2 =    -0.37661140723901D+03
 CCSD(T)
 CCSD(T)= -0.37664884169D+03

 The electronic state is 1-A'.
 Alpha  occ. eigenvalues --  -20.64599 -20.64294 -20.64263 -20.63953 -11.45417
 Alpha  occ. eigenvalues --  -11.45093  -1.52416  -1.51985  -1.47139  -1.46629
 Alpha  occ. eigenvalues --   -0.81158  -0.78287  -0.74809  -0.71940  -0.70930
 Alpha  occ. eigenvalues --   -0.70813  -0.70422  -0.69926  -0.54077  -0.53939
 Alpha  occ. eigenvalues --   -0.53171  -0.53116
 Alpha virt. eigenvalues --    0.16984   0.18841   0.20568   0.20831   0.21213
 Alpha virt. eigenvalues --    0.21456   0.33452   0.36654   0.38848   0.39217
 Alpha virt. eigenvalues --    0.40760   0.42877   0.53980   0.55655   0.64510

 Mulliken charges:
               1
     1  O   -0.281494
     2  C    0.528128
     3  O   -0.247447
     4  O   -0.233147
     5  C    0.522150
     6  O   -0.288189
 Sum of Mulliken charges =  -0.00000

 Dipole moment (field-independent basis, Debye):
    X=             -0.0939    Y=              0.0419    Z=             -0.0000  Tot=              0.1029
 Quadrupole moment (field-independent basis, Debye-Ang):
   XX=            -32.0219   YY=            -38.0643   ZZ=            -29.4082
   XY=              2.7365   XZ=             -0.0000   YZ=              0.0000

 Q=-376.5996489\CCSD=-376.5912074\CCSD(T)=-376.6488417\RMSD=4.177e-09\P
 Normal termination of Gaussian 16 at Sat Feb 10 15:32:54 2024.
