 Gaussian 16, Revision A.03,
 Gaussian 16:  ES64L-G16RevA.03 25-Dec-2016

 ------------------
 #p CCSD(T)/cc-pVTZ
 ------------------

 -----------
 CO2_CO2_122
 -----------
 Symbolic Z-matrix:
 Charge =  0 Multiplicity = 1

                         Standard orientation:
 ---------------------------------------------------------------------
 Center     Atomic      Atomic             Coordinates (Angstroms)
 Number     Number       Type             X           Y           Z
 ---------------------------------------------------------------------
      1          8           0       -1.744500   -1.881500    0.000000
      2          6           0       -0.581500   -1.881500    0.000000
      3          8           0        0.581500   -1.881500    0.000000
      4          8           0        0.581500    0.718500    0.000000
      5          6           0        0.581500    1.881500    0.000000
      6          8           0        0.581500    3.044500    0.000000
 ---------------------------------------------------------------------

 SCF Done:  E(RHF) =  -375.409165286     A.U. after   13 cycles
 E2 =    -0.1206080550D+01 EUMP2 =    -0.37661524583616D+03
 CCSD(T)
 CCSD(T)= -0.37665298065D+03

 The electronic state is 1-A'.
 Alpha  occ. eigenvalues --  -20.65437 -20.65364 -20.64213 -20.63811 -11.46419
 Alpha  occ. eigenvalues --  -11.45056  -1.53284  -1.51887  -1.47979  -1.46570
 Alpha  occ. eigenvalues --   -0.80796  -0.79038  -0.75170  -0.73170  -0.71757
 Alpha  occ. eigenvalues --   -0.71725  -0.70364  -0.69655  -0.54770  -0.54737
 Alpha  occ. eigenvalues --   -0.53309  -0.53208
 Alpha virt. eigenvalues --    0.16212   0.19486   0.19612   0.19996   0.21302
 Alpha virt. eigenvalues --    0.22464   0.34339   0.35157   0.37684   0.39365
 Alpha virt. eigenvalues --    0.41695   0.46509   0.53512   0.57442   0.66601

 Mulliken charges:
               1
     1  O   -0.277485
     2  C    0.536558
     3  O   -0.263670
     4  O   -0.254445
     5  C    0.537030
     6  O   -0.277987
 Sum of Mulliken charges =  -0.00000

 Dipole moment (field-independent basis, Debye):
    X=              0.1457    Y=              0.1742    Z=              0.0000  Tot=              0.2271
 Quadrupole moment (field-independent basis, Debye-Ang):
   XX=            -34.6091   YY=            -34.7138   ZZ=            -29.3941
   XY=             -0.0581   XZ=              0.0000   YZ=              0.0000

 23\CCSD(T)=-376.6529807\RMSD=1.404e-09\PG=CS [SG(C2O4)]\\@
 Normal termination of Gaussian 16 at Sat Feb 10 16:54:45 2024.
