 Gaussian 16, Revision A.03,
 Gaussian 16:  ES64L-G16RevA.03 25-Dec-2016

 ------------------
 #p CCSD(T)/cc-pVTZ
 ------------------

 -----------
 CO2_CO2_277
 -----------
 Symbolic Z-matrix:
 Charge =  0 Multiplicity = 1

                         Standard orientation:
 ---------------------------------------------------------------------
 Center     Atomic      Atomic             Coordinates (Angstroms)
 Number     Number       Type             X           Y           Z
 ---------------------------------------------------------------------
      1          8           0        1.233548   -4.155048    0.000000
      2          6           0        0.411183   -3.332683    0.000000
      3          8           0       -0.411183   -2.510317    0.000000
      4          8           0       -0.411183    2.169683   -0.000000
      5          6           0       -0.411183    3.332683   -0.000000
      6          8           0       -0.411183    4.495682   -0.000000
 ---------------------------------------------------------------------

 SCF Done:  E(RHF) =  -375.413003053     A.U. after   10 cycles
 E2 =    -0.1203429648D+01 EUMP2 =    -0.37661643270170D+03
 CCSD(T)
 CCSD(T)= -0.37665434426D+03

 The electronic state is 1-A'.
 Alpha  occ. eigenvalues --  -20.64903 -20.64889 -20.64804 -20.64780 -11.45870
 Alpha  occ. eigenvalues --  -11.45767  -1.52689  -1.52585  -1.47388  -1.47284
 Alpha  occ. eigenvalues --   -0.79791  -0.79688  -0.73975  -0.73871  -0.71164
 Alpha  occ. eigenvalues --   -0.71164  -0.71061  -0.71058  -0.54137  -0.54137
 Alpha  occ. eigenvalues --   -0.54034  -0.54030
 Alpha virt. eigenvalues --    0.17472   0.17705   0.20590   0.20591   0.20691
 Alpha virt. eigenvalues --    0.20697   0.33441   0.35082   0.39586   0.39588
 Alpha virt. eigenvalues --    0.39687   0.39712   0.54812   0.54949   0.65375

 Mulliken charges:
               1
     1  O   -0.269921
     2  C    0.535762
     3  O   -0.265837
     4  O   -0.266601
     5  C    0.535779
     6  O   -0.269182
 Sum of Mulliken charges =  -0.00000

 Dipole moment (field-independent basis, Debye):
    X=             -0.0156    Y=              0.0059    Z=              0.0000  Tot=              0.0167
 Quadrupole moment (field-independent basis, Debye-Ang):
   XX=            -31.9694   YY=            -37.3140   ZZ=            -29.3904
   XY=              2.6038   XZ=              0.0000   YZ=              0.0000

 76.6053716\CCSD=-376.5971973\CCSD(T)=-376.6543443\RMSD=6.478e-09\PG=CS
 Normal termination of Gaussian 16 at Mon Feb 12 21:42:19 2024.
