 Gaussian 16, Revision A.03,
 Gaussian 16:  ES64L-G16RevA.03 25-Dec-2016

 ------------------
 #p CCSD(T)/cc-pVTZ
 ------------------

 -----------
 CO2_CO2_252
 -----------
 Symbolic Z-matrix:
 Charge =  0 Multiplicity = 1

                         Standard orientation:
 ---------------------------------------------------------------------
 Center     Atomic      Atomic             Coordinates (Angstroms)
 Number     Number       Type             X           Y           Z
 ---------------------------------------------------------------------
      1          8           0        0.000000    0.000000    4.506000
      2          6           0        0.000000    0.000000    3.343000
      3          8           0        0.000000    0.000000    2.180000
      4          8           0        0.000000    0.000000   -2.180000
      5          6           0        0.000000    0.000000   -3.343000
      6          8           0        0.000000    0.000000   -4.506000
 ---------------------------------------------------------------------

 SCF Done:  E(RHF) =  -375.412881961     A.U. after   10 cycles
 E2 =    -0.1203528216D+01 EUMP2 =    -0.37661641017719D+03
 CCSD(T)
 CCSD(T)= -0.37665430247D+03

 The electronic state is 1-SGG.
 Alpha  occ. eigenvalues --  -20.64789 -20.64789 -20.64760 -20.64760 -11.45745
 Alpha  occ. eigenvalues --  -11.45745  -1.52569  -1.52568  -1.47267  -1.47266
 Alpha  occ. eigenvalues --   -0.79682  -0.79641  -0.73870  -0.73816  -0.71046
 Alpha  occ. eigenvalues --   -0.71046  -0.71043  -0.71043  -0.54017  -0.54017
 Alpha  occ. eigenvalues --   -0.54009  -0.54009
 Alpha virt. eigenvalues --    0.17475   0.17795   0.20700   0.20700   0.20714
 Alpha virt. eigenvalues --    0.20714   0.33154   0.35430   0.39685   0.39685
 Alpha virt. eigenvalues --    0.39703   0.39703   0.54901   0.54973   0.63717

 Mulliken charges:
               1
     1  O   -0.270187
     2  C    0.534964
     3  O   -0.264777
     4  O   -0.264777
     5  C    0.534964
     6  O   -0.270187
 Sum of Mulliken charges =   0.00000

 Dipole moment (field-independent basis, Debye):
    X=             -0.0000    Y=              0.0000    Z=             -0.0000  Tot=              0.0000
 Quadrupole moment (field-independent basis, Debye-Ang):
   XX=            -29.3917   YY=            -29.3917   ZZ=            -40.0282
   XY=              0.0000   XZ=              0.0000   YZ=             -0.0000

 1424\CCSD(T)=-376.6543025\RMSD=4.696e-09\PG=D*H [C*(O1C1O1.O1C1O1)]\\@
 Normal termination of Gaussian 16 at Mon Feb 12 20:10:32 2024.
