 Gaussian 16, Revision A.03,
 Gaussian 16:  ES64L-G16RevA.03 25-Dec-2016

 ------------------
 #p CCSD(T)/cc-pVTZ
 ------------------

 -----------
 CO2_CO2_119
 -----------
 Symbolic Z-matrix:
 Charge =  0 Multiplicity = 1

                         Standard orientation:
 ---------------------------------------------------------------------
 Center     Atomic      Atomic             Coordinates (Angstroms)
 Number     Number       Type             X           Y           Z
 ---------------------------------------------------------------------
      1          8           0       -1.744500   -1.861500    0.000000
      2          6           0       -0.581500   -1.861500    0.000000
      3          8           0        0.581500   -1.861500    0.000000
      4          8           0        0.581500    0.698500    0.000000
      5          6           0        0.581500    1.861500    0.000000
      6          8           0        0.581500    3.024500    0.000000
 ---------------------------------------------------------------------

 SCF Done:  E(RHF) =  -375.408349520     A.U. after   13 cycles
 E2 =    -0.1206310506D+01 EUMP2 =    -0.37661466002602D+03
 CCSD(T)
 CCSD(T)= -0.37665237102D+03

 The electronic state is 1-A'.
 Alpha  occ. eigenvalues --  -20.65448 -20.65354 -20.64190 -20.63750 -11.46423
 Alpha  occ. eigenvalues --  -11.45022  -1.53300  -1.51858  -1.47993  -1.46537
 Alpha  occ. eigenvalues --   -0.80870  -0.79011  -0.75247  -0.73141  -0.71773
 Alpha  occ. eigenvalues --   -0.71731  -0.70332  -0.69537  -0.54789  -0.54749
 Alpha  occ. eigenvalues --   -0.53271  -0.53155
 Alpha virt. eigenvalues --    0.16188   0.19507   0.19620   0.19985   0.21322
 Alpha virt. eigenvalues --    0.22537   0.34322   0.35215   0.37621   0.39399
 Alpha virt. eigenvalues --    0.41790   0.46675   0.53431   0.57537   0.66629

 Mulliken charges:
               1
     1  O   -0.278013
     2  C    0.536762
     3  O   -0.263696
     4  O   -0.253245
     5  C    0.536678
     6  O   -0.278486
 Sum of Mulliken charges =  -0.00000

 Dipole moment (field-independent basis, Debye):
    X=              0.1527    Y=              0.1811    Z=              0.0000  Tot=              0.2369
 Quadrupole moment (field-independent basis, Debye-Ang):
   XX=            -34.6118   YY=            -34.7353   ZZ=            -29.3943
   XY=             -0.0606   XZ=              0.0000   YZ=              0.0000

 \CCSD(T)=-376.652371\RMSD=1.398e-09\PG=CS [SG(C2O4)]\\@
 Normal termination of Gaussian 16 at Sat Feb 10 16:40:04 2024.
