 Gaussian 16, Revision A.03,
 Gaussian 16:  ES64L-G16RevA.03 25-Dec-2016

 ------------------
 #p CCSD(T)/cc-pVTZ
 ------------------

 ---------
 CO2_CO2_2
 ---------
 Symbolic Z-matrix:
 Charge =  0 Multiplicity = 1

                         Standard orientation:
 ---------------------------------------------------------------------
 Center     Atomic      Atomic             Coordinates (Angstroms)
 Number     Number       Type             X           Y           Z
 ---------------------------------------------------------------------
      1          8           0       -1.744500   -1.081500    0.000000
      2          6           0       -0.581500   -1.081500    0.000000
      3          8           0        0.581500   -1.081500    0.000000
      4          8           0        0.581500   -0.081500    0.000000
      5          6           0        0.581500    1.081500    0.000000
      6          8           0        0.581500    2.244500    0.000000
 ---------------------------------------------------------------------

 SCF Done:  E(RHF) =  -374.361689308     A.U. after   21 cycles
 E2 =    -0.1257865499D+01 EUMP2 =    -0.37561955480660D+03
 CCSD(T)
 CCSD(T)= -0.37565967949D+03

 The electronic state is 1-A'.
 Alpha  occ. eigenvalues --  -20.86444 -20.82121 -20.60460 -20.59487 -11.43208
 Alpha  occ. eigenvalues --  -11.35434  -2.12550  -1.51685  -1.44745  -1.43900
 Alpha  occ. eigenvalues --   -1.23345  -1.07329  -1.06647  -0.72834  -0.72002
 Alpha  occ. eigenvalues --   -0.71242  -0.67216  -0.62035  -0.57552  -0.54659
 Alpha  occ. eigenvalues --   -0.49776  -0.15467
 Alpha virt. eigenvalues --    0.13542   0.14871   0.16475   0.18561   0.21968
 Alpha virt. eigenvalues --    0.30109   0.36692   0.38506   0.40499   0.42805
 Alpha virt. eigenvalues --    0.44073   0.46547   0.51534   0.57676   0.61493

 Mulliken charges:
               1
     1  O   -0.317947
     2  C    0.076088
     3  O    0.048784
     4  O    0.431812
     5  C    0.093991
     6  O   -0.332728
 Sum of Mulliken charges =  -0.00000

 Dipole moment (field-independent basis, Debye):
    X=              2.2646    Y=             -2.0491    Z=              0.0000  Tot=              3.0540
 Quadrupole moment (field-independent basis, Debye-Ang):
   XX=            -38.1506   YY=            -39.7091   ZZ=            -28.7560
   XY=             -4.7639   XZ=              0.0000   YZ=              0.0000

 \CCSD(T)=-375.6596795\RMSD=1.962e-09\PG=CS [SG(C2O4)]\\@
 Normal termination of Gaussian 16 at Fri Feb  9 18:11:55 2024.
