 Gaussian 16, Revision A.03,
 Gaussian 16:  ES64L-G16RevA.03 25-Dec-2016

 ------------------
 #p CCSD(T)/cc-pVTZ
 ------------------

 -----------
 CO2_CO2_180
 -----------
 Symbolic Z-matrix:
 Charge =  0 Multiplicity = 1

                         Standard orientation:
 ---------------------------------------------------------------------
 Center     Atomic      Atomic             Coordinates (Angstroms)
 Number     Number       Type             X           Y           Z
 ---------------------------------------------------------------------
      1          8           0        0.000000    0.000000    4.026000
      2          6           0        0.000000    0.000000    2.863000
      3          8           0        0.000000    0.000000    1.700000
      4          8           0        0.000000    0.000000   -1.700000
      5          6           0        0.000000    0.000000   -2.863000
      6          8           0        0.000000    0.000000   -4.026000
 ---------------------------------------------------------------------

 SCF Done:  E(RHF) =  -375.412520229     A.U. after   10 cycles
 E2 =    -0.1204081004D+01 EUMP2 =    -0.37661660123260D+03
 CCSD(T)
 CCSD(T)= -0.37665442178D+03

 The electronic state is 1-SGG.
 Alpha  occ. eigenvalues --  -20.64666 -20.64666 -20.64611 -20.64611 -11.45598
 Alpha  occ. eigenvalues --  -11.45598  -1.52442  -1.52430  -1.47141  -1.47121
 Alpha  occ. eigenvalues --   -0.79705  -0.79326  -0.73915  -0.73434  -0.70930
 Alpha  occ. eigenvalues --   -0.70930  -0.70897  -0.70897  -0.53916  -0.53916
 Alpha  occ. eigenvalues --   -0.53832  -0.53832
 Alpha virt. eigenvalues --    0.17435   0.18031   0.20742   0.20742   0.20913
 Alpha virt. eigenvalues --    0.20913   0.32248   0.36801   0.39698   0.39698
 Alpha virt. eigenvalues --    0.39872   0.39872   0.54833   0.55241   0.58531

 Mulliken charges:
               1
     1  O   -0.274470
     2  C    0.533675
     3  O   -0.259205
     4  O   -0.259205
     5  C    0.533675
     6  O   -0.274470
 Sum of Mulliken charges =  -0.00000

 Dipole moment (field-independent basis, Debye):
    X=             -0.0000    Y=             -0.0000    Z=             -0.0000  Tot=              0.0000
 Quadrupole moment (field-independent basis, Debye-Ang):
   XX=            -29.3954   YY=            -29.3954   ZZ=            -40.2326
   XY=              0.0000   XZ=              0.0000   YZ=              0.0000

 843\CCSD(T)=-376.6544218\RMSD=4.600e-09\PG=D*H [C*(O1C1O1.O1C1O1)]\\@
 Normal termination of Gaussian 16 at Sat Feb 10 21:31:22 2024.
