 Gaussian 16, Revision A.03,
 Gaussian 16:  ES64L-G16RevA.03 25-Dec-2016

 ------------------
 #p CCSD(T)/cc-pVTZ
 ------------------

 -----------
 CO2_CO2_109
 -----------
 Symbolic Z-matrix:
 Charge =  0 Multiplicity = 1

                         Standard orientation:
 ---------------------------------------------------------------------
 Center     Atomic      Atomic             Coordinates (Angstroms)
 Number     Number       Type             X           Y           Z
 ---------------------------------------------------------------------
      1          8           0        1.233548   -3.035048    0.000000
      2          6           0        0.411183   -2.212683    0.000000
      3          8           0       -0.411183   -1.390318   -0.000000
      4          8           0       -0.411183    1.049683   -0.000000
      5          6           0       -0.411183    2.212683   -0.000000
      6          8           0       -0.411183    3.375683   -0.000000
 ---------------------------------------------------------------------

 SCF Done:  E(RHF) =  -375.405597607     A.U. after   11 cycles
 E2 =    -0.1206734303D+01 EUMP2 =    -0.37661233190955D+03
 CCSD(T)
 CCSD(T)= -0.37664981046D+03

 The electronic state is 1-A'.
 Alpha  occ. eigenvalues --  -20.64613 -20.64338 -20.64290 -20.64006 -11.45443
 Alpha  occ. eigenvalues --  -11.45130  -1.52422  -1.52016  -1.47140  -1.46668
 Alpha  occ. eigenvalues --   -0.80990  -0.78362  -0.74746  -0.72039  -0.70932
 Alpha  occ. eigenvalues --   -0.70839  -0.70459  -0.70048  -0.54061  -0.53940
 Alpha  occ. eigenvalues --   -0.53228  -0.53182
 Alpha virt. eigenvalues --    0.17002   0.18798   0.20582   0.20824   0.21186
 Alpha virt. eigenvalues --    0.21410   0.33415   0.36675   0.38897   0.39232
 Alpha virt. eigenvalues --    0.40704   0.42733   0.54021   0.55603   0.64463

 Mulliken charges:
               1
     1  O   -0.281066
     2  C    0.528216
     3  O   -0.247802
     4  O   -0.234792
     5  C    0.522841
     6  O   -0.287397
 Sum of Mulliken charges =  -0.00000

 Dipole moment (field-independent basis, Debye):
    X=             -0.0900    Y=              0.0386    Z=             -0.0000  Tot=              0.0980
 Quadrupole moment (field-independent basis, Debye-Ang):
   XX=            -32.0185   YY=            -38.0228   ZZ=            -29.4077
   XY=              2.7293   XZ=             -0.0000   YZ=              0.0000

 Q=-376.6006307\CCSD=-376.5922097\CCSD(T)=-376.6498105\RMSD=4.193e-09\P
 Normal termination of Gaussian 16 at Sat Feb 10 15:47:46 2024.
