 Gaussian 16, Revision A.03,
 Gaussian 16:  ES64L-G16RevA.03 25-Dec-2016

 ------------------
 #p CCSD(T)/cc-pVTZ
 ------------------

 -----------
 CO2_CO2_249
 -----------
 Symbolic Z-matrix:
 Charge =  0 Multiplicity = 1

                         Standard orientation:
 ---------------------------------------------------------------------
 Center     Atomic      Atomic             Coordinates (Angstroms)
 Number     Number       Type             X           Y           Z
 ---------------------------------------------------------------------
      1          8           0        0.000000    0.000000    4.486000
      2          6           0        0.000000    0.000000    3.323000
      3          8           0        0.000000    0.000000    2.160000
      4          8           0        0.000000    0.000000   -2.160000
      5          6           0        0.000000    0.000000   -3.323000
      6          8           0        0.000000    0.000000   -4.486000
 ---------------------------------------------------------------------

 SCF Done:  E(RHF) =  -375.412875664     A.U. after   10 cycles
 E2 =    -0.1203539602D+01 EUMP2 =    -0.37661641526522D+03
 CCSD(T)
 CCSD(T)= -0.37665430569D+03

 The electronic state is 1-SGG.
 Alpha  occ. eigenvalues --  -20.64785 -20.64785 -20.64756 -20.64756 -11.45741
 Alpha  occ. eigenvalues --  -11.45741  -1.52565  -1.52564  -1.47263  -1.47262
 Alpha  occ. eigenvalues --   -0.79680  -0.79635  -0.73868  -0.73808  -0.71042
 Alpha  occ. eigenvalues --   -0.71042  -0.71039  -0.71039  -0.54013  -0.54013
 Alpha  occ. eigenvalues --   -0.54005  -0.54005
 Alpha virt. eigenvalues --    0.17467   0.17806   0.20702   0.20702   0.20718
 Alpha virt. eigenvalues --    0.20718   0.33084   0.35492   0.39687   0.39687
 Alpha virt. eigenvalues --    0.39707   0.39707   0.54904   0.54974   0.63509

 Mulliken charges:
               1
     1  O   -0.270241
     2  C    0.534925
     3  O   -0.264684
     4  O   -0.264684
     5  C    0.534925
     6  O   -0.270241
 Sum of Mulliken charges =  -0.00000

 Dipole moment (field-independent basis, Debye):
    X=             -0.0000    Y=              0.0000    Z=              0.0000  Tot=              0.0000
 Quadrupole moment (field-independent basis, Debye-Ang):
   XX=            -29.3918   YY=            -29.3918   ZZ=            -40.0341
   XY=              0.0000   XZ=              0.0000   YZ=             -0.0000

 71441\CCSD(T)=-376.6543057\RMSD=4.696e-09\PG=D*H [C*(O1C1O1.O1C1O1)]\\
 Normal termination of Gaussian 16 at Mon Feb 12 19:58:21 2024.
