 Gaussian 16, Revision A.03,
 Gaussian 16:  ES64L-G16RevA.03 25-Dec-2016

 ------------------
 #p CCSD(T)/cc-pVTZ
 ------------------

 ---------
 CO2_CO2_8
 ---------
 Symbolic Z-matrix:
 Charge =  0 Multiplicity = 1

                         Standard orientation:
 ---------------------------------------------------------------------
 Center     Atomic      Atomic             Coordinates (Angstroms)
 Number     Number       Type             X           Y           Z
 ---------------------------------------------------------------------
      1          8           0       -1.744500   -1.121500    0.000000
      2          6           0       -0.581500   -1.121500    0.000000
      3          8           0        0.581500   -1.121500    0.000000
      4          8           0        0.581500   -0.041500    0.000000
      5          6           0        0.581500    1.121500    0.000000
      6          8           0        0.581500    2.284500    0.000000
 ---------------------------------------------------------------------

 SCF Done:  E(RHF) =  -374.497134243     A.U. after   21 cycles
 E2 =    -0.1262607997D+01 EUMP2 =    -0.37575974224029D+03
 CCSD(T)
 CCSD(T)= -0.37580104979D+03

 The electronic state is 1-A'.
 Alpha  occ. eigenvalues --  -20.84144 -20.82808 -20.61675 -20.58648 -11.44592
 Alpha  occ. eigenvalues --  -11.34592  -2.01861  -1.52184  -1.45544  -1.43259
 Alpha  occ. eigenvalues --   -1.18245  -1.03384  -1.01513  -0.73886  -0.73291
 Alpha  occ. eigenvalues --   -0.70657  -0.68775  -0.61835  -0.57306  -0.55727
 Alpha  occ. eigenvalues --   -0.51467  -0.15074
 Alpha virt. eigenvalues --    0.13682   0.15118   0.15667   0.18332   0.21414
 Alpha virt. eigenvalues --    0.30010   0.36551   0.36854   0.38335   0.42067
 Alpha virt. eigenvalues --    0.44204   0.45942   0.52350   0.58546   0.59700

 Mulliken charges:
               1
     1  O   -0.324478
     2  C    0.063028
     3  O    0.054332
     4  O    0.381214
     5  C    0.130509
     6  O   -0.304605
 Sum of Mulliken charges =  -0.00000

 Dipole moment (field-independent basis, Debye):
    X=              2.3969    Y=             -1.5480    Z=              0.0000  Tot=              2.8533
 Quadrupole moment (field-independent basis, Debye-Ang):
   XX=            -38.3314   YY=            -39.8523   ZZ=            -28.8570
   XY=             -5.1285   XZ=              0.0000   YZ=              0.0000

 72\CCSD(T)=-375.8010498\RMSD=4.761e-09\PG=CS [SG(C2O4)]\\@
 Normal termination of Gaussian 16 at Fri Feb  9 19:12:57 2024.
