 Gaussian 16, Revision A.03,
 Gaussian 16:  ES64L-G16RevA.03 25-Dec-2016

 ------------------
 #p CCSD(T)/cc-pVTZ
 ------------------

 ----------
 CO2_CO2_56
 ----------
 Symbolic Z-matrix:
 Charge =  0 Multiplicity = 1

                         Standard orientation:
 ---------------------------------------------------------------------
 Center     Atomic      Atomic             Coordinates (Angstroms)
 Number     Number       Type             X           Y           Z
 ---------------------------------------------------------------------
      1          8           0       -1.744500   -1.441500    0.000000
      2          6           0       -0.581500   -1.441500    0.000000
      3          8           0        0.581500   -1.441500    0.000000
      4          8           0        0.581500    0.278500    0.000000
      5          6           0        0.581500    1.441500    0.000000
      6          8           0        0.581500    2.604500    0.000000
 ---------------------------------------------------------------------

 SCF Done:  E(RHF) =  -375.279647465     A.U. after   14 cycles
 E2 =    -0.1224379329D+01 EUMP2 =    -0.37650402679373D+03
 CCSD(T)
 CCSD(T)= -0.37653894534D+03

 The electronic state is 1-A'.
 Alpha  occ. eigenvalues --  -20.65508 -20.63791 -20.63554 -20.61081 -11.45753
 Alpha  occ. eigenvalues --  -11.43794  -1.55321  -1.51311  -1.48436  -1.45105
 Alpha  occ. eigenvalues --   -0.87758  -0.79022  -0.77006  -0.73736  -0.72962
 Alpha  occ. eigenvalues --   -0.70449  -0.69137  -0.63971  -0.56085  -0.54650
 Alpha  occ. eigenvalues --   -0.51329  -0.47081
 Alpha virt. eigenvalues --    0.15723   0.18105   0.19703   0.21721   0.21770
 Alpha virt. eigenvalues --    0.24292   0.33503   0.36614   0.36825   0.40655
 Alpha virt. eigenvalues --    0.43711   0.47162   0.53981   0.58532   0.65418

 Mulliken charges:
               1
     1  O   -0.289365
     2  C    0.511489
     3  O   -0.237440
     4  O   -0.226623
     5  C    0.528959
     6  O   -0.287019
 Sum of Mulliken charges =  -0.00000

 Dipole moment (field-independent basis, Debye):
    X=              0.4354    Y=              0.3635    Z=              0.0000  Tot=              0.5672
 Quadrupole moment (field-independent basis, Debye-Ang):
   XX=            -34.5915   YY=            -35.8859   ZZ=            -29.3165
   XY=             -0.2333   XZ=              0.0000   YZ=              0.0000

 468\CCSD(T)=-376.5389453\RMSD=4.815e-09\PG=CS [SG(C2O4)]\\@
 Normal termination of Gaussian 16 at Fri Feb  9 23:44:01 2024.
