 Gaussian 16, Revision A.03,
 Gaussian 16:  ES64L-G16RevA.03 25-Dec-2016

 ------------------
 #p CCSD(T)/cc-pVTZ
 ------------------

 -----------
 CO2_CO2_256
 -----------
 Symbolic Z-matrix:
 Charge =  0 Multiplicity = 1

                         Standard orientation:
 ---------------------------------------------------------------------
 Center     Atomic      Atomic             Coordinates (Angstroms)
 Number     Number       Type             X           Y           Z
 ---------------------------------------------------------------------
      1          8           0        1.233548   -4.015048    0.000000
      2          6           0        0.411183   -3.192683    0.000000
      3          8           0       -0.411183   -2.370317    0.000000
      4          8           0       -0.411183    2.029683   -0.000000
      5          6           0       -0.411183    3.192683   -0.000000
      6          8           0       -0.411183    4.355682   -0.000000
 ---------------------------------------------------------------------

 SCF Done:  E(RHF) =  -375.412978971     A.U. after   10 cycles
 E2 =    -0.1203486806D+01 EUMP2 =    -0.37661646577648D+03
 CCSD(T)
 CCSD(T)= -0.37665436799D+03

 The electronic state is 1-A'.
 Alpha  occ. eigenvalues --  -20.64889 -20.64873 -20.64781 -20.64752 -11.45855
 Alpha  occ. eigenvalues --  -11.45740  -1.52675  -1.52559  -1.47374  -1.47258
 Alpha  occ. eigenvalues --   -0.79775  -0.79659  -0.73959  -0.73840  -0.71150
 Alpha  occ. eigenvalues --   -0.71150  -0.71036  -0.71032  -0.54122  -0.54121
 Alpha  occ. eigenvalues --   -0.54007  -0.54003
 Alpha virt. eigenvalues --    0.17413   0.17775   0.20603   0.20604   0.20715
 Alpha virt. eigenvalues --    0.20722   0.32979   0.35499   0.39590   0.39596
 Alpha virt. eigenvalues --    0.39710   0.39757   0.54811   0.54974   0.64729

 Mulliken charges:
               1
     1  O   -0.270215
     2  C    0.535569
     3  O   -0.265339
     4  O   -0.266222
     5  C    0.535584
     6  O   -0.269377
 Sum of Mulliken charges =  -0.00000

 Dipole moment (field-independent basis, Debye):
    X=             -0.0185    Y=              0.0064    Z=             -0.0000  Tot=              0.0196
 Quadrupole moment (field-independent basis, Debye-Ang):
   XX=            -31.9707   YY=            -37.3406   ZZ=            -29.3909
   XY=              2.6085   XZ=             -0.0000   YZ=              0.0000

 53929\CCSD=-376.5972132\CCSD(T)=-376.654368\RMSD=7.933e-09\PG=CS [SG(C
 Normal termination of Gaussian 16 at Mon Feb 12 20:25:53 2024.
