 Gaussian 16, Revision A.03,
 Gaussian 16:  ES64L-G16RevA.03 25-Dec-2016

 ------------------
 #p CCSD(T)/cc-pVTZ
 ------------------

 -----------
 CO2_CO2_155
 -----------
 Symbolic Z-matrix:
 Charge =  0 Multiplicity = 1

                         Standard orientation:
 ---------------------------------------------------------------------
 Center     Atomic      Atomic             Coordinates (Angstroms)
 Number     Number       Type             X           Y           Z
 ---------------------------------------------------------------------
      1          8           0       -1.744500   -2.101500    0.000000
      2          6           0       -0.581500   -2.101500    0.000000
      3          8           0        0.581500   -2.101500    0.000000
      4          8           0        0.581500    0.938500    0.000000
      5          6           0        0.581500    2.101500    0.000000
      6          8           0        0.581500    3.264500    0.000000
 ---------------------------------------------------------------------

 SCF Done:  E(RHF) =  -375.413031340     A.U. after   11 cycles
 E2 =    -0.1204513323D+01 EUMP2 =    -0.37661754466253D+03
 CCSD(T)
 CCSD(T)= -0.37665541033D+03

 The electronic state is 1-A'.
 Alpha  occ. eigenvalues --  -20.65364 -20.65332 -20.64418 -20.64259 -11.46344
 Alpha  occ. eigenvalues --  -11.45340  -1.53152  -1.52144  -1.47855  -1.46844
 Alpha  occ. eigenvalues --   -0.80359  -0.79283  -0.74623  -0.73449  -0.71624
 Alpha  occ. eigenvalues --   -0.71623  -0.70633  -0.70437  -0.54618  -0.54614
 Alpha  occ. eigenvalues --   -0.53609  -0.53572
 Alpha virt. eigenvalues --    0.16392   0.18905   0.19895   0.20109   0.21109
 Alpha virt. eigenvalues --    0.21785   0.34216   0.34500   0.38358   0.39130
 Alpha virt. eigenvalues --    0.40813   0.44304   0.54238   0.56173   0.63922

 Mulliken charges:
               1
     1  O   -0.273443
     2  C    0.535885
     3  O   -0.264380
     4  O   -0.264054
     5  C    0.539114
     6  O   -0.273123
 Sum of Mulliken charges =  -0.00000

 Dipole moment (field-independent basis, Debye):
    X=              0.0872    Y=              0.1158    Z=              0.0000  Tot=              0.1450
 Quadrupole moment (field-independent basis, Debye-Ang):
   XX=            -34.5838   YY=            -34.5662   ZZ=            -29.3903
   XY=             -0.0369   XZ=              0.0000   YZ=              0.0000

 0911\CCSD(T)=-376.6554103\RMSD=8.464e-09\PG=CS [SG(C2O4)]\\@
 Normal termination of Gaussian 16 at Sat Feb 10 19:33:52 2024.
