 Gaussian 16, Revision A.03,
 Gaussian 16:  ES64L-G16RevA.03 25-Dec-2016

 ------------------
 #p CCSD(T)/cc-pVTZ
 ------------------

 ----------
 CO2_CO2_59
 ----------
 Symbolic Z-matrix:
 Charge =  0 Multiplicity = 1

                         Standard orientation:
 ---------------------------------------------------------------------
 Center     Atomic      Atomic             Coordinates (Angstroms)
 Number     Number       Type             X           Y           Z
 ---------------------------------------------------------------------
      1          8           0       -1.744500   -1.461500    0.000000
      2          6           0       -0.581500   -1.461500    0.000000
      3          8           0        0.581500   -1.461500    0.000000
      4          8           0        0.581500    0.298500    0.000000
      5          6           0        0.581500    1.461500    0.000000
      6          8           0        0.581500    2.624500    0.000000
 ---------------------------------------------------------------------

 SCF Done:  E(RHF) =  -375.297736101     A.U. after   14 cycles
 E2 =    -0.1222231919D+01 EUMP2 =    -0.37651996802003D+03
 CCSD(T)
 CCSD(T)= -0.37655525569D+03

 The electronic state is 1-A'.
 Alpha  occ. eigenvalues --  -20.65525 -20.63942 -20.63590 -20.61244 -11.45859
 Alpha  occ. eigenvalues --  -11.43877  -1.54953  -1.51322  -1.48415  -1.45235
 Alpha  occ. eigenvalues --   -0.87041  -0.78899  -0.76967  -0.73619  -0.72795
 Alpha  occ. eigenvalues --   -0.70597  -0.69223  -0.64310  -0.55935  -0.54697
 Alpha  occ. eigenvalues --   -0.51501  -0.47958
 Alpha virt. eigenvalues --    0.15744   0.18214   0.19740   0.21564   0.21749
 Alpha virt. eigenvalues --    0.24221   0.33576   0.36637   0.36699   0.40562
 Alpha virt. eigenvalues --    0.43645   0.47220   0.53845   0.58522   0.65510

 Mulliken charges:
               1
     1  O   -0.288961
     2  C    0.515214
     3  O   -0.241532
     4  O   -0.228191
     5  C    0.529884
     6  O   -0.286413
 Sum of Mulliken charges =  -0.00000

 Dipole moment (field-independent basis, Debye):
    X=              0.4117    Y=              0.3548    Z=              0.0000  Tot=              0.5435
 Quadrupole moment (field-independent basis, Debye-Ang):
   XX=            -34.6008   YY=            -35.7773   ZZ=            -29.3280
   XY=             -0.2116   XZ=              0.0000   YZ=              0.0000

 82\CCSD(T)=-376.5552557\RMSD=4.183e-09\PG=CS [SG(C2O4)]\\@
 Normal termination of Gaussian 16 at Fri Feb  9 23:58:26 2024.
