 Gaussian 16, Revision A.03,
 Gaussian 16:  ES64L-G16RevA.03 25-Dec-2016

 ------------------
 #p CCSD(T)/cc-pVTZ
 ------------------

 -----------
 CO2_CO2_239
 -----------
 Symbolic Z-matrix:
 Charge =  0 Multiplicity = 1

                         Standard orientation:
 ---------------------------------------------------------------------
 Center     Atomic      Atomic             Coordinates (Angstroms)
 Number     Number       Type             X           Y           Z
 ---------------------------------------------------------------------
      1          8           0       -1.744500   -2.661500    0.000000
      2          6           0       -0.581500   -2.661500    0.000000
      3          8           0        0.581500   -2.661500    0.000000
      4          8           0        0.581500    1.498500    0.000000
      5          6           0        0.581500    2.661500    0.000000
      6          8           0        0.581500    3.824500    0.000000
 ---------------------------------------------------------------------

 SCF Done:  E(RHF) =  -375.413443008     A.U. after   10 cycles
 E2 =    -0.1203442164D+01 EUMP2 =    -0.37661688517193D+03
 CCSD(T)
 CCSD(T)= -0.37665481416D+03

 The electronic state is 1-A'.
 Alpha  occ. eigenvalues --  -20.65195 -20.65164 -20.64685 -20.64654 -11.46166
 Alpha  occ. eigenvalues --  -11.45656  -1.52969  -1.52461  -1.47672  -1.47163
 Alpha  occ. eigenvalues --   -0.80094  -0.79583  -0.74283  -0.73770  -0.71443
 Alpha  occ. eigenvalues --   -0.71441  -0.70942  -0.70922  -0.54426  -0.54424
 Alpha  occ. eigenvalues --   -0.53921  -0.53911
 Alpha virt. eigenvalues --    0.16702   0.18097   0.20280   0.20315   0.20814
 Alpha virt. eigenvalues --    0.20879   0.32636   0.34836   0.39283   0.39285
 Alpha virt. eigenvalues --    0.39865   0.40825   0.54465   0.54796   0.65630

 Mulliken charges:
               1
     1  O   -0.270844
     2  C    0.538060
     3  O   -0.267439
     4  O   -0.271112
     5  C    0.538784
     6  O   -0.267449
 Sum of Mulliken charges =  -0.00000

 Dipole moment (field-independent basis, Debye):
    X=              0.0287    Y=              0.0485    Z=              0.0000  Tot=              0.0564
 Quadrupole moment (field-independent basis, Debye-Ang):
   XX=            -34.5584   YY=            -34.5102   ZZ=            -29.3886
   XY=             -0.0177   XZ=              0.0000   YZ=              0.0000

 627\CCSD(T)=-376.6548142\RMSD=4.774e-09\PG=CS [SG(C2O4)]\\@
 Normal termination of Gaussian 16 at Mon Feb 12 19:23:54 2024.
