 Gaussian 16, Revision A.03,
 Gaussian 16:  ES64L-G16RevA.03 25-Dec-2016

 ------------------
 #p CCSD(T)/cc-pVTZ
 ------------------

 -----------
 CO2_CO2_171
 -----------
 Symbolic Z-matrix:
 Charge =  0 Multiplicity = 1

                         Standard orientation:
 ---------------------------------------------------------------------
 Center     Atomic      Atomic             Coordinates (Angstroms)
 Number     Number       Type             X           Y           Z
 ---------------------------------------------------------------------
      1          8           0        0.000000    0.000000    3.966000
      2          6           0        0.000000    0.000000    2.803000
      3          8           0        0.000000    0.000000    1.640000
      4          8           0        0.000000    0.000000   -1.640000
      5          6           0        0.000000    0.000000   -2.803000
      6          8           0        0.000000    0.000000   -3.966000
 ---------------------------------------------------------------------

 SCF Done:  E(RHF) =  -375.412391452     A.U. after   10 cycles
 E2 =    -0.1204216858D+01 EUMP2 =    -0.37661660831003D+03
 CCSD(T)
 CCSD(T)= -0.37665441395D+03

 The electronic state is 1-SGG.
 Alpha  occ. eigenvalues --  -20.64643 -20.64643 -20.64579 -20.64579 -11.45569
 Alpha  occ. eigenvalues --  -11.45569  -1.52420  -1.52402  -1.47119  -1.47092
 Alpha  occ. eigenvalues --   -0.79739  -0.79245  -0.73952  -0.73326  -0.70911
 Alpha  occ. eigenvalues --   -0.70911  -0.70867  -0.70867  -0.53902  -0.53902
 Alpha  occ. eigenvalues --   -0.53793  -0.53793
 Alpha virt. eigenvalues --    0.17469   0.18058   0.20739   0.20739   0.20959
 Alpha virt. eigenvalues --    0.20959   0.32413   0.36938   0.39687   0.39687
 Alpha virt. eigenvalues --    0.39912   0.39912   0.54798   0.55182   0.58715

 Mulliken charges:
               1
     1  O   -0.275780
     2  C    0.533019
     3  O   -0.257239
     4  O   -0.257239
     5  C    0.533019
     6  O   -0.275780
 Sum of Mulliken charges =   0.00000

 Dipole moment (field-independent basis, Debye):
    X=             -0.0000    Y=             -0.0000    Z=             -0.0000  Tot=              0.0000
 Quadrupole moment (field-independent basis, Debye-Ang):
   XX=            -29.3964   YY=            -29.3964   ZZ=            -40.2738
   XY=              0.0000   XZ=              0.0000   YZ=              0.0000

 1575\CCSD(T)=-376.654414\RMSD=4.574e-09\PG=D*H [C*(O1C1O1.O1C1O1)]\\@
 Normal termination of Gaussian 16 at Sat Feb 10 20:48:29 2024.
