 Gaussian 16, Revision A.03,
 Gaussian 16:  ES64L-G16RevA.03 25-Dec-2016

 ------------------
 #p CCSD(T)/cc-pVTZ
 ------------------

 ----------
 CO2_CO2_60
 ----------
 Symbolic Z-matrix:
 Charge =  0 Multiplicity = 1

                         Standard orientation:
 ---------------------------------------------------------------------
 Center     Atomic      Atomic             Coordinates (Angstroms)
 Number     Number       Type             X           Y           Z
 ---------------------------------------------------------------------
      1          8           0        0.000000    0.000000    3.226000
      2          6           0        0.000000    0.000000    2.063000
      3          8           0        0.000000    0.000000    0.900000
      4          8           0        0.000000    0.000000   -0.900000
      5          6           0        0.000000    0.000000   -2.063000
      6          8           0        0.000000    0.000000   -3.226000
 ---------------------------------------------------------------------

 SCF Done:  E(RHF) =  -375.334053163     A.U. after   10 cycles
 E2 =    -0.1215667237D+01 EUMP2 =    -0.37654972039926D+03
 CCSD(T)
 CCSD(T)= -0.37658541263D+03

 The electronic state is 1-SGG.
 Alpha  occ. eigenvalues --  -20.63843 -20.63843 -20.62324 -20.62322 -11.44112
 Alpha  occ. eigenvalues --  -11.44112  -1.52488  -1.51107  -1.47236  -1.45412
 Alpha  occ. eigenvalues --   -0.88772  -0.76687  -0.75377  -0.70931  -0.70931
 Alpha  occ. eigenvalues --   -0.69364  -0.69364  -0.61418  -0.54699  -0.54699
 Alpha  occ. eigenvalues --   -0.51393  -0.51393
 Alpha virt. eigenvalues --    0.17234   0.19367   0.20025   0.20025   0.23027
 Alpha virt. eigenvalues --    0.23027   0.32484   0.38643   0.38643   0.39883
 Alpha virt. eigenvalues --    0.41417   0.41417   0.53199   0.57362   0.68574

 Mulliken charges:
               1
     1  O   -0.309722
     2  C    0.518087
     3  O   -0.208366
     4  O   -0.208366
     5  C    0.518087
     6  O   -0.309722
 Sum of Mulliken charges =   0.00000

 Dipole moment (field-independent basis, Debye):
    X=             -0.0000    Y=             -0.0000    Z=              0.0000  Tot=              0.0000
 Quadrupole moment (field-independent basis, Debye-Ang):
   XX=            -29.3835   YY=            -29.3835   ZZ=            -41.8670
   XY=              0.0000   XZ=              0.0000   YZ=              0.0000

 675\CCSD(T)=-376.5854126\RMSD=7.802e-09\PG=D*H [C*(O1C1O1.O1C1O1)]\\@
 Normal termination of Gaussian 16 at Sat Feb 10 00:00:55 2024.
