 Gaussian 16, Revision A.03,
 Gaussian 16:  ES64L-G16RevA.03 25-Dec-2016

 ------------------
 #p CCSD(T)/cc-pVTZ
 ------------------

 -----------
 CO2_CO2_170
 -----------
 Symbolic Z-matrix:
 Charge =  0 Multiplicity = 1

                         Standard orientation:
 ---------------------------------------------------------------------
 Center     Atomic      Atomic             Coordinates (Angstroms)
 Number     Number       Type             X           Y           Z
 ---------------------------------------------------------------------
      1          8           0       -1.744500   -2.201500    0.000000
      2          6           0       -0.581500   -2.201500    0.000000
      3          8           0        0.581500   -2.201500    0.000000
      4          8           0        0.581500    1.038500    0.000000
      5          6           0        0.581500    2.201500    0.000000
      6          8           0        0.581500    3.364500    0.000000
 ---------------------------------------------------------------------

 SCF Done:  E(RHF) =  -375.413420157     A.U. after   10 cycles
 E2 =    -0.1204143404D+01 EUMP2 =    -0.37661756356154D+03
 CCSD(T)
 CCSD(T)= -0.37665545154D+03

 The electronic state is 1-A'.
 Alpha  occ. eigenvalues --  -20.65335 -20.65292 -20.64487 -20.64377 -11.46306
 Alpha  occ. eigenvalues --  -11.45427  -1.53108  -1.52228  -1.47811  -1.46930
 Alpha  occ. eigenvalues --   -0.80274  -0.79364  -0.74502  -0.73540  -0.71580
 Alpha  occ. eigenvalues --   -0.71579  -0.70717  -0.70603  -0.54570  -0.54568
 Alpha  occ. eigenvalues --   -0.53696  -0.53668
 Alpha virt. eigenvalues --    0.16414   0.18692   0.19996   0.20155   0.21037
 Alpha virt. eigenvalues --    0.21547   0.33663   0.34570   0.38622   0.39109
 Alpha virt. eigenvalues --    0.40523   0.43363   0.54374   0.55596   0.63777

 Mulliken charges:
               1
     1  O   -0.272490
     2  C    0.536346
     3  O   -0.265121
     4  O   -0.266766
     5  C    0.539458
     6  O   -0.271426
 Sum of Mulliken charges =  -0.00000

 Dipole moment (field-independent basis, Debye):
    X=              0.0696    Y=              0.0974    Z=              0.0000  Tot=              0.1197
 Quadrupole moment (field-independent basis, Debye-Ang):
   XX=            -34.5761   YY=            -34.5354   ZZ=            -29.3893
   XY=             -0.0301   XZ=              0.0000   YZ=              0.0000

 1\CCSD(T)=-376.6554515\RMSD=8.127e-09\PG=CS [SG(C2O4)]\\@
 Normal termination of Gaussian 16 at Sat Feb 10 20:46:12 2024.
