 Gaussian 16, Revision A.03,
 Gaussian 16:  ES64L-G16RevA.03 25-Dec-2016

 ------------------
 #p CCSD(T)/cc-pVTZ
 ------------------

 ----------
 CO2_CO2_97
 ----------
 Symbolic Z-matrix:
 Charge =  0 Multiplicity = 1

                         Standard orientation:
 ---------------------------------------------------------------------
 Center     Atomic      Atomic             Coordinates (Angstroms)
 Number     Number       Type             X           Y           Z
 ---------------------------------------------------------------------
      1          8           0        1.233548   -2.955048    0.000000
      2          6           0        0.411183   -2.132683    0.000000
      3          8           0       -0.411183   -1.310317   -0.000000
      4          8           0       -0.411183    0.969682   -0.000000
      5          6           0       -0.411183    2.132683   -0.000000
      6          8           0       -0.411183    3.295683   -0.000000
 ---------------------------------------------------------------------

 SCF Done:  E(RHF) =  -375.399505743     A.U. after   11 cycles
 E2 =    -0.1207986601D+01 EUMP2 =    -0.37660749234367D+03
 CCSD(T)
 CCSD(T)= -0.37664475746D+03

 The electronic state is 1-A'.
 Alpha  occ. eigenvalues --  -20.64554 -20.64168 -20.64130 -20.63764 -11.45324
 Alpha  occ. eigenvalues --  -11.44965  -1.52409  -1.51876  -1.47145  -1.46494
 Alpha  occ. eigenvalues --   -0.81803  -0.78051  -0.74999  -0.71686  -0.70929
 Alpha  occ. eigenvalues --   -0.70701  -0.70297  -0.69409  -0.54142  -0.53937
 Alpha  occ. eigenvalues --   -0.52974  -0.52872
 Alpha virt. eigenvalues --    0.16930   0.18978   0.20516   0.20846   0.21308
 Alpha virt. eigenvalues --    0.21611   0.33574   0.36577   0.38694   0.39177
 Alpha virt. eigenvalues --    0.40943   0.43324   0.53880   0.55835   0.64742

 Mulliken charges:
               1
     1  O   -0.282932
     2  C    0.527832
     3  O   -0.246414
     4  O   -0.228339
     5  C    0.520471
     6  O   -0.290618
 Sum of Mulliken charges =  -0.00000

 Dipole moment (field-independent basis, Debye):
    X=             -0.1073    Y=              0.0540    Z=             -0.0000  Tot=              0.1201
 Quadrupole moment (field-independent basis, Debye-Ang):
   XX=            -32.0331   YY=            -38.2060   ZZ=            -29.4086
   XY=              2.7615   XZ=             -0.0000   YZ=              0.0000

 =-376.5955217\CCSD=-376.5870037\CCSD(T)=-376.6447575\RMSD=4.081e-09\PG
 Normal termination of Gaussian 16 at Sat Feb 10 03:08:42 2024.
