 Gaussian 16, Revision A.03,
 Gaussian 16:  ES64L-G16RevA.03 25-Dec-2016

 ------------------
 #p CCSD(T)/cc-pVTZ
 ------------------

 -----------
 CO2_CO2_161
 -----------
 Symbolic Z-matrix:
 Charge =  0 Multiplicity = 1

                         Standard orientation:
 ---------------------------------------------------------------------
 Center     Atomic      Atomic             Coordinates (Angstroms)
 Number     Number       Type             X           Y           Z
 ---------------------------------------------------------------------
      1          8           0       -1.744500   -2.141500    0.000000
      2          6           0       -0.581500   -2.141500    0.000000
      3          8           0        0.581500   -2.141500    0.000000
      4          8           0        0.581500    0.978500    0.000000
      5          6           0        0.581500    2.141500    0.000000
      6          8           0        0.581500    3.304500    0.000000
 ---------------------------------------------------------------------

 SCF Done:  E(RHF) =  -375.413232719     A.U. after   10 cycles
 E2 =    -0.1204348774D+01 EUMP2 =    -0.37661758149310D+03
 CCSD(T)
 CCSD(T)= -0.37665545768D+03

 The electronic state is 1-A'.
 Alpha  occ. eigenvalues --  -20.65354 -20.65316 -20.64447 -20.64311 -11.46329
 Alpha  occ. eigenvalues --  -11.45377  -1.53133  -1.52180  -1.47837  -1.46881
 Alpha  occ. eigenvalues --   -0.80321  -0.79318  -0.74568  -0.73488  -0.71605
 Alpha  occ. eigenvalues --   -0.71605  -0.70669  -0.70512  -0.54598  -0.54595
 Alpha  occ. eigenvalues --   -0.53647  -0.53614
 Alpha virt. eigenvalues --    0.16404   0.18815   0.19938   0.20128   0.21079
 Alpha virt. eigenvalues --    0.21685   0.33997   0.34527   0.38468   0.39116
 Alpha virt. eigenvalues --    0.40689   0.43911   0.54304   0.55933   0.63759

 Mulliken charges:
               1
     1  O   -0.273007
     2  C    0.536042
     3  O   -0.264668
     4  O   -0.265242
     5  C    0.539280
     6  O   -0.272405
 Sum of Mulliken charges =  -0.00000

 Dipole moment (field-independent basis, Debye):
    X=              0.0796    Y=              0.1080    Z=              0.0000  Tot=              0.1341
 Quadrupole moment (field-independent basis, Debye-Ang):
   XX=            -34.5804   YY=            -34.5520   ZZ=            -29.3898
   XY=             -0.0340   XZ=              0.0000   YZ=              0.0000

 645\CCSD(T)=-376.6554577\RMSD=9.438e-09\PG=CS [SG(C2O4)]\\@
 Normal termination of Gaussian 16 at Sat Feb 10 20:04:59 2024.
