 Gaussian 16, Revision A.03,
 Gaussian 16:  ES64L-G16RevA.03 25-Dec-2016

 ------------------
 #p CCSD(T)/cc-pVTZ
 ------------------

 -----------
 CO2_CO2_173
 -----------
 Symbolic Z-matrix:
 Charge =  0 Multiplicity = 1

                         Standard orientation:
 ---------------------------------------------------------------------
 Center     Atomic      Atomic             Coordinates (Angstroms)
 Number     Number       Type             X           Y           Z
 ---------------------------------------------------------------------
      1          8           0       -1.744500   -2.221500    0.000000
      2          6           0       -0.581500   -2.221500    0.000000
      3          8           0        0.581500   -2.221500    0.000000
      4          8           0        0.581500    1.058500    0.000000
      5          6           0        0.581500    2.221500    0.000000
      6          8           0        0.581500    3.384500    0.000000
 ---------------------------------------------------------------------

 SCF Done:  E(RHF) =  -375.413460467     A.U. after   10 cycles
 E2 =    -0.1204084307D+01 EUMP2 =    -0.37661754477434D+03
 CCSD(T)
 CCSD(T)= -0.37665543600D+03

 The electronic state is 1-A'.
 Alpha  occ. eigenvalues --  -20.65329 -20.65285 -20.64500 -20.64397 -11.46299
 Alpha  occ. eigenvalues --  -11.45442  -1.53100  -1.52243  -1.47803  -1.46945
 Alpha  occ. eigenvalues --   -0.80260  -0.79378  -0.74484  -0.73556  -0.71572
 Alpha  occ. eigenvalues --   -0.71571  -0.70731  -0.70629  -0.54562  -0.54560
 Alpha  occ. eigenvalues --   -0.53711  -0.53684
 Alpha virt. eigenvalues --    0.16415   0.18654   0.20014   0.20164   0.21023
 Alpha virt. eigenvalues --    0.21503   0.33555   0.34585   0.38670   0.39110
 Alpha virt. eigenvalues --    0.40473   0.43194   0.54392   0.55493   0.63835

 Mulliken charges:
               1
     1  O   -0.272349
     2  C    0.536459
     3  O   -0.265273
     4  O   -0.267212
     5  C    0.539500
     6  O   -0.271125
 Sum of Mulliken charges =  -0.00000

 Dipole moment (field-independent basis, Debye):
    X=              0.0666    Y=              0.0942    Z=              0.0000  Tot=              0.1153
 Quadrupole moment (field-independent basis, Debye-Ang):
   XX=            -34.5748   YY=            -34.5310   ZZ=            -29.3892
   XY=             -0.0289   XZ=              0.0000   YZ=              0.0000

 1849\CCSD(T)=-376.655436\RMSD=7.730e-09\PG=CS [SG(C2O4)]\\@
 Normal termination of Gaussian 16 at Sat Feb 10 21:00:29 2024.
