 Gaussian 16, Revision A.03,
 Gaussian 16:  ES64L-G16RevA.03 25-Dec-2016

 ------------------
 #p CCSD(T)/cc-pVTZ
 ------------------

 ----------
 CO2_CO2_41
 ----------
 Symbolic Z-matrix:
 Charge =  0 Multiplicity = 1

                         Standard orientation:
 ---------------------------------------------------------------------
 Center     Atomic      Atomic             Coordinates (Angstroms)
 Number     Number       Type             X           Y           Z
 ---------------------------------------------------------------------
      1          8           0       -1.744500   -1.341500    0.000000
      2          6           0       -0.581500   -1.341500    0.000000
      3          8           0        0.581500   -1.341500    0.000000
      4          8           0        0.581500    0.178500    0.000000
      5          6           0        0.581500    1.341500    0.000000
      6          8           0        0.581500    2.504500    0.000000
 ---------------------------------------------------------------------

 SCF Done:  E(RHF) =  -375.140590170     A.U. after   15 cycles
 E2 =    -0.1240627874D+01 EUMP2 =    -0.37638121804372D+03
 CCSD(T)
 CCSD(T)= -0.37641322289D+03

 The electronic state is 1-A'.
 Alpha  occ. eigenvalues --  -20.65353 -20.63332 -20.63178 -20.60768 -11.44980
 Alpha  occ. eigenvalues --  -11.43292  -1.58930  -1.51202  -1.48462  -1.44340
 Alpha  occ. eigenvalues --   -0.92184  -0.80543  -0.77090  -0.74477  -0.74346
 Alpha  occ. eigenvalues --   -0.69650  -0.68653  -0.62592  -0.57132  -0.54308
 Alpha  occ. eigenvalues --   -0.50345  -0.40237
 Alpha virt. eigenvalues --    0.15579   0.17456   0.19315   0.21891   0.22690
 Alpha virt. eigenvalues --    0.24501   0.33097   0.36558   0.37496   0.41205
 Alpha virt. eigenvalues --    0.43992   0.46872   0.54723   0.58384   0.64887

 Mulliken charges:
               1
     1  O   -0.291127
     2  C    0.479589
     3  O   -0.201527
     4  O   -0.212849
     5  C    0.514714
     6  O   -0.288800
 Sum of Mulliken charges =  -0.00000

 Dipole moment (field-independent basis, Debye):
    X=              0.6065    Y=              0.4120    Z=              0.0000  Tot=              0.7332
 Quadrupole moment (field-independent basis, Debye-Ang):
   XX=            -34.5270   YY=            -36.6515   ZZ=            -29.2381
   XY=             -0.4290   XZ=              0.0000   YZ=              0.0000

 65\CCSD(T)=-376.4132229\RMSD=2.636e-09\PG=CS [SG(C2O4)]\\@
 Normal termination of Gaussian 16 at Fri Feb  9 22:27:12 2024.
