 Gaussian 16, Revision A.03,
 Gaussian 16:  ES64L-G16RevA.03 25-Dec-2016

 ------------------
 #p CCSD(T)/cc-pVTZ
 ------------------

 -----------
 CO2_CO2_179
 -----------
 Symbolic Z-matrix:
 Charge =  0 Multiplicity = 1

                         Standard orientation:
 ---------------------------------------------------------------------
 Center     Atomic      Atomic             Coordinates (Angstroms)
 Number     Number       Type             X           Y           Z
 ---------------------------------------------------------------------
      1          8           0       -1.744500   -2.261500    0.000000
      2          6           0       -0.581500   -2.261500    0.000000
      3          8           0        0.581500   -2.261500    0.000000
      4          8           0        0.581500    1.098500    0.000000
      5          6           0        0.581500    2.261500    0.000000
      6          8           0        0.581500    3.424500    0.000000
 ---------------------------------------------------------------------

 SCF Done:  E(RHF) =  -375.413517063     A.U. after   10 cycles
 E2 =    -0.1203978058D+01 EUMP2 =    -0.37661749512052D+03
 CCSD(T)
 CCSD(T)= -0.37665539209D+03

 The electronic state is 1-A'.
 Alpha  occ. eigenvalues --  -20.65315 -20.65271 -20.64523 -20.64433 -11.46285
 Alpha  occ. eigenvalues --  -11.45470  -1.53084  -1.52271  -1.47788  -1.46974
 Alpha  occ. eigenvalues --   -0.80236  -0.79404  -0.74451  -0.73585  -0.71557
 Alpha  occ. eigenvalues --   -0.71555  -0.70759  -0.70675  -0.54546  -0.54544
 Alpha  occ. eigenvalues --   -0.53739  -0.53714
 Alpha virt. eigenvalues --    0.16418   0.18583   0.20048   0.20182   0.20998
 Alpha virt. eigenvalues --    0.21421   0.33345   0.34615   0.38760   0.39116
 Alpha virt. eigenvalues --    0.40381   0.42875   0.54423   0.55304   0.64004

 Mulliken charges:
               1
     1  O   -0.272107
     2  C    0.536692
     3  O   -0.265572
     4  O   -0.268014
     5  C    0.539560
     6  O   -0.270559
 Sum of Mulliken charges =  -0.00000

 Dipole moment (field-independent basis, Debye):
    X=              0.0610    Y=              0.0882    Z=              0.0000  Tot=              0.1072
 Quadrupole moment (field-independent basis, Debye-Ang):
   XX=            -34.5725   YY=            -34.5236   ZZ=            -29.3890
   XY=             -0.0269   XZ=              0.0000   YZ=              0.0000

 579\CCSD(T)=-376.6553921\RMSD=7.078e-09\PG=CS [SG(C2O4)]\\@
 Normal termination of Gaussian 16 at Sat Feb 10 21:29:18 2024.
