 Gaussian 16, Revision A.03,
 Gaussian 16:  ES64L-G16RevA.03 25-Dec-2016

 ------------------
 #p CCSD(T)/cc-pVTZ
 ------------------

 -----------
 CO2_CO2_123
 -----------
 Symbolic Z-matrix:
 Charge =  0 Multiplicity = 1

                         Standard orientation:
 ---------------------------------------------------------------------
 Center     Atomic      Atomic             Coordinates (Angstroms)
 Number     Number       Type             X           Y           Z
 ---------------------------------------------------------------------
      1          8           0        0.000000    0.000000    3.646000
      2          6           0        0.000000    0.000000    2.483000
      3          8           0        0.000000    0.000000    1.320000
      4          8           0        0.000000    0.000000   -1.320000
      5          6           0        0.000000    0.000000   -2.483000
      6          8           0        0.000000    0.000000   -3.646000
 ---------------------------------------------------------------------

 SCF Done:  E(RHF) =  -375.409543815     A.U. after   10 cycles
 E2 =    -0.1205610341D+01 EUMP2 =    -0.37661515415620D+03
 CCSD(T)
 CCSD(T)= -0.37665278003D+03

 The electronic state is 1-SGG.
 Alpha  occ. eigenvalues --  -20.64464 -20.64464 -20.64276 -20.64276 -11.45323
 Alpha  occ. eigenvalues --  -11.45323  -1.52276  -1.52164  -1.46993  -1.46823
 Alpha  occ. eigenvalues --   -0.80468  -0.78485  -0.74460  -0.71995  -0.70795
 Alpha  occ. eigenvalues --   -0.70795  -0.70598  -0.70598  -0.53880  -0.53880
 Alpha  occ. eigenvalues --   -0.53406  -0.53406
 Alpha virt. eigenvalues --    0.17535   0.18333   0.20649   0.20649   0.21370
 Alpha virt. eigenvalues --    0.21370   0.33271   0.38009   0.39471   0.39471
 Alpha virt. eigenvalues --    0.40265   0.40265   0.54200   0.54920   0.66956

 Mulliken charges:
               1
     1  O   -0.285933
     2  C    0.523499
     3  O   -0.237566
     4  O   -0.237566
     5  C    0.523499
     6  O   -0.285933
 Sum of Mulliken charges =   0.00000

 Dipole moment (field-independent basis, Debye):
    X=             -0.0000    Y=             -0.0000    Z=              0.0000  Tot=              0.0000
 Quadrupole moment (field-independent basis, Debye-Ang):
   XX=            -29.4066   YY=            -29.4066   ZZ=            -40.6134
   XY=              0.0000   XZ=              0.0000   YZ=              0.0000

 3396\CCSD(T)=-376.65278\RMSD=4.940e-09\PG=D*H [C*(O1C1O1.O1C1O1)]\\@
 Normal termination of Gaussian 16 at Sat Feb 10 16:57:14 2024.
