 Gaussian 16, Revision A.03,
 Gaussian 16:  ES64L-G16RevA.03 25-Dec-2016

 ------------------
 #p CCSD(T)/cc-pVTZ
 ------------------

 -----------
 CO2_CO2_183
 -----------
 Symbolic Z-matrix:
 Charge =  0 Multiplicity = 1

                         Standard orientation:
 ---------------------------------------------------------------------
 Center     Atomic      Atomic             Coordinates (Angstroms)
 Number     Number       Type             X           Y           Z
 ---------------------------------------------------------------------
      1          8           0        0.000000    0.000000    4.046000
      2          6           0        0.000000    0.000000    2.883000
      3          8           0        0.000000    0.000000    1.720000
      4          8           0        0.000000    0.000000   -1.720000
      5          6           0        0.000000    0.000000   -2.883000
      6          8           0        0.000000    0.000000   -4.046000
 ---------------------------------------------------------------------

 SCF Done:  E(RHF) =  -375.412554753     A.U. after   10 cycles
 E2 =    -0.1204040779D+01 EUMP2 =    -0.37661659553213D+03
 CCSD(T)
 CCSD(T)= -0.37665442051D+03

 The electronic state is 1-SGG.
 Alpha  occ. eigenvalues --  -20.64673 -20.64673 -20.64620 -20.64620 -11.45607
 Alpha  occ. eigenvalues --  -11.45607  -1.52449  -1.52438  -1.47148  -1.47130
 Alpha  occ. eigenvalues --   -0.79696  -0.79349  -0.73905  -0.73465  -0.70936
 Alpha  occ. eigenvalues --   -0.70936  -0.70906  -0.70906  -0.53920  -0.53920
 Alpha  occ. eigenvalues --   -0.53844  -0.53844
 Alpha virt. eigenvalues --    0.17424   0.18023   0.20742   0.20742   0.20899
 Alpha virt. eigenvalues --    0.20899   0.32207   0.36755   0.39701   0.39701
 Alpha virt. eigenvalues --    0.39860   0.39860   0.54845   0.55241   0.58559

 Mulliken charges:
               1
     1  O   -0.274082
     2  C    0.533833
     3  O   -0.259751
     4  O   -0.259751
     5  C    0.533833
     6  O   -0.274082
 Sum of Mulliken charges =  -0.00000

 Dipole moment (field-independent basis, Debye):
    X=             -0.0000    Y=             -0.0000    Z=              0.0000  Tot=              0.0000
 Quadrupole moment (field-independent basis, Debye-Ang):
   XX=            -29.3952   YY=            -29.3952   ZZ=            -40.2199
   XY=              0.0000   XZ=              0.0000   YZ=              0.0000

 1887\CCSD(T)=-376.6544205\RMSD=4.610e-09\PG=D*H [C*(O1C1O1.O1C1O1)]\\@
 Normal termination of Gaussian 16 at Sat Feb 10 21:46:32 2024.
