 Gaussian 16, Revision A.03,
 Gaussian 16:  ES64L-G16RevA.03 25-Dec-2016

 ------------------
 #p CCSD(T)/cc-pVTZ
 ------------------

 -----------
 CO2_CO2_301
 -----------
 Symbolic Z-matrix:
 Charge =  0 Multiplicity = 1

                         Standard orientation:
 ---------------------------------------------------------------------
 Center     Atomic      Atomic             Coordinates (Angstroms)
 Number     Number       Type             X           Y           Z
 ---------------------------------------------------------------------
      1          8           0        1.233548   -4.315048   -0.000000
      2          6           0        0.411183   -3.492683   -0.000000
      3          8           0       -0.411183   -2.670317   -0.000000
      4          8           0       -0.411183    2.329683    0.000000
      5          6           0       -0.411183    3.492683    0.000000
      6          8           0       -0.411183    4.655682    0.000000
 ---------------------------------------------------------------------

 SCF Done:  E(RHF) =  -375.413028402     A.U. after   10 cycles
 E2 =    -0.1203386964D+01 EUMP2 =    -0.37661641536546D+03
 CCSD(T)
 CCSD(T)= -0.37665433405D+03

 The electronic state is 1-A'.
 Alpha  occ. eigenvalues --  -20.64915 -20.64903 -20.64828 -20.64807 -11.45885
 Alpha  occ. eigenvalues --  -11.45793  -1.52702  -1.52610  -1.47402  -1.47310
 Alpha  occ. eigenvalues --   -0.79806  -0.79715  -0.73990  -0.73899  -0.71177
 Alpha  occ. eigenvalues --   -0.71177  -0.71086  -0.71084  -0.54151  -0.54151
 Alpha  occ. eigenvalues --   -0.54059  -0.54057
 Alpha virt. eigenvalues --    0.17508   0.17648   0.20578   0.20578   0.20667
 Alpha virt. eigenvalues --    0.20672   0.33810   0.34716   0.39579   0.39579
 Alpha virt. eigenvalues --    0.39666   0.39680   0.54812   0.54919   0.65745

 Mulliken charges:
               1
     1  O   -0.269666
     2  C    0.535955
     3  O   -0.266288
     4  O   -0.266942
     5  C    0.535972
     6  O   -0.269032
 Sum of Mulliken charges =  -0.00000

 Dipole moment (field-independent basis, Debye):
    X=             -0.0129    Y=              0.0052    Z=              0.0000  Tot=              0.0139
 Quadrupole moment (field-independent basis, Debye-Ang):
   XX=            -31.9681   YY=            -37.2875   ZZ=            -29.3899
   XY=              2.5993   XZ=              0.0000   YZ=             -0.0000

 Q=-376.6053631\CCSD=-376.5971929\CCSD(T)=-376.654334\RMSD=5.369e-09\PG
 Normal termination of Gaussian 16 at Mon Feb 12 23:12:07 2024.
