 Gaussian 16, Revision A.03,
 Gaussian 16:  ES64L-G16RevA.03 25-Dec-2016

 ------------------
 #p CCSD(T)/cc-pVTZ
 ------------------

 -----------
 CO2_CO2_283
 -----------
 Symbolic Z-matrix:
 Charge =  0 Multiplicity = 1

                         Standard orientation:
 ---------------------------------------------------------------------
 Center     Atomic      Atomic             Coordinates (Angstroms)
 Number     Number       Type             X           Y           Z
 ---------------------------------------------------------------------
      1          8           0        1.233548   -4.195048   -0.000000
      2          6           0        0.411183   -3.372683   -0.000000
      3          8           0       -0.411183   -2.550317   -0.000000
      4          8           0       -0.411183    2.209682    0.000000
      5          6           0       -0.411183    3.372682    0.000000
      6          8           0       -0.411183    4.535683    0.000000
 ---------------------------------------------------------------------

 SCF Done:  E(RHF) =  -375.413009453     A.U. after   10 cycles
 E2 =    -0.1203417383D+01 EUMP2 =    -0.37661642683567D+03
 CCSD(T)
 CCSD(T)= -0.37665434045D+03

 The electronic state is 1-A'.
 Alpha  occ. eigenvalues --  -20.64906 -20.64893 -20.64811 -20.64787 -11.45874
 Alpha  occ. eigenvalues --  -11.45774  -1.52693  -1.52592  -1.47392  -1.47291
 Alpha  occ. eigenvalues --   -0.79795  -0.79696  -0.73979  -0.73879  -0.71168
 Alpha  occ. eigenvalues --   -0.71168  -0.71068  -0.71065  -0.54140  -0.54140
 Alpha  occ. eigenvalues --   -0.54041  -0.54037
 Alpha virt. eigenvalues --    0.17484   0.17688   0.20587   0.20587   0.20685
 Alpha virt. eigenvalues --    0.20690   0.33549   0.34978   0.39584   0.39586
 Alpha virt. eigenvalues --    0.39682   0.39702   0.54813   0.54941   0.65497

 Mulliken charges:
               1
     1  O   -0.269851
     2  C    0.535814
     3  O   -0.265959
     4  O   -0.266694
     5  C    0.535832
     6  O   -0.269141
 Sum of Mulliken charges =  -0.00000

 Dipole moment (field-independent basis, Debye):
    X=             -0.0149    Y=              0.0057    Z=             -0.0000  Tot=              0.0159
 Quadrupole moment (field-independent basis, Debye-Ang):
   XX=            -31.9690   YY=            -37.3071   ZZ=            -29.3902
   XY=              2.6026   XZ=             -0.0000   YZ=             -0.0000

 Q=-376.6053683\CCSD=-376.5971951\CCSD(T)=-376.6543404\RMSD=6.151e-09\P
 Normal termination of Gaussian 16 at Mon Feb 12 22:05:44 2024.
