 Gaussian 16, Revision A.03,
 Gaussian 16:  ES64L-G16RevA.03 25-Dec-2016

 ------------------
 #p CCSD(T)/cc-pVTZ
 ------------------

 -----------
 CO2_CO2_296
 -----------
 Symbolic Z-matrix:
 Charge =  0 Multiplicity = 1

                         Standard orientation:
 ---------------------------------------------------------------------
 Center     Atomic      Atomic             Coordinates (Angstroms)
 Number     Number       Type             X           Y           Z
 ---------------------------------------------------------------------
      1          8           0       -1.744500   -3.041500    0.000000
      2          6           0       -0.581500   -3.041500    0.000000
      3          8           0        0.581500   -3.041500    0.000000
      4          8           0        0.581500    1.878500    0.000000
      5          6           0        0.581500    3.041500    0.000000
      6          8           0        0.581500    4.204500    0.000000
 ---------------------------------------------------------------------

 SCF Done:  E(RHF) =  -375.413290672     A.U. after   10 cycles
 E2 =    -0.1203313127D+01 EUMP2 =    -0.37661660379959D+03
 CCSD(T)
 CCSD(T)= -0.37665454309D+03

 The electronic state is 1-A'.
 Alpha  occ. eigenvalues --  -20.65122 -20.65104 -20.64775 -20.64759 -11.46097
 Alpha  occ. eigenvalues --  -11.45751  -1.52905  -1.52559  -1.47607  -1.47261
 Alpha  occ. eigenvalues --   -0.80024  -0.79677  -0.74211  -0.73863  -0.71379
 Alpha  occ. eigenvalues --   -0.71378  -0.71037  -0.71028  -0.54359  -0.54358
 Alpha  occ. eigenvalues --   -0.54016  -0.54010
 Alpha virt. eigenvalues --    0.17208   0.17791   0.20381   0.20383   0.20718
 Alpha virt. eigenvalues --    0.20731   0.33527   0.34619   0.39395   0.39401
 Alpha virt. eigenvalues --    0.39726   0.39954   0.54577   0.54968   0.65794

 Mulliken charges:
               1
     1  O   -0.269844
     2  C    0.537672
     3  O   -0.267854
     4  O   -0.270380
     5  C    0.537754
     6  O   -0.267347
 Sum of Mulliken charges =  -0.00000

 Dipole moment (field-independent basis, Debye):
    X=              0.0156    Y=              0.0290    Z=              0.0000  Tot=              0.0329
 Quadrupole moment (field-independent basis, Debye-Ang):
   XX=            -34.5503   YY=            -34.5209   ZZ=            -29.3885
   XY=             -0.0141   XZ=              0.0000   YZ=              0.0000

 4107\CCSD(T)=-376.6545431\RMSD=4.504e-09\PG=CS [SG(C2O4)]\\@
 Normal termination of Gaussian 16 at Mon Feb 12 22:53:27 2024.
