 Gaussian 16, Revision A.03,
 Gaussian 16:  ES64L-G16RevA.03 25-Dec-2016

 ------------------
 #p CCSD(T)/cc-pVTZ
 ------------------

 ----------
 CO2_CO2_67
 ----------
 Symbolic Z-matrix:
 Charge =  0 Multiplicity = 1

                         Standard orientation:
 ---------------------------------------------------------------------
 Center     Atomic      Atomic             Coordinates (Angstroms)
 Number     Number       Type             X           Y           Z
 ---------------------------------------------------------------------
      1          8           0        1.233548   -2.755048    0.000000
      2          6           0        0.411183   -1.932683    0.000000
      3          8           0       -0.411183   -1.110317    0.000000
      4          8           0       -0.411183    0.769683   -0.000000
      5          6           0       -0.411183    1.932683   -0.000000
      6          8           0       -0.411183    3.095682   -0.000000
 ---------------------------------------------------------------------

 SCF Done:  E(RHF) =  -375.352350808     A.U. after   13 cycles
 E2 =    -0.1214937834D+01 EUMP2 =    -0.37656728864218D+03
 CCSD(T)
 CCSD(T)= -0.37660319857D+03

 The electronic state is 1-A'.
 Alpha  occ. eigenvalues --  -20.64348 -20.63641 -20.63165 -20.62763 -11.44797
 Alpha  occ. eigenvalues --  -11.44216  -1.52697  -1.51306  -1.47388  -1.45700
 Alpha  occ. eigenvalues --   -0.86419  -0.77185  -0.75446  -0.71635  -0.71133
 Alpha  occ. eigenvalues --   -0.69949  -0.69620  -0.65307  -0.54722  -0.53901
 Alpha  occ. eigenvalues --   -0.51881  -0.51025
 Alpha virt. eigenvalues --    0.16714   0.19545   0.20160   0.20781   0.21880
 Alpha virt. eigenvalues --    0.22413   0.34042   0.36326   0.38143   0.39101
 Alpha virt. eigenvalues --    0.41747   0.44918   0.53813   0.56848   0.66474

 Mulliken charges:
               1
     1  O   -0.291104
     2  C    0.521343
     3  O   -0.235986
     4  O   -0.216744
     5  C    0.523001
     6  O   -0.300510
 Sum of Mulliken charges =  -0.00000

 Dipole moment (field-independent basis, Debye):
    X=             -0.1799    Y=              0.1385    Z=             -0.0000  Tot=              0.2270
 Quadrupole moment (field-independent basis, Debye-Ang):
   XX=            -32.0839   YY=            -38.9459   ZZ=            -29.3840
   XY=              2.9022   XZ=             -0.0000   YZ=              0.0000

 =-376.5537788\CCSD=-376.5446527\CCSD(T)=-376.6031986\RMSD=4.521e-09\PG
 Normal termination of Gaussian 16 at Sat Feb 10 00:38:28 2024.
