 Gaussian 16, Revision A.03,
 Gaussian 16:  ES64L-G16RevA.03 25-Dec-2016

 ------------------
 #p CCSD(T)/cc-pVTZ
 ------------------

 -----------
 CO2_CO2_147
 -----------
 Symbolic Z-matrix:
 Charge =  0 Multiplicity = 1

                         Standard orientation:
 ---------------------------------------------------------------------
 Center     Atomic      Atomic             Coordinates (Angstroms)
 Number     Number       Type             X           Y           Z
 ---------------------------------------------------------------------
      1          8           0        0.000000    0.000000    3.806000
      2          6           0        0.000000    0.000000    2.643000
      3          8           0        0.000000    0.000000    1.480000
      4          8           0        0.000000    0.000000   -1.480000
      5          6           0        0.000000    0.000000   -2.643000
      6          8           0        0.000000    0.000000   -3.806000
 ---------------------------------------------------------------------

 SCF Done:  E(RHF) =  -375.411698824     A.U. after   10 cycles
 E2 =    -0.1204730207D+01 EUMP2 =    -0.37661642903111D+03
 CCSD(T)
 CCSD(T)= -0.37665417577D+03

 The electronic state is 1-SGG.
 Alpha  occ. eigenvalues --  -20.64568 -20.64568 -20.64467 -20.64467 -11.45471
 Alpha  occ. eigenvalues --  -11.45471  -1.52352  -1.52308  -1.47056  -1.46988
 Alpha  occ. eigenvalues --   -0.79939  -0.78945  -0.74129  -0.72877  -0.70854
 Alpha  occ. eigenvalues --   -0.70854  -0.70762  -0.70762  -0.53875  -0.53875
 Alpha  occ. eigenvalues --   -0.53647  -0.53647
 Alpha virt. eigenvalues --    0.17550   0.18157   0.20713   0.20713   0.21123
 Alpha virt. eigenvalues --    0.21123   0.32990   0.37366   0.39620   0.39620
 Alpha virt. eigenvalues --    0.40054   0.40054   0.54732   0.54753   0.61329

 Mulliken charges:
               1
     1  O   -0.280258
     2  C    0.529517
     3  O   -0.249260
     4  O   -0.249260
     5  C    0.529517
     6  O   -0.280258
 Sum of Mulliken charges =   0.00000

 Dipole moment (field-independent basis, Debye):
    X=             -0.0000    Y=              0.0000    Z=              0.0000  Tot=              0.0000
 Quadrupole moment (field-independent basis, Debye-Ang):
   XX=            -29.4003   YY=            -29.4003   ZZ=            -40.4130
   XY=              0.0000   XZ=              0.0000   YZ=              0.0000

 494\CCSD(T)=-376.6541758\RMSD=4.597e-09\PG=D*H [C*(O1C1O1.O1C1O1)]\\@
 Normal termination of Gaussian 16 at Sat Feb 10 18:52:25 2024.
