 Gaussian 16, Revision A.03,
 Gaussian 16:  ES64L-G16RevA.03 25-Dec-2016

 ------------------
 #p CCSD(T)/cc-pVTZ
 ------------------

 ----------
 CO2_CO2_64
 ----------
 Symbolic Z-matrix:
 Charge =  0 Multiplicity = 1

                         Standard orientation:
 ---------------------------------------------------------------------
 Center     Atomic      Atomic             Coordinates (Angstroms)
 Number     Number       Type             X           Y           Z
 ---------------------------------------------------------------------
      1          8           0        1.233548   -2.735048    0.000000
      2          6           0        0.411183   -1.912683    0.000000
      3          8           0       -0.411183   -1.090317    0.000000
      4          8           0       -0.411183    0.749682   -0.000000
      5          6           0       -0.411183    1.912683   -0.000000
      6          8           0       -0.411183    3.075683   -0.000000
 ---------------------------------------------------------------------

 SCF Done:  E(RHF) =  -375.342609555     A.U. after   13 cycles
 E2 =    -0.1216198890D+01 EUMP2 =    -0.37655880844515D+03
 CCSD(T)
 CCSD(T)= -0.37659445949D+03

 The electronic state is 1-A'.
 Alpha  occ. eigenvalues --  -20.64325 -20.63559 -20.63029 -20.62635 -11.44720
 Alpha  occ. eigenvalues --  -11.44096  -1.52798  -1.51229  -1.47441  -1.45581
 Alpha  occ. eigenvalues --   -0.87184  -0.77099  -0.75456  -0.71702  -0.71193
 Alpha  occ. eigenvalues --   -0.69847  -0.69523  -0.64686  -0.54834  -0.53883
 Alpha  occ. eigenvalues --   -0.51721  -0.50653
 Alpha virt. eigenvalues --    0.16680   0.19609   0.20097   0.20759   0.21969
 Alpha virt. eigenvalues --    0.22525   0.34072   0.36318   0.38089   0.39100
 Alpha virt. eigenvalues --    0.41847   0.45083   0.53823   0.57000   0.66715

 Mulliken charges:
               1
     1  O   -0.292395
     2  C    0.519778
     3  O   -0.233612
     4  O   -0.215658
     5  C    0.523634
     6  O   -0.301748
 Sum of Mulliken charges =  -0.00000

 Dipole moment (field-independent basis, Debye):
    X=             -0.1910    Y=              0.1546    Z=             -0.0000  Tot=              0.2457
 Quadrupole moment (field-independent basis, Debye-Ang):
   XX=            -32.0908   YY=            -39.0521   ZZ=            -29.3776
   XY=              2.9232   XZ=             -0.0000   YZ=              0.0000

 =-376.5450185\CCSD=-376.5357719\CCSD(T)=-376.5944595\RMSD=5.028e-09\PG
 Normal termination of Gaussian 16 at Sat Feb 10 00:23:43 2024.
