 Gaussian 16, Revision A.03,
 Gaussian 16:  ES64L-G16RevA.03 25-Dec-2016

 ------------------
 #p CCSD(T)/cc-pVTZ
 ------------------

 -----------
 CO2_CO2_228
 -----------
 Symbolic Z-matrix:
 Charge =  0 Multiplicity = 1

                         Standard orientation:
 ---------------------------------------------------------------------
 Center     Atomic      Atomic             Coordinates (Angstroms)
 Number     Number       Type             X           Y           Z
 ---------------------------------------------------------------------
      1          8           0        0.000000    0.000000    4.346000
      2          6           0        0.000000    0.000000    3.183000
      3          8           0        0.000000    0.000000    2.020000
      4          8           0        0.000000    0.000000   -2.020000
      5          6           0        0.000000    0.000000   -3.183000
      6          8           0        0.000000    0.000000   -4.346000
 ---------------------------------------------------------------------

 SCF Done:  E(RHF) =  -375.412822708     A.U. after   10 cycles
 E2 =    -0.1203640307D+01 EUMP2 =    -0.37661646301453D+03
 CCSD(T)
 CCSD(T)= -0.37665433789D+03

 The electronic state is 1-SGG.
 Alpha  occ. eigenvalues --  -20.64757 -20.64757 -20.64723 -20.64723 -11.45708
 Alpha  occ. eigenvalues --  -11.45708  -1.52535  -1.52533  -1.47233  -1.47230
 Alpha  occ. eigenvalues --   -0.79667  -0.79578  -0.73859  -0.73743  -0.71014
 Alpha  occ. eigenvalues --   -0.71014  -0.71007  -0.71007  -0.53986  -0.53986
 Alpha  occ. eigenvalues --   -0.53969  -0.53969
 Alpha virt. eigenvalues --    0.17411   0.17882   0.20721   0.20721   0.20757
 Alpha virt. eigenvalues --    0.20757   0.32580   0.35938   0.39699   0.39699
 Alpha virt. eigenvalues --    0.39739   0.39739   0.54956   0.54967   0.61773

 Mulliken charges:
               1
     1  O   -0.270775
     2  C    0.534676
     3  O   -0.263902
     4  O   -0.263902
     5  C    0.534676
     6  O   -0.270775
 Sum of Mulliken charges =   0.00000

 Dipole moment (field-independent basis, Debye):
    X=             -0.0000    Y=             -0.0000    Z=             -0.0000  Tot=              0.0000
 Quadrupole moment (field-independent basis, Debye-Ang):
   XX=            -29.3925   YY=            -29.3925   ZZ=            -40.0792
   XY=              0.0000   XZ=              0.0000   YZ=             -0.0000

 1624\CCSD(T)=-376.6543379\RMSD=4.696e-09\PG=D*H [C*(O1C1O1.O1C1O1)]\\@
 Normal termination of Gaussian 16 at Mon Feb 12 18:41:43 2024.
