 Gaussian 16, Revision A.03,
 Gaussian 16:  ES64L-G16RevA.03 25-Dec-2016

 ------------------
 #p CCSD(T)/cc-pVTZ
 ------------------

 -----------
 CO2_CO2_233
 -----------
 Symbolic Z-matrix:
 Charge =  0 Multiplicity = 1

                         Standard orientation:
 ---------------------------------------------------------------------
 Center     Atomic      Atomic             Coordinates (Angstroms)
 Number     Number       Type             X           Y           Z
 ---------------------------------------------------------------------
      1          8           0       -1.744500   -2.621500    0.000000
      2          6           0       -0.581500   -2.621500    0.000000
      3          8           0        0.581500   -2.621500    0.000000
      4          8           0        0.581500    1.458500    0.000000
      5          6           0        0.581500    2.621500    0.000000
      6          8           0        0.581500    3.784500    0.000000
 ---------------------------------------------------------------------

 SCF Done:  E(RHF) =  -375.413464755     A.U. after   10 cycles
 E2 =    -0.1203468929D+01 EUMP2 =    -0.37661693368385D+03
 CCSD(T)
 CCSD(T)= -0.37665486067D+03

 The electronic state is 1-A'.
 Alpha  occ. eigenvalues --  -20.65206 -20.65173 -20.64673 -20.64639 -11.46176
 Alpha  occ. eigenvalues --  -11.45642  -1.52978  -1.52447  -1.47681  -1.47149
 Alpha  occ. eigenvalues --   -0.80104  -0.79570  -0.74293  -0.73757  -0.71452
 Alpha  occ. eigenvalues --   -0.71450  -0.70928  -0.70906  -0.54435  -0.54434
 Alpha  occ. eigenvalues --   -0.53908  -0.53897
 Alpha virt. eigenvalues --    0.16646   0.18135   0.20263   0.20305   0.20828
 Alpha virt. eigenvalues --    0.20912   0.32585   0.34833   0.39257   0.39268
 Alpha virt. eigenvalues --    0.39892   0.40966   0.54471   0.54764   0.65565

 Mulliken charges:
               1
     1  O   -0.270956
     2  C    0.538048
     3  O   -0.267355
     4  O   -0.271092
     5  C    0.538925
     6  O   -0.267570
 Sum of Mulliken charges =  -0.00000

 Dipole moment (field-independent basis, Debye):
    X=              0.0307    Y=              0.0514    Z=              0.0000  Tot=              0.0599
 Quadrupole moment (field-independent basis, Debye-Ang):
   XX=            -34.5594   YY=            -34.5091   ZZ=            -29.3886
   XY=             -0.0181   XZ=              0.0000   YZ=              0.0000

 053\CCSD(T)=-376.6548607\RMSD=4.873e-09\PG=CS [SG(C2O4)]\\@
 Normal termination of Gaussian 16 at Mon Feb 12 19:01:56 2024.
