 Gaussian 16, Revision A.03,
 Gaussian 16:  ES64L-G16RevA.03 25-Dec-2016

 ------------------
 #p CCSD(T)/cc-pVTZ
 ------------------

 ----------
 CO2_CO2_82
 ----------
 Symbolic Z-matrix:
 Charge =  0 Multiplicity = 1

                         Standard orientation:
 ---------------------------------------------------------------------
 Center     Atomic      Atomic             Coordinates (Angstroms)
 Number     Number       Type             X           Y           Z
 ---------------------------------------------------------------------
      1          8           0        1.233548   -2.855048   -0.000000
      2          6           0        0.411183   -2.032682   -0.000000
      3          8           0       -0.411183   -1.210317   -0.000000
      4          8           0       -0.411183    0.869683    0.000000
      5          6           0       -0.411183    2.032682    0.000000
      6          8           0       -0.411183    3.195682    0.000000
 ---------------------------------------------------------------------

 SCF Done:  E(RHF) =  -375.384332102     A.U. after   11 cycles
 E2 =    -0.1210496858D+01 EUMP2 =    -0.37659482895999D+03
 CCSD(T)
 CCSD(T)= -0.37663162627D+03

 The electronic state is 1-A'.
 Alpha  occ. eigenvalues --  -20.64460 -20.63956 -20.63739 -20.63339 -11.45111
 Alpha  occ. eigenvalues --  -11.44669  -1.52454  -1.51637  -1.47210  -1.46177
 Alpha  occ. eigenvalues --   -0.83520  -0.77624  -0.75284  -0.71506  -0.70970
 Alpha  occ. eigenvalues --   -0.70390  -0.70016  -0.67861  -0.54338  -0.53934
 Alpha  occ. eigenvalues --   -0.52528  -0.52236
 Alpha virt. eigenvalues --    0.16838   0.19240   0.20385   0.20843   0.21533
 Alpha virt. eigenvalues --    0.21947   0.33819   0.36432   0.38419   0.39126
 Alpha virt. eigenvalues --    0.41304   0.44105   0.53799   0.56243   0.65439

 Mulliken charges:
               1
     1  O   -0.286144
     2  C    0.526242
     3  O   -0.243500
     4  O   -0.221669
     5  C    0.520115
     6  O   -0.295044
 Sum of Mulliken charges =  -0.00000

 Dipole moment (field-independent basis, Debye):
    X=             -0.1367    Y=              0.0842    Z=             -0.0000  Tot=              0.1606
 Quadrupole moment (field-independent basis, Debye-Ang):
   XX=            -32.0553   YY=            -38.5146   ZZ=            -29.4031
   XY=              2.8184   XZ=              0.0000   YZ=             -0.0000

 -376.5823054\CCSD=-376.5735805\CCSD(T)=-376.6316263\RMSD=5.070e-09\PG=
 Normal termination of Gaussian 16 at Sat Feb 10 01:54:22 2024.
