 Gaussian 16, Revision A.03,
 Gaussian 16:  ES64L-G16RevA.03 25-Dec-2016

 ------------------
 #p CCSD(T)/cc-pVTZ
 ------------------

 ----------
 CO2_CO2_98
 ----------
 Symbolic Z-matrix:
 Charge =  0 Multiplicity = 1

                         Standard orientation:
 ---------------------------------------------------------------------
 Center     Atomic      Atomic             Coordinates (Angstroms)
 Number     Number       Type             X           Y           Z
 ---------------------------------------------------------------------
      1          8           0       -1.744500   -1.721500    0.000000
      2          6           0       -0.581500   -1.721500    0.000000
      3          8           0        0.581500   -1.721500    0.000000
      4          8           0        0.581500    0.558500    0.000000
      5          6           0        0.581500    1.721500    0.000000
      6          8           0        0.581500    2.884500    0.000000
 ---------------------------------------------------------------------

 SCF Done:  E(RHF) =  -375.397262297     A.U. after   13 cycles
 E2 =    -0.1208706098D+01 EUMP2 =    -0.37660596839528D+03
 CCSD(T)
 CCSD(T)= -0.37664338861D+03

 The electronic state is 1-A'.
 Alpha  occ. eigenvalues --  -20.65518 -20.65179 -20.64009 -20.63178 -11.46411
 Alpha  occ. eigenvalues --  -11.44727  -1.53455  -1.51635  -1.48106  -1.46256
 Alpha  occ. eigenvalues --   -0.81745  -0.78808  -0.75898  -0.72985  -0.71921
 Alpha  occ. eigenvalues --   -0.71690  -0.70054  -0.68355  -0.54972  -0.54826
 Alpha  occ. eigenvalues --   -0.52915  -0.52574
 Alpha virt. eigenvalues --    0.16009   0.19222   0.19916   0.20108   0.21471
 Alpha virt. eigenvalues --    0.23098   0.34178   0.35568   0.37196   0.39695
 Alpha virt. eigenvalues --    0.42493   0.47456   0.53031   0.58038   0.66595

 Mulliken charges:
               1
     1  O   -0.282265
     2  C    0.537072
     3  O   -0.263046
     4  O   -0.243190
     5  C    0.533141
     6  O   -0.281712
 Sum of Mulliken charges =  -0.00000

 Dipole moment (field-independent basis, Debye):
    X=              0.2135    Y=              0.2359    Z=              0.0000  Tot=              0.3182
 Quadrupole moment (field-independent basis, Debye-Ang):
   XX=            -34.6284   YY=            -34.9430   ZZ=            -29.3921
   XY=             -0.0843   XZ=              0.0000   YZ=              0.0000

 76\CCSD(T)=-376.6433886\RMSD=3.379e-09\PG=CS [SG(C2O4)]\\@
 Normal termination of Gaussian 16 at Sat Feb 10 03:14:28 2024.
