 Gaussian 16, Revision A.03,
 Gaussian 16:  ES64L-G16RevA.03 25-Dec-2016

 ------------------
 #p CCSD(T)/cc-pVTZ
 ------------------

 -----------
 CO2_CO2_152
 -----------
 Symbolic Z-matrix:
 Charge =  0 Multiplicity = 1

                         Standard orientation:
 ---------------------------------------------------------------------
 Center     Atomic      Atomic             Coordinates (Angstroms)
 Number     Number       Type             X           Y           Z
 ---------------------------------------------------------------------
      1          8           0       -1.744500   -2.081500    0.000000
      2          6           0       -0.581500   -2.081500    0.000000
      3          8           0        0.581500   -2.081500    0.000000
      4          8           0        0.581500    0.918500    0.000000
      5          6           0        0.581500    2.081500    0.000000
      6          8           0        0.581500    3.244500    0.000000
 ---------------------------------------------------------------------

 SCF Done:  E(RHF) =  -375.412899487     A.U. after   11 cycles
 E2 =    -0.1204605424D+01 EUMP2 =    -0.37661750491066D+03
 CCSD(T)
 CCSD(T)= -0.37665536461D+03

 The electronic state is 1-A'.
 Alpha  occ. eigenvalues --  -20.65369 -20.65341 -20.64402 -20.64230 -11.46352
 Alpha  occ. eigenvalues --  -11.45320  -1.53161  -1.52125  -1.47864  -1.46824
 Alpha  occ. eigenvalues --   -0.80381  -0.79265  -0.74654  -0.73429  -0.71634
 Alpha  occ. eigenvalues --   -0.71632  -0.70614  -0.70394  -0.54628  -0.54624
 Alpha  occ. eigenvalues --   -0.53589  -0.53550
 Alpha virt. eigenvalues --    0.16384   0.18952   0.19873   0.20099   0.21124
 Alpha virt. eigenvalues --    0.21838   0.34322   0.34487   0.38301   0.39140
 Alpha virt. eigenvalues --    0.40879   0.44508   0.54197   0.56296   0.64068

 Mulliken charges:
               1
     1  O   -0.273690
     2  C    0.535827
     3  O   -0.264245
     4  O   -0.263406
     5  C    0.539014
     6  O   -0.273501
 Sum of Mulliken charges =  -0.00000

 Dipole moment (field-independent basis, Debye):
    X=              0.0913    Y=              0.1200    Z=              0.0000  Tot=              0.1508
 Quadrupole moment (field-independent basis, Debye-Ang):
   XX=            -34.5856   YY=            -34.5745   ZZ=            -29.3906
   XY=             -0.0385   XZ=              0.0000   YZ=              0.0000

 \CCSD(T)=-376.6553646\RMSD=9.656e-09\PG=CS [SG(C2O4)]\\@
 Normal termination of Gaussian 16 at Sat Feb 10 19:19:56 2024.
