 Gaussian 16, Revision A.03,
 Gaussian 16:  ES64L-G16RevA.03 25-Dec-2016

 ------------------
 #p CCSD(T)/cc-pVTZ
 ------------------

 ----------
 CO2_CO2_84
 ----------
 Symbolic Z-matrix:
 Charge =  0 Multiplicity = 1

                         Standard orientation:
 ---------------------------------------------------------------------
 Center     Atomic      Atomic             Coordinates (Angstroms)
 Number     Number       Type             X           Y           Z
 ---------------------------------------------------------------------
      1          8           0        0.000000    0.000000    3.386000
      2          6           0        0.000000    0.000000    2.223000
      3          8           0        0.000000    0.000000    1.060000
      4          8           0        0.000000    0.000000   -1.060000
      5          6           0        0.000000    0.000000   -2.223000
      6          8           0        0.000000    0.000000   -3.386000
 ---------------------------------------------------------------------

 SCF Done:  E(RHF) =  -375.389647365     A.U. after   10 cycles
 E2 =    -0.1209215681D+01 EUMP2 =    -0.37659886304699D+03
 CCSD(T)
 CCSD(T)= -0.37663585020D+03

 The electronic state is 1-SGG.
 Alpha  occ. eigenvalues --  -20.64172 -20.64172 -20.63482 -20.63481 -11.44821
 Alpha  occ. eigenvalues --  -11.44821  -1.52199  -1.51690  -1.46982  -1.46237
 Alpha  occ. eigenvalues --   -0.83526  -0.77412  -0.75183  -0.70747  -0.70747
 Alpha  occ. eigenvalues --   -0.70053  -0.70053  -0.67997  -0.54112  -0.54112
 Alpha  occ. eigenvalues --   -0.52550  -0.52550
 Alpha virt. eigenvalues --    0.17327   0.18848   0.20400   0.20400   0.22127
 Alpha virt. eigenvalues --    0.22127   0.32901   0.39000   0.39000   0.39232
 Alpha virt. eigenvalues --    0.40839   0.40839   0.53415   0.55991   0.67647

 Mulliken charges:
               1
     1  O   -0.298028
     2  C    0.514803
     3  O   -0.216774
     4  O   -0.216774
     5  C    0.514803
     6  O   -0.298028
 Sum of Mulliken charges =   0.00000

 Dipole moment (field-independent basis, Debye):
    X=             -0.0000    Y=              0.0000    Z=              0.0000  Tot=              0.0000
 Quadrupole moment (field-independent basis, Debye-Ang):
   XX=            -29.4104   YY=            -29.4104   ZZ=            -41.2041
   XY=              0.0000   XZ=              0.0000   YZ=              0.0000

 72\CCSD(T)=-376.6358502\RMSD=6.343e-09\PG=D*H [C*(O1C1O1.O1C1O1)]\\@
 Normal termination of Gaussian 16 at Sat Feb 10 02:03:32 2024.
