 Gaussian 16, Revision A.03,
 Gaussian 16:  ES64L-G16RevA.03 25-Dec-2016

 ------------------
 #p CCSD(T)/cc-pVTZ
 ------------------

 -----------
 CO2_CO2_245
 -----------
 Symbolic Z-matrix:
 Charge =  0 Multiplicity = 1

                         Standard orientation:
 ---------------------------------------------------------------------
 Center     Atomic      Atomic             Coordinates (Angstroms)
 Number     Number       Type             X           Y           Z
 ---------------------------------------------------------------------
      1          8           0       -1.744500   -2.701500    0.000000
      2          6           0       -0.581500   -2.701500    0.000000
      3          8           0        0.581500   -2.701500    0.000000
      4          8           0        0.581500    1.538500    0.000000
      5          6           0        0.581500    2.701500    0.000000
      6          8           0        0.581500    3.864500    0.000000
 ---------------------------------------------------------------------

 SCF Done:  E(RHF) =  -375.413421857     A.U. after   10 cycles
 E2 =    -0.1203418888D+01 EUMP2 =    -0.37661684074477D+03
 CCSD(T)
 CCSD(T)= -0.37665477153D+03

 The electronic state is 1-A'.
 Alpha  occ. eigenvalues --  -20.65186 -20.65156 -20.64697 -20.64668 -11.46157
 Alpha  occ. eigenvalues --  -11.45668  -1.52961  -1.52473  -1.47663  -1.47176
 Alpha  occ. eigenvalues --   -0.80085  -0.79595  -0.74273  -0.73782  -0.71434
 Alpha  occ. eigenvalues --   -0.71433  -0.70954  -0.70936  -0.54417  -0.54416
 Alpha  occ. eigenvalues --   -0.53934  -0.53924
 Alpha virt. eigenvalues --    0.16762   0.18060   0.20295   0.20324   0.20801
 Alpha virt. eigenvalues --    0.20851   0.32706   0.34833   0.39300   0.39306
 Alpha virt. eigenvalues --    0.39841   0.40693   0.54465   0.54828   0.65681

 Mulliken charges:
               1
     1  O   -0.270729
     2  C    0.538052
     3  O   -0.267510
     4  O   -0.271096
     5  C    0.538644
     6  O   -0.267360
 Sum of Mulliken charges =  -0.00000

 Dipole moment (field-independent basis, Debye):
    X=              0.0269    Y=              0.0459    Z=              0.0000  Tot=              0.0532
 Quadrupole moment (field-independent basis, Debye-Ang):
   XX=            -34.5574   YY=            -34.5114   ZZ=            -29.3886
   XY=             -0.0174   XZ=              0.0000   YZ=              0.0000

 6235\CCSD(T)=-376.6547715\RMSD=4.693e-09\PG=CS [SG(C2O4)]\\@
 Normal termination of Gaussian 16 at Mon Feb 12 19:45:51 2024.
