 Gaussian 16, Revision A.03,
 Gaussian 16:  ES64L-G16RevA.03 25-Dec-2016

 ------------------
 #p CCSD(T)/cc-pVTZ
 ------------------

 -----------
 CO2_CO2_261
 -----------
 Symbolic Z-matrix:
 Charge =  0 Multiplicity = 1

                         Standard orientation:
 ---------------------------------------------------------------------
 Center     Atomic      Atomic             Coordinates (Angstroms)
 Number     Number       Type             X           Y           Z
 ---------------------------------------------------------------------
      1          8           0        0.000000    0.000000    4.566000
      2          6           0        0.000000    0.000000    3.403000
      3          8           0        0.000000    0.000000    2.240000
      4          8           0        0.000000    0.000000   -2.240000
      5          6           0        0.000000    0.000000   -3.403000
      6          8           0        0.000000    0.000000   -4.566000
 ---------------------------------------------------------------------

 SCF Done:  E(RHF) =  -375.412899766     A.U. after   10 cycles
 E2 =    -0.1203497727D+01 EUMP2 =    -0.37661639749259D+03
 CCSD(T)
 CCSD(T)= -0.37665429487D+03

 The electronic state is 1-SGG.
 Alpha  occ. eigenvalues --  -20.64800 -20.64800 -20.64772 -20.64772 -11.45757
 Alpha  occ. eigenvalues --  -11.45757  -1.52580  -1.52579  -1.47278  -1.47278
 Alpha  occ. eigenvalues --   -0.79690  -0.79660  -0.73877  -0.73836  -0.71057
 Alpha  occ. eigenvalues --   -0.71057  -0.71055  -0.71055  -0.54028  -0.54028
 Alpha  occ. eigenvalues --   -0.54022  -0.54022
 Alpha virt. eigenvalues --    0.17498   0.17764   0.20691   0.20691   0.20701
 Alpha virt. eigenvalues --    0.20701   0.33353   0.35251   0.39679   0.39679
 Alpha virt. eigenvalues --    0.39692   0.39692   0.54892   0.54967   0.64270

 Mulliken charges:
               1
     1  O   -0.270046
     2  C    0.535080
     3  O   -0.265034
     4  O   -0.265034
     5  C    0.535080
     6  O   -0.270046
 Sum of Mulliken charges =   0.00000

 Dipole moment (field-independent basis, Debye):
    X=             -0.0000    Y=              0.0000    Z=             -0.0000  Tot=              0.0000
 Quadrupole moment (field-independent basis, Debye-Ang):
   XX=            -29.3914   YY=            -29.3914   ZZ=            -40.0114
   XY=              0.0000   XZ=              0.0000   YZ=             -0.0000

 7139\CCSD(T)=-376.6542949\RMSD=4.695e-09\PG=D*H [C*(O1C1O1.O1C1O1)]\\@
 Normal termination of Gaussian 16 at Mon Feb 12 20:42:48 2024.
