 Gaussian 16, Revision A.03,
 Gaussian 16:  ES64L-G16RevA.03 25-Dec-2016

 ------------------
 #p CCSD(T)/cc-pVTZ
 ------------------

 -----------
 CO2_CO2_293
 -----------
 Symbolic Z-matrix:
 Charge =  0 Multiplicity = 1

                         Standard orientation:
 ---------------------------------------------------------------------
 Center     Atomic      Atomic             Coordinates (Angstroms)
 Number     Number       Type             X           Y           Z
 ---------------------------------------------------------------------
      1          8           0       -1.744500   -3.021500    0.000000
      2          6           0       -0.581500   -3.021500    0.000000
      3          8           0        0.581500   -3.021500    0.000000
      4          8           0        0.581500    1.858500    0.000000
      5          6           0        0.581500    3.021500    0.000000
      6          8           0        0.581500    4.184500    0.000000
 ---------------------------------------------------------------------

 SCF Done:  E(RHF) =  -375.413295936     A.U. after   10 cycles
 E2 =    -0.1203316328D+01 EUMP2 =    -0.37661661226383D+03
 CCSD(T)
 CCSD(T)= -0.37665455132D+03

 The electronic state is 1-A'.
 Alpha  occ. eigenvalues --  -20.65125 -20.65107 -20.64772 -20.64754 -11.46100
 Alpha  occ. eigenvalues --  -11.45747  -1.52907  -1.52555  -1.47609  -1.47257
 Alpha  occ. eigenvalues --   -0.80027  -0.79673  -0.74213  -0.73859  -0.71381
 Alpha  occ. eigenvalues --   -0.71380  -0.71033  -0.71024  -0.54362  -0.54361
 Alpha  occ. eigenvalues --   -0.54012  -0.54006
 Alpha virt. eigenvalues --    0.17190   0.17803   0.20377   0.20380   0.20722
 Alpha virt. eigenvalues --    0.20734   0.33484   0.34637   0.39391   0.39398
 Alpha virt. eigenvalues --    0.39730   0.39980   0.54570   0.54968   0.65796

 Mulliken charges:
               1
     1  O   -0.269887
     2  C    0.537696
     3  O   -0.267840
     4  O   -0.270429
     5  C    0.537789
     6  O   -0.267331
 Sum of Mulliken charges =  -0.00000

 Dipole moment (field-independent basis, Debye):
    X=              0.0161    Y=              0.0298    Z=              0.0000  Tot=              0.0338
 Quadrupole moment (field-independent basis, Debye-Ang):
   XX=            -34.5506   YY=            -34.5205   ZZ=            -29.3885
   XY=             -0.0143   XZ=              0.0000   YZ=              0.0000

 185\CCSD(T)=-376.6545513\RMSD=4.501e-09\PG=CS [SG(C2O4)]\\@
 Normal termination of Gaussian 16 at Mon Feb 12 22:42:40 2024.
