 Gaussian 16, Revision A.03,
 Gaussian 16:  ES64L-G16RevA.03 25-Dec-2016

 ------------------
 #p CCSD(T)/cc-pVTZ
 ------------------

 ----------
 CO2_CO2_32
 ----------
 Symbolic Z-matrix:
 Charge =  0 Multiplicity = 1

                         Standard orientation:
 ---------------------------------------------------------------------
 Center     Atomic      Atomic             Coordinates (Angstroms)
 Number     Number       Type             X           Y           Z
 ---------------------------------------------------------------------
      1          8           0       -1.744500   -1.281500    0.000000
      2          6           0       -0.581500   -1.281500    0.000000
      3          8           0        0.581500   -1.281500    0.000000
      4          8           0        0.581500    0.118500    0.000000
      5          6           0        0.581500    1.281500    0.000000
      6          8           0        0.581500    2.444500    0.000000
 ---------------------------------------------------------------------

 SCF Done:  E(RHF) =  -375.001883848     A.U. after   15 cycles
 E2 =    -0.1257666279D+01 EUMP2 =    -0.37625955012670D+03
 CCSD(T)
 CCSD(T)= -0.37628836327D+03

 The electronic state is 1-A'.
 Alpha  occ. eigenvalues --  -20.65241 -20.63498 -20.63024 -20.61885 -11.44399
 Alpha  occ. eigenvalues --  -11.42734  -1.63659  -1.51102  -1.48283  -1.43991
 Alpha  occ. eigenvalues --   -0.95724  -0.82883  -0.77099  -0.76578  -0.74505
 Alpha  occ. eigenvalues --   -0.69292  -0.68342  -0.62088  -0.58008  -0.54140
 Alpha  occ. eigenvalues --   -0.49853  -0.33556
 Alpha virt. eigenvalues --    0.15375   0.16924   0.18755   0.21926   0.23416
 Alpha virt. eigenvalues --    0.24482   0.32797   0.36555   0.37892   0.41598
 Alpha virt. eigenvalues --    0.44130   0.46718   0.55067   0.58108   0.64428

 Mulliken charges:
               1
     1  O   -0.291505
     2  C    0.433073
     3  O   -0.153658
     4  O   -0.197863
     5  C    0.494539
     6  O   -0.284585
 Sum of Mulliken charges =  -0.00000

 Dipole moment (field-independent basis, Debye):
    X=              0.8200    Y=              0.4824    Z=              0.0000  Tot=              0.9514
 Quadrupole moment (field-independent basis, Debye-Ang):
   XX=            -34.5117   YY=            -37.4628   ZZ=            -29.1848
   XY=             -0.7301   XZ=              0.0000   YZ=              0.0000

 82\CCSD(T)=-376.2883633\RMSD=5.845e-09\PG=CS [SG(C2O4)]\\@
 Normal termination of Gaussian 16 at Fri Feb  9 21:40:25 2024.
