 Gaussian 16, Revision A.03,
 Gaussian 16:  ES64L-G16RevA.03 25-Dec-2016

 ------------------
 #p CCSD(T)/cc-pVTZ
 ------------------

 -----------
 CO2_CO2_114
 -----------
 Symbolic Z-matrix:
 Charge =  0 Multiplicity = 1

                         Standard orientation:
 ---------------------------------------------------------------------
 Center     Atomic      Atomic             Coordinates (Angstroms)
 Number     Number       Type             X           Y           Z
 ---------------------------------------------------------------------
      1          8           0        0.000000    0.000000    3.586000
      2          6           0        0.000000    0.000000    2.423000
      3          8           0        0.000000    0.000000    1.260000
      4          8           0        0.000000    0.000000   -1.260000
      5          6           0        0.000000    0.000000   -2.423000
      6          8           0        0.000000    0.000000   -3.586000
 ---------------------------------------------------------------------

 SCF Done:  E(RHF) =  -375.407750758     A.U. after   10 cycles
 E2 =    -0.1206107359D+01 EUMP2 =    -0.37661385811771D+03
 CCSD(T)
 CCSD(T)= -0.37665140627D+03

 The electronic state is 1-SGG.
 Alpha  occ. eigenvalues --  -20.64414 -20.64414 -20.64166 -20.64166 -11.45246
 Alpha  occ. eigenvalues --  -11.45246  -1.52247  -1.52089  -1.46973  -1.46735
 Alpha  occ. eigenvalues --   -0.80835  -0.78268  -0.74624  -0.71461  -0.70775
 Alpha  occ. eigenvalues --   -0.70775  -0.70512  -0.70512  -0.53898  -0.53898
 Alpha  occ. eigenvalues --   -0.53275  -0.53275
 Alpha virt. eigenvalues --    0.17496   0.18424   0.20611   0.20611   0.21496
 Alpha virt. eigenvalues --    0.21496   0.33234   0.38298   0.39387   0.39387
 Alpha virt. eigenvalues --    0.40368   0.40368   0.53996   0.55070   0.67206

 Mulliken charges:
               1
     1  O   -0.288343
     2  C    0.520782
     3  O   -0.232439
     4  O   -0.232439
     5  C    0.520782
     6  O   -0.288343
 Sum of Mulliken charges =   0.00000

 Dipole moment (field-independent basis, Debye):
    X=             -0.0000    Y=             -0.0000    Z=              0.0000  Tot=              0.0000
 Quadrupole moment (field-independent basis, Debye-Ang):
   XX=            -29.4093   YY=            -29.4093   ZZ=            -40.7125
   XY=              0.0000   XZ=              0.0000   YZ=              0.0000

 39046\CCSD(T)=-376.6514063\RMSD=5.189e-09\PG=D*H [C*(O1C1O1.O1C1O1)]\\
 Normal termination of Gaussian 16 at Sat Feb 10 16:13:08 2024.
