 Gaussian 16, Revision A.03,
 Gaussian 16:  ES64L-G16RevA.03 25-Dec-2016

 ------------------
 #p CCSD(T)/cc-pVTZ
 ------------------

 -----------
 CO2_CO2_139
 -----------
 Symbolic Z-matrix:
 Charge =  0 Multiplicity = 1

                         Standard orientation:
 ---------------------------------------------------------------------
 Center     Atomic      Atomic             Coordinates (Angstroms)
 Number     Number       Type             X           Y           Z
 ---------------------------------------------------------------------
      1          8           0        1.233548   -3.235048    0.000000
      2          6           0        0.411183   -2.412683    0.000000
      3          8           0       -0.411183   -1.590317    0.000000
      4          8           0       -0.411183    1.249682   -0.000000
      5          6           0       -0.411183    2.412682   -0.000000
      6          8           0       -0.411183    3.575683   -0.000000
 ---------------------------------------------------------------------

 SCF Done:  E(RHF) =  -375.411220743     A.U. after   11 cycles
 E2 =    -0.1205038026D+01 EUMP2 =    -0.37661625876898D+03
 CCSD(T)
 CCSD(T)= -0.37665398308D+03

 The electronic state is 1-A'.
 Alpha  occ. eigenvalues --  -20.64718 -20.64617 -20.64492 -20.64363 -11.45626
 Alpha  occ. eigenvalues --  -11.45391  -1.52495  -1.52241  -1.47195  -1.46927
 Alpha  occ. eigenvalues --   -0.80072  -0.78962  -0.74249  -0.72939  -0.70984
 Alpha  occ. eigenvalues --   -0.70975  -0.70712  -0.70636  -0.53999  -0.53967
 Alpha  occ. eigenvalues --   -0.53610  -0.53597
 Alpha virt. eigenvalues --    0.17139   0.18444   0.20662   0.20748   0.21000
 Alpha virt. eigenvalues --    0.21085   0.32937   0.36782   0.39286   0.39384
 Alpha virt. eigenvalues --    0.40262   0.41485   0.54524   0.55261   0.63863

 Mulliken charges:
               1
     1  O   -0.277477
     2  C    0.530297
     3  O   -0.252904
     4  O   -0.249665
     5  C    0.529863
     6  O   -0.280114
 Sum of Mulliken charges =  -0.00000

 Dipole moment (field-independent basis, Debye):
    X=             -0.0606    Y=              0.0182    Z=              0.0000  Tot=              0.0632
 Quadrupole moment (field-independent basis, Debye-Ang):
   XX=            -31.9932   YY=            -37.7230   ZZ=            -29.4003
   XY=              2.6773   XZ=             -0.0000   YZ=              0.0000

 Q=-376.6049011\CCSD=-376.5966052\CCSD(T)=-376.6539831\RMSD=3.735e-09\P
 Normal termination of Gaussian 16 at Sat Feb 10 18:17:03 2024.
