 Gaussian 16, Revision A.03,
 Gaussian 16:  ES64L-G16RevA.03 25-Dec-2016

 ------------------
 #p CCSD(T)/cc-pVTZ
 ------------------

 -----------
 CO2_CO2_137
 -----------
 Symbolic Z-matrix:
 Charge =  0 Multiplicity = 1

                         Standard orientation:
 ---------------------------------------------------------------------
 Center     Atomic      Atomic             Coordinates (Angstroms)
 Number     Number       Type             X           Y           Z
 ---------------------------------------------------------------------
      1          8           0       -1.744500   -1.981500    0.000000
      2          6           0       -0.581500   -1.981500    0.000000
      3          8           0        0.581500   -1.981500    0.000000
      4          8           0        0.581500    0.818500    0.000000
      5          6           0        0.581500    1.981500    0.000000
      6          8           0        0.581500    3.144500    0.000000
 ---------------------------------------------------------------------

 SCF Done:  E(RHF) =  -375.411759407     A.U. after   12 cycles
 E2 =    -0.1205191673D+01 EUMP2 =    -0.37661695108021D+03
 CCSD(T)
 CCSD(T)= -0.37665476777D+03

 The electronic state is 1-A'.
 Alpha  occ. eigenvalues --  -20.65388 -20.65382 -20.64316 -20.64056 -11.46389
 Alpha  occ. eigenvalues --  -11.45204  -1.53216  -1.52017  -1.47917  -1.46712
 Alpha  occ. eigenvalues --   -0.80533  -0.79162  -0.74860  -0.73310  -0.71688
 Alpha  occ. eigenvalues --   -0.71681  -0.70504  -0.70108  -0.54690  -0.54678
 Alpha  occ. eigenvalues --   -0.53469  -0.53411
 Alpha virt. eigenvalues --    0.16318   0.19210   0.19747   0.20048   0.21208
 Alpha virt. eigenvalues --    0.22127   0.34416   0.34799   0.38000   0.39226
 Alpha virt. eigenvalues --    0.41253   0.45549   0.53909   0.56902   0.65505

 Mulliken charges:
               1
     1  O   -0.275263
     2  C    0.535847
     3  O   -0.263742
     4  O   -0.259545
     5  C    0.538297
     6  O   -0.275594
 Sum of Mulliken charges =  -0.00000

 Dipole moment (field-independent basis, Debye):
    X=              0.1152    Y=              0.1441    Z=              0.0000  Tot=              0.1845
 Quadrupole moment (field-independent basis, Debye-Ang):
   XX=            -34.5963   YY=            -34.6292   ZZ=            -29.3923
   XY=             -0.0474   XZ=              0.0000   YZ=              0.0000

 428\CCSD(T)=-376.6547678\RMSD=9.546e-09\PG=CS [SG(C2O4)]\\@
 Normal termination of Gaussian 16 at Sat Feb 10 18:08:49 2024.
