 Gaussian 16, Revision A.03,
 Gaussian 16:  ES64L-G16RevA.03 25-Dec-2016

 ------------------
 #p CCSD(T)/cc-pVTZ
 ------------------

 ----------
 CO2_CO2_65
 ----------
 Symbolic Z-matrix:
 Charge =  0 Multiplicity = 1

                         Standard orientation:
 ---------------------------------------------------------------------
 Center     Atomic      Atomic             Coordinates (Angstroms)
 Number     Number       Type             X           Y           Z
 ---------------------------------------------------------------------
      1          8           0       -1.744500   -1.501500    0.000000
      2          6           0       -0.581500   -1.501500    0.000000
      3          8           0        0.581500   -1.501500    0.000000
      4          8           0        0.581500    0.338500    0.000000
      5          6           0        0.581500    1.501500    0.000000
      6          8           0        0.581500    2.664500    0.000000
 ---------------------------------------------------------------------

 SCF Done:  E(RHF) =  -375.327109034     A.U. after   13 cycles
 E2 =    -0.1218655948D+01 EUMP2 =    -0.37654576498192D+03
 CCSD(T)
 CCSD(T)= -0.37658165484D+03

 The electronic state is 1-A'.
 Alpha  occ. eigenvalues --  -20.65547 -20.64229 -20.63659 -20.61591 -11.46032
 Alpha  occ. eigenvalues --  -11.44035  -1.54417  -1.51346  -1.48366  -1.45466
 Alpha  occ. eigenvalues --   -0.85760  -0.78748  -0.76865  -0.73411  -0.72536
 Alpha  occ. eigenvalues --   -0.70870  -0.69383  -0.65016  -0.55682  -0.54768
 Alpha  occ. eigenvalues --   -0.51815  -0.49358
 Alpha virt. eigenvalues --    0.15782   0.18416   0.19792   0.21276   0.21707
 Alpha virt. eigenvalues --    0.24064   0.33710   0.36461   0.36693   0.40391
 Alpha virt. eigenvalues --    0.43501   0.47333   0.53597   0.58480   0.65683

 Mulliken charges:
               1
     1  O   -0.288133
     2  C    0.521365
     3  O   -0.248050
     4  O   -0.230503
     5  C    0.530635
     6  O   -0.285315
 Sum of Mulliken charges =  -0.00000

 Dipole moment (field-independent basis, Debye):
    X=              0.3698    Y=              0.3370    Z=              0.0000  Tot=              0.5003
 Quadrupole moment (field-independent basis, Debye-Ang):
   XX=            -34.6153   YY=            -35.5875   ZZ=            -29.3473
   XY=             -0.1771   XZ=              0.0000   YZ=              0.0000

 8\CCSD(T)=-376.5816548\RMSD=8.079e-09\PG=CS [SG(C2O4)]\\@
 Normal termination of Gaussian 16 at Sat Feb 10 00:29:31 2024.
