 Gaussian 16, Revision A.03,
 Gaussian 16:  ES64L-G16RevA.03 25-Dec-2016

 ------------------
 #p CCSD(T)/cc-pVTZ
 ------------------

 ----------
 CO2_CO2_37
 ----------
 Symbolic Z-matrix:
 Charge =  0 Multiplicity = 1

                         Standard orientation:
 ---------------------------------------------------------------------
 Center     Atomic      Atomic             Coordinates (Angstroms)
 Number     Number       Type             X           Y           Z
 ---------------------------------------------------------------------
      1          8           0        1.233548   -2.555048   -0.000000
      2          6           0        0.411183   -1.732682   -0.000000
      3          8           0       -0.411183   -0.910317   -0.000000
      4          8           0       -0.411183    0.569683    0.000000
      5          6           0       -0.411183    1.732682    0.000000
      6          8           0       -0.411183    2.895682    0.000000
 ---------------------------------------------------------------------

 SCF Done:  E(RHF) =  -375.152550660     A.U. after   14 cycles
 E2 =    -0.1239544149D+01 EUMP2 =    -0.37639209480839D+03
 CCSD(T)
 CCSD(T)= -0.37642279569D+03

 The electronic state is 1-A'.
 Alpha  occ. eigenvalues --  -20.64291 -20.62286 -20.62184 -20.62120 -11.43920
 Alpha  occ. eigenvalues --  -11.41976  -1.56594  -1.50513  -1.47752  -1.44135
 Alpha  occ. eigenvalues --   -0.97840  -0.76652  -0.75125  -0.73422  -0.73111
 Alpha  occ. eigenvalues --   -0.68773  -0.68369  -0.59808  -0.56703  -0.53091
 Alpha  occ. eigenvalues --   -0.49819  -0.41512
 Alpha virt. eigenvalues --    0.16099   0.19005   0.19523   0.20703   0.23371
 Alpha virt. eigenvalues --    0.23847   0.33986   0.36636   0.37628   0.39100
 Alpha virt. eigenvalues --    0.43000   0.46775   0.53901   0.58995   0.67895

 Mulliken charges:
               1
     1  O   -0.311607
     2  C    0.481379
     3  O   -0.185834
     4  O   -0.192677
     5  C    0.516778
     6  O   -0.308039
 Sum of Mulliken charges =  -0.00000

 Dipole moment (field-independent basis, Debye):
    X=             -0.3820    Y=              0.5734    Z=              0.0000  Tot=              0.6890
 Quadrupole moment (field-independent basis, Debye-Ang):
   XX=            -32.2241   YY=            -40.6430   ZZ=            -29.2452
   XY=              3.2401   XZ=             -0.0000   YZ=             -0.0000

 =-376.3729741\CCSD=-376.3612716\CCSD(T)=-376.4227957\RMSD=9.094e-09\PG
 Normal termination of Gaussian 16 at Fri Feb  9 22:05:50 2024.
