 Gaussian 16, Revision A.03,
 Gaussian 16:  ES64L-G16RevA.03 25-Dec-2016

 ------------------
 #p CCSD(T)/cc-pVTZ
 ------------------

 -----------
 CO2_CO2_131
 -----------
 Symbolic Z-matrix:
 Charge =  0 Multiplicity = 1

                         Standard orientation:
 ---------------------------------------------------------------------
 Center     Atomic      Atomic             Coordinates (Angstroms)
 Number     Number       Type             X           Y           Z
 ---------------------------------------------------------------------
      1          8           0       -1.744500   -1.941500    0.000000
      2          6           0       -0.581500   -1.941500    0.000000
      3          8           0        0.581500   -1.941500    0.000000
      4          8           0        0.581500    0.778500    0.000000
      5          6           0        0.581500    1.941500    0.000000
      6          8           0        0.581500    3.104500    0.000000
 ---------------------------------------------------------------------

 SCF Done:  E(RHF) =  -375.410962616     A.U. after   13 cycles
 E2 =    -0.1205502012D+01 EUMP2 =    -0.37661646462818D+03
 CCSD(T)
 CCSD(T)= -0.37665425434D+03

 The electronic state is 1-A'.
 Alpha  occ. eigenvalues --  -20.65407 -20.65380 -20.64277 -20.63968 -11.46403
 Alpha  occ. eigenvalues --  -11.45149  -1.53241  -1.51968  -1.47941  -1.46659
 Alpha  occ. eigenvalues --   -0.80620  -0.79115  -0.74970  -0.73256  -0.71714
 Alpha  occ. eigenvalues --   -0.71700  -0.70452  -0.69952  -0.54719  -0.54701
 Alpha  occ. eigenvalues --   -0.53411  -0.53340
 Alpha virt. eigenvalues --    0.16280   0.19322   0.19690   0.20027   0.21245
 Alpha virt. eigenvalues --    0.22256   0.34387   0.34956   0.37874   0.39275
 Alpha virt. eigenvalues --    0.41422   0.45953   0.53758   0.57130   0.66316

 Mulliken charges:
               1
     1  O   -0.276069
     2  C    0.536048
     3  O   -0.263659
     4  O   -0.257673
     5  C    0.537875
     6  O   -0.276522
 Sum of Mulliken charges =  -0.00000

 Dipole moment (field-independent basis, Debye):
    X=              0.1265    Y=              0.1554    Z=              0.0000  Tot=              0.2004
 Quadrupole moment (field-independent basis, Debye-Ang):
   XX=            -34.6012   YY=            -34.6589   ZZ=            -29.3931
   XY=             -0.0514   XZ=              0.0000   YZ=              0.0000

 822\CCSD(T)=-376.6542543\RMSD=1.484e-09\PG=CS [SG(C2O4)]\\@
 Normal termination of Gaussian 16 at Sat Feb 10 17:38:53 2024.
