 Gaussian 16, Revision A.03,
 Gaussian 16:  ES64L-G16RevA.03 25-Dec-2016

 ------------------
 #p CCSD(T)/cc-pVTZ
 ------------------

 -----------
 CO2_CO2_132
 -----------
 Symbolic Z-matrix:
 Charge =  0 Multiplicity = 1

                         Standard orientation:
 ---------------------------------------------------------------------
 Center     Atomic      Atomic             Coordinates (Angstroms)
 Number     Number       Type             X           Y           Z
 ---------------------------------------------------------------------
      1          8           0        0.000000    0.000000    3.706000
      2          6           0        0.000000    0.000000    2.543000
      3          8           0        0.000000    0.000000    1.380000
      4          8           0        0.000000    0.000000   -1.380000
      5          6           0        0.000000    0.000000   -2.543000
      6          8           0        0.000000    0.000000   -3.706000
 ---------------------------------------------------------------------

 SCF Done:  E(RHF) =  -375.410664537     A.U. after   10 cycles
 E2 =    -0.1205219333D+01 EUMP2 =    -0.37661588386999D+03
 CCSD(T)
 CCSD(T)= -0.37665356647D+03

 The electronic state is 1-SGG.
 Alpha  occ. eigenvalues --  -20.64508 -20.64508 -20.64362 -20.64362 -11.45387
 Alpha  occ. eigenvalues --  -11.45386  -1.52305  -1.52226  -1.47015  -1.46895
 Alpha  occ. eigenvalues --   -0.80210  -0.78678  -0.74316  -0.72400  -0.70817
 Alpha  occ. eigenvalues --   -0.70817  -0.70669  -0.70669  -0.53872  -0.53872
 Alpha  occ. eigenvalues --   -0.53511  -0.53511
 Alpha virt. eigenvalues --    0.17556   0.18256   0.20678   0.20678   0.21265
 Alpha virt. eigenvalues --    0.21265   0.33231   0.37741   0.39539   0.39539
 Alpha virt. eigenvalues --    0.40176   0.40176   0.54402   0.54821   0.64585

 Mulliken charges:
               1
     1  O   -0.283676
     2  C    0.526005
     3  O   -0.242329
     4  O   -0.242329
     5  C    0.526005
     6  O   -0.283676
 Sum of Mulliken charges =   0.00000

 Dipole moment (field-independent basis, Debye):
    X=             -0.0000    Y=             -0.0000    Z=              0.0000  Tot=              0.0000
 Quadrupole moment (field-independent basis, Debye-Ang):
   XX=            -29.4040   YY=            -29.4040   ZZ=            -40.5289
   XY=              0.0000   XZ=              0.0000   YZ=              0.0000

 61758\CCSD(T)=-376.6535665\RMSD=4.760e-09\PG=D*H [C*(O1C1O1.O1C1O1)]\\
 Normal termination of Gaussian 16 at Sat Feb 10 17:41:15 2024.
