 Gaussian 16, Revision A.03,
 Gaussian 16:  ES64L-G16RevA.03 25-Dec-2016

 ------------------
 #p CCSD(T)/cc-pVTZ
 ------------------

 -----------
 CO2_CO2_300
 -----------
 Symbolic Z-matrix:
 Charge =  0 Multiplicity = 1

                         Standard orientation:
 ---------------------------------------------------------------------
 Center     Atomic      Atomic             Coordinates (Angstroms)
 Number     Number       Type             X           Y           Z
 ---------------------------------------------------------------------
      1          8           0        0.000000    0.000000    4.826000
      2          6           0        0.000000    0.000000    3.663000
      3          8           0        0.000000    0.000000    2.500000
      4          8           0        0.000000    0.000000   -2.500000
      5          6           0        0.000000    0.000000   -3.663000
      6          8           0        0.000000    0.000000   -4.826000
 ---------------------------------------------------------------------

 SCF Done:  E(RHF) =  -375.412965092     A.U. after   10 cycles
 E2 =    -0.1203410803D+01 EUMP2 =    -0.37661637589491D+03
 CCSD(T)
 CCSD(T)= -0.37665428846D+03

 The electronic state is 1-SGG.
 Alpha  occ. eigenvalues --  -20.64837 -20.64837 -20.64816 -20.64816 -11.45801
 Alpha  occ. eigenvalues --  -11.45801  -1.52620  -1.52620  -1.47320  -1.47320
 Alpha  occ. eigenvalues --   -0.79724  -0.79717  -0.73908  -0.73898  -0.71096
 Alpha  occ. eigenvalues --   -0.71096  -0.71096  -0.71096  -0.54068  -0.54068
 Alpha  occ. eigenvalues --   -0.54067  -0.54067
 Alpha virt. eigenvalues --    0.17561   0.17655   0.20657   0.20657   0.20659
 Alpha virt. eigenvalues --    0.20659   0.33950   0.34657   0.39652   0.39652
 Alpha virt. eigenvalues --    0.39655   0.39655   0.54878   0.54920   0.65595

 Mulliken charges:
               1
     1  O   -0.269622
     2  C    0.535541
     3  O   -0.265919
     4  O   -0.265919
     5  C    0.535541
     6  O   -0.269622
 Sum of Mulliken charges =  -0.00000

 Dipole moment (field-independent basis, Debye):
    X=             -0.0000    Y=             -0.0000    Z=              0.0000  Tot=              0.0000
 Quadrupole moment (field-independent basis, Debye-Ang):
   XX=            -29.3904   YY=            -29.3904   ZZ=            -39.9486
   XY=              0.0000   XZ=              0.0000   YZ=             -0.0000

 444\CCSD(T)=-376.6542885\RMSD=4.695e-09\PG=D*H [C*(O1C1O1.O1C1O1)]\\@
 Normal termination of Gaussian 16 at Mon Feb 12 23:07:25 2024.
