 Gaussian 16, Revision A.03,
 Gaussian 16:  ES64L-G16RevA.03 25-Dec-2016

 ------------------
 #p CCSD(T)/cc-pVTZ
 ------------------

 ----------
 CO2_CO2_42
 ----------
 Symbolic Z-matrix:
 Charge =  0 Multiplicity = 1

                         Standard orientation:
 ---------------------------------------------------------------------
 Center     Atomic      Atomic             Coordinates (Angstroms)
 Number     Number       Type             X           Y           Z
 ---------------------------------------------------------------------
      1          8           0        0.000000    0.000000    3.106000
      2          6           0        0.000000    0.000000    1.943000
      3          8           0        0.000000    0.000000    0.780000
      4          8           0        0.000000    0.000000   -0.780000
      5          6           0        0.000000    0.000000   -1.943000
      6          8           0        0.000000    0.000000   -3.106000
 ---------------------------------------------------------------------

 SCF Done:  E(RHF) =  -375.218976039     A.U. after   11 cycles
 E2 =    -0.1227190105D+01 EUMP2 =    -0.37644616614379D+03
 CCSD(T)
 CCSD(T)= -0.37647956144D+03

 The electronic state is 1-SGG.
 Alpha  occ. eigenvalues --  -20.63457 -20.63457 -20.61105 -20.61104 -11.43108
 Alpha  occ. eigenvalues --  -11.43108  -1.53863  -1.50447  -1.47664  -1.44355
 Alpha  occ. eigenvalues --   -0.95701  -0.76130  -0.75264  -0.71612  -0.71612
 Alpha  occ. eigenvalues --   -0.68543  -0.68543  -0.55736  -0.55736  -0.51806
 Alpha  occ. eigenvalues --   -0.49929  -0.49929
 Alpha virt. eigenvalues --    0.17136   0.19453   0.19453   0.19956   0.24075
 Alpha virt. eigenvalues --    0.24075   0.31822   0.38432   0.38432   0.40377
 Alpha virt. eigenvalues --    0.42040   0.42040   0.53004   0.59075   0.68178

 Mulliken charges:
               1
     1  O   -0.319457
     2  C    0.515563
     3  O   -0.196106
     4  O   -0.196106
     5  C    0.515563
     6  O   -0.319457
 Sum of Mulliken charges =  -0.00000

 Dipole moment (field-independent basis, Debye):
    X=             -0.0000    Y=             -0.0000    Z=              0.0000  Tot=              0.0000
 Quadrupole moment (field-independent basis, Debye-Ang):
   XX=            -29.3238   YY=            -29.3238   ZZ=            -42.6221
   XY=              0.0000   XZ=              0.0000   YZ=              0.0000

 536\CCSD(T)=-376.4795614\RMSD=2.946e-09\PG=D*H [C*(O1C1O1.O1C1O1)]\\@
 Normal termination of Gaussian 16 at Fri Feb  9 22:29:35 2024.
