 Gaussian 16, Revision A.03,
 Gaussian 16:  ES64L-G16RevA.03 25-Dec-2016

 ------------------
 #p CCSD(T)/cc-pVTZ
 ------------------

 -----------
 CO2_CO2_241
 -----------
 Symbolic Z-matrix:
 Charge =  0 Multiplicity = 1

                         Standard orientation:
 ---------------------------------------------------------------------
 Center     Atomic      Atomic             Coordinates (Angstroms)
 Number     Number       Type             X           Y           Z
 ---------------------------------------------------------------------
      1          8           0        1.233548   -3.915048   -0.000000
      2          6           0        0.411183   -3.092683   -0.000000
      3          8           0       -0.411183   -2.270317   -0.000000
      4          8           0       -0.411183    1.929682    0.000000
      5          6           0       -0.411183    3.092683    0.000000
      6          8           0       -0.411183    4.255683    0.000000
 ---------------------------------------------------------------------

 SCF Done:  E(RHF) =  -375.412958865     A.U. after   10 cycles
 E2 =    -0.1203545548D+01 EUMP2 =    -0.37661650441334D+03
 CCSD(T)
 CCSD(T)= -0.37665439746D+03

 The electronic state is 1-A'.
 Alpha  occ. eigenvalues --  -20.64878 -20.64860 -20.64761 -20.64730 -11.45841
 Alpha  occ. eigenvalues --  -11.45718  -1.52662  -1.52538  -1.47361  -1.47237
 Alpha  occ. eigenvalues --   -0.79763  -0.79633  -0.73949  -0.73812  -0.71138
 Alpha  occ. eigenvalues --   -0.71138  -0.71015  -0.71010  -0.54109  -0.54109
 Alpha  occ. eigenvalues --   -0.53986  -0.53980
 Alpha virt. eigenvalues --    0.17356   0.17835   0.20613   0.20615   0.20734
 Alpha virt. eigenvalues --    0.20743   0.32598   0.35822   0.39590   0.39600
 Alpha virt. eigenvalues --    0.39731   0.39809   0.54816   0.54986   0.64010

 Mulliken charges:
               1
     1  O   -0.270502
     2  C    0.535414
     3  O   -0.264879
     4  O   -0.265876
     5  C    0.535442
     6  O   -0.269599
 Sum of Mulliken charges =  -0.00000

 Dipole moment (field-independent basis, Debye):
    X=             -0.0209    Y=              0.0066    Z=              0.0000  Tot=              0.0219
 Quadrupole moment (field-independent basis, Debye-Ang):
   XX=            -31.9718   YY=            -37.3620   ZZ=            -29.3913
   XY=              2.6124   XZ=              0.0000   YZ=             -0.0000

 Q=-376.6054194\CCSD=-376.5972345\CCSD(T)=-376.6543975\RMSD=9.293e-09\P
 Normal termination of Gaussian 16 at Mon Feb 12 19:30:12 2024.
