 Gaussian 16, Revision A.03,
 Gaussian 16:  ES64L-G16RevA.03 25-Dec-2016

 ------------------
 #p CCSD(T)/cc-pVTZ
 ------------------

 ---------
 N2_N2_202
 ---------
 Symbolic Z-matrix:
 Charge =  0 Multiplicity = 1

                         Standard orientation:
 ---------------------------------------------------------------------
 Center     Atomic      Atomic             Coordinates (Angstroms)
 Number     Number       Type             X           Y           Z
 ---------------------------------------------------------------------
      1          7           0        0.578060   -2.690560    0.000000
      2          7           0       -0.192687   -1.919813    0.000000
      3          7           0       -0.192687    1.760187   -0.000000
      4          7           0       -0.192687    2.850186   -0.000000
 ---------------------------------------------------------------------

 SCF Done:  E(RHF) =  -217.969468922     A.U. after   11 cycles
 E2 =    -0.7436676546D+00 EUMP2 =    -0.21871313657699D+03
 CCSD(T)
 CCSD(T)= -0.21874710761D+03

 The electronic state is 1-A'.
 Alpha  occ. eigenvalues --  -15.67837 -15.67711 -15.67466 -15.67340  -1.47476
 Alpha  occ. eigenvalues --   -1.47351  -0.77562  -0.77195  -0.63456  -0.62924
 Alpha  occ. eigenvalues --   -0.61492  -0.61489  -0.61361  -0.61340
 Alpha virt. eigenvalues --    0.16297   0.16425   0.16791   0.17049   0.38055
 Alpha virt. eigenvalues --    0.46036   0.52529   0.55118   0.55428   0.56886
 Alpha virt. eigenvalues --    0.57184   0.63297   0.67112   0.68929   0.71538

 Mulliken charges:
               1
     1  N    0.003139
     2  N   -0.003147
     3  N   -0.006435
     4  N    0.006443
 Sum of Mulliken charges =  -0.00000

 Dipole moment (field-independent basis, Debye):
    X=             -0.0139    Y=              0.0119    Z=             -0.0000  Tot=              0.0183
 Quadrupole moment (field-independent basis, Debye-Ang):
   XX=            -21.1998   YY=            -22.7022   ZZ=            -20.4982
   XY=              0.7082   XZ=              0.0000   YZ=              0.0000

 P4DQ=-218.704197\MP4SDQ=-218.7150063\CCSD=-218.7106605\CCSD(T)=-218.74
 Normal termination of Gaussian 16 at Fri Feb  9 19:31:41 2024.
