 Gaussian 16, Revision A.03,
 Gaussian 16:  ES64L-G16RevA.03 25-Dec-2016

 ------------------
 #p CCSD(T)/cc-pVTZ
 ------------------

 ---------
 N2_N2_112
 ---------
 Symbolic Z-matrix:
 Charge =  0 Multiplicity = 1

                         Standard orientation:
 ---------------------------------------------------------------------
 Center     Atomic      Atomic             Coordinates (Angstroms)
 Number     Number       Type             X           Y           Z
 ---------------------------------------------------------------------
      1          7           0        0.578060   -2.090560    0.000000
      2          7           0       -0.192687   -1.319813   -0.000000
      3          7           0       -0.192687    1.160187   -0.000000
      4          7           0       -0.192687    2.250186   -0.000000
 ---------------------------------------------------------------------

 SCF Done:  E(RHF) =  -217.957259250     A.U. after   12 cycles
 E2 =    -0.7466040611D+00 EUMP2 =    -0.21870386331115D+03
 CCSD(T)
 CCSD(T)= -0.21873740157D+03

 The electronic state is 1-A'.
 Alpha  occ. eigenvalues --  -15.67556 -15.67036 -15.67012 -15.66625  -1.47342
 Alpha  occ. eigenvalues --   -1.46851  -0.79655  -0.75481  -0.65250  -0.61852
 Alpha  occ. eigenvalues --   -0.61553  -0.61105  -0.60731  -0.59155
 Alpha virt. eigenvalues --    0.14939   0.16057   0.18277   0.18896   0.44963
 Alpha virt. eigenvalues --    0.45908   0.52391   0.53446   0.58463   0.59150
 Alpha virt. eigenvalues --    0.61544   0.63686   0.66655   0.71239   0.76641

 Mulliken charges:
               1
     1  N    0.002450
     2  N   -0.005029
     3  N    0.005396
     4  N   -0.002818
 Sum of Mulliken charges =   0.00000

 Dipole moment (field-independent basis, Debye):
    X=             -0.0619    Y=              0.0910    Z=             -0.0000  Tot=              0.1101
 Quadrupole moment (field-independent basis, Debye-Ang):
   XX=            -21.2383   YY=            -23.1324   ZZ=            -20.4952
   XY=              0.7402   XZ=             -0.0000   YZ=              0.0000

 P4DQ=-218.694301\MP4SDQ=-218.7051281\CCSD=-218.7005762\CCSD(T)=-218.73
 Normal termination of Gaussian 16 at Fri Feb  9 18:44:10 2024.
