 Gaussian 16, Revision A.03,
 Gaussian 16:  ES64L-G16RevA.03 25-Dec-2016

 ------------------
 #p CCSD(T)/cc-pVTZ
 ------------------

 ---------
 N2_N2_265
 ---------
 Symbolic Z-matrix:
 Charge =  0 Multiplicity = 1

                         Standard orientation:
 ---------------------------------------------------------------------
 Center     Atomic      Atomic             Coordinates (Angstroms)
 Number     Number       Type             X           Y           Z
 ---------------------------------------------------------------------
      1          7           0        0.578060   -3.110560   -0.000000
      2          7           0       -0.192687   -2.339814   -0.000000
      3          7           0       -0.192687    2.180187    0.000000
      4          7           0       -0.192687    3.270186    0.000000
 ---------------------------------------------------------------------

 SCF Done:  E(RHF) =  -217.969600054     A.U. after   10 cycles
 E2 =    -0.7433375561D+00 EUMP2 =    -0.21871293761043D+03
 CCSD(T)
 CCSD(T)= -0.21874695902D+03

 The electronic state is 1-A'.
 Alpha  occ. eigenvalues --  -15.67861 -15.67791 -15.67490 -15.67420  -1.47496
 Alpha  occ. eigenvalues --   -1.47426  -0.77470  -0.77381  -0.63297  -0.63179
 Alpha  occ. eigenvalues --   -0.61506  -0.61506  -0.61438  -0.61434
 Alpha virt. eigenvalues --    0.16555   0.16569   0.16648   0.16717   0.39087
 Alpha virt. eigenvalues --    0.45321   0.54237   0.55995   0.56050   0.56308
 Alpha virt. eigenvalues --    0.56355   0.59132   0.67268   0.67581   0.72943

 Mulliken charges:
               1
     1  N   -0.000144
     2  N    0.000187
     3  N   -0.000805
     4  N    0.000763
 Sum of Mulliken charges =  -0.00000

 Dipole moment (field-independent basis, Debye):
    X=             -0.0063    Y=              0.0048    Z=              0.0000  Tot=              0.0079
 Quadrupole moment (field-independent basis, Debye-Ang):
   XX=            -21.1961   YY=            -22.6461   ZZ=            -20.4972
   XY=              0.7024   XZ=              0.0000   YZ=             -0.0000

 P4DQ=-218.7040778\MP4SDQ=-218.7148791\CCSD=-218.7105564\CCSD(T)=-218.7
 Normal termination of Gaussian 16 at Fri Feb  9 20:05:18 2024.
