 Gaussian 16, Revision A.03,
 Gaussian 16:  ES64L-G16RevA.03 25-Dec-2016

 ------------------
 #p CCSD(T)/cc-pVTZ
 ------------------

 ---------
 N2_N2_232
 ---------
 Symbolic Z-matrix:
 Charge =  0 Multiplicity = 1

                         Standard orientation:
 ---------------------------------------------------------------------
 Center     Atomic      Atomic             Coordinates (Angstroms)
 Number     Number       Type             X           Y           Z
 ---------------------------------------------------------------------
      1          7           0        0.578060   -2.890560   -0.000000
      2          7           0       -0.192687   -2.119813   -0.000000
      3          7           0       -0.192687    1.960187    0.000000
      4          7           0       -0.192687    3.050186    0.000000
 ---------------------------------------------------------------------

 SCF Done:  E(RHF) =  -217.969584840     A.U. after   11 cycles
 E2 =    -0.7434636733D+00 EUMP2 =    -0.21871304851286D+03
 CCSD(T)
 CCSD(T)= -0.21874704812D+03

 The electronic state is 1-A'.
 Alpha  occ. eigenvalues --  -15.67853 -15.67761 -15.67482 -15.67390  -1.47488
 Alpha  occ. eigenvalues --   -1.47396  -0.77492  -0.77318  -0.63343  -0.63091
 Alpha  occ. eigenvalues --   -0.61500  -0.61499  -0.61408  -0.61400
 Alpha virt. eigenvalues --    0.16465   0.16500   0.16683   0.16840   0.37676
 Alpha virt. eigenvalues --    0.45969   0.53230   0.55691   0.55841   0.56520
 Alpha virt. eigenvalues --    0.56657   0.61701   0.67188   0.68059   0.72352

 Mulliken charges:
               1
     1  N    0.001159
     2  N   -0.001086
     3  N   -0.003223
     4  N    0.003149
 Sum of Mulliken charges =   0.00000

 Dipole moment (field-independent basis, Debye):
    X=             -0.0093    Y=              0.0072    Z=              0.0000  Tot=              0.0118
 Quadrupole moment (field-independent basis, Debye-Ang):
   XX=            -21.1974   YY=            -22.6654   ZZ=            -20.4977
   XY=              0.7049   XZ=             -0.0000   YZ=              0.0000

 P4DQ=-218.704156\MP4SDQ=-218.7149606\CCSD=-218.710629\CCSD(T)=-218.747
 Normal termination of Gaussian 16 at Fri Feb  9 19:47:06 2024.
