 Gaussian 16, Revision A.03,
 Gaussian 16:  ES64L-G16RevA.03 25-Dec-2016

 ------------------
 #p CCSD(T)/cc-pVTZ
 ------------------

 ---------
 N2_N2_188
 ---------
 Symbolic Z-matrix:
 Charge =  0 Multiplicity = 1

                         Standard orientation:
 ---------------------------------------------------------------------
 Center     Atomic      Atomic             Coordinates (Angstroms)
 Number     Number       Type             X           Y           Z
 ---------------------------------------------------------------------
      1          7           0       -0.817500   -2.012500    0.000000
      2          7           0        0.272500   -2.012500    0.000000
      3          7           0        0.272500    1.467500    0.000000
      4          7           0        0.272500    2.557500    0.000000
 ---------------------------------------------------------------------

 SCF Done:  E(RHF) =  -217.969431758     A.U. after   12 cycles
 E2 =    -0.7441274164D+00 EUMP2 =    -0.21871355917448D+03
 CCSD(T)
 CCSD(T)= -0.21874746302D+03

 The electronic state is 1-A'.
 Alpha  occ. eigenvalues --  -15.67996 -15.67654 -15.67625 -15.67283  -1.47632
 Alpha  occ. eigenvalues --   -1.47276  -0.77660  -0.77248  -0.63686  -0.62973
 Alpha  occ. eigenvalues --   -0.61654  -0.61647  -0.61293  -0.61113
 Alpha virt. eigenvalues --    0.15733   0.16370   0.16843   0.17483   0.39560
 Alpha virt. eigenvalues --    0.43074   0.51403   0.54628   0.55275   0.56729
 Alpha virt. eigenvalues --    0.57493   0.62155   0.66862   0.69253   0.72789

 Mulliken charges:
               1
     1  N   -0.003647
     2  N    0.004129
     3  N   -0.007050
     4  N    0.006568
 Sum of Mulliken charges =  -0.00000

 Dipole moment (field-independent basis, Debye):
    X=              0.0136    Y=              0.0299    Z=              0.0000  Tot=              0.0328
 Quadrupole moment (field-independent basis, Debye-Ang):
   XX=            -21.9023   YY=            -21.9389   ZZ=            -20.4960
   XY=             -0.0147   XZ=              0.0000   YZ=              0.0000

 4SDQ=-218.7152803\CCSD=-218.7109586\CCSD(T)=-218.747463\RMSD=1.925e-09
 Normal termination of Gaussian 16 at Fri Feb  9 19:24:30 2024.
