 Gaussian 16, Revision A.03,
 Gaussian 16:  ES64L-G16RevA.03 25-Dec-2016

 ------------------
 #p CCSD(T)/cc-pVTZ
 ------------------

 -------
 N2_N2_0
 -------
 Symbolic Z-matrix:
 Charge =  0 Multiplicity = 1

                         Standard orientation:
 ---------------------------------------------------------------------
 Center     Atomic      Atomic             Coordinates (Angstroms)
 Number     Number       Type             X           Y           Z
 ---------------------------------------------------------------------
      1          7           0        0.000000    0.000000    1.590000
      2          7           0        0.000000    0.000000    0.500000
      3          7           0        0.000000    0.000000   -0.500000
      4          7           0        0.000000    0.000000   -1.590000
 ---------------------------------------------------------------------

 SCF Done:  E(RHF) =  -217.509003117     A.U. after   12 cycles
 E2 =    -0.7394786800D+00 EUMP2 =    -0.21824848179649D+03
 CCSD(T)
 CCSD(T)= -0.21828784620D+03

 Unable to determine electronic state:  an orbital has unidentified symmetry.
 Alpha  occ. eigenvalues --  -15.75719 -15.75127 -15.62581 -15.62581  -1.69181
 Alpha  occ. eigenvalues --   -1.46208  -1.34405  -0.88395  -0.86393  -0.66659
 Alpha  occ. eigenvalues --   -0.65754  -0.59024  -0.52449  -0.31682
 Alpha virt. eigenvalues --    0.03863   0.29725   0.33295   0.36353   0.41729
 Alpha virt. eigenvalues --    0.45162   0.49458   0.49947   0.50939   0.62315
 Alpha virt. eigenvalues --    0.64295   0.64397   0.70980   0.72011   0.80297

 Mulliken charges:
               1
     1  N   -0.175632
     2  N    0.175632
     3  N    0.175632
     4  N   -0.175632
 Sum of Mulliken charges =  -0.00000

 Dipole moment (field-independent basis, Debye):
    X=             -0.0000    Y=              0.0000    Z=             -0.0000  Tot=              0.0000
 Quadrupole moment (field-independent basis, Debye-Ang):
   XX=            -18.7495   YY=            -21.3315   ZZ=            -30.6653
   XY=             -0.0000   XZ=              0.0000   YZ=             -0.0000

 \CCSD=-218.2489141\CCSD(T)=-218.2878462\RMSD=1.699e-09\PG=D*H [C*(N1N1
 Normal termination of Gaussian 16 at Fri Feb  9 17:40:07 2024.
