 Gaussian 16, Revision A.03,
 Gaussian 16:  ES64L-G16RevA.03 25-Dec-2016

 ------------------
 #p CCSD(T)/cc-pVTZ
 ------------------

 ---------
 N2_N2_245
 ---------
 Symbolic Z-matrix:
 Charge =  0 Multiplicity = 1

                         Standard orientation:
 ---------------------------------------------------------------------
 Center     Atomic      Atomic             Coordinates (Angstroms)
 Number     Number       Type             X           Y           Z
 ---------------------------------------------------------------------
      1          7           0       -0.817500   -2.392500    0.000000
      2          7           0        0.272500   -2.392500    0.000000
      3          7           0        0.272500    1.847500    0.000000
      4          7           0        0.272500    2.937500    0.000000
 ---------------------------------------------------------------------

 SCF Done:  E(RHF) =  -217.969698804     A.U. after   10 cycles
 E2 =    -0.7434667657D+00 EUMP2 =    -0.21871316556966D+03
 CCSD(T)
 CCSD(T)= -0.21874716747D+03

 The electronic state is 1-A'.
 Alpha  occ. eigenvalues --  -15.67963 -15.67762 -15.67592 -15.67392  -1.47593
 Alpha  occ. eigenvalues --   -1.47389  -0.77570  -0.77363  -0.63407  -0.63162
 Alpha  occ. eigenvalues --   -0.61604  -0.61603  -0.61404  -0.61378
 Alpha virt. eigenvalues --    0.16315   0.16491   0.16703   0.16876   0.40224
 Alpha virt. eigenvalues --    0.42830   0.52971   0.55768   0.55894   0.56314
 Alpha virt. eigenvalues --    0.56513   0.61125   0.67097   0.68753   0.72185

 Mulliken charges:
               1
     1  N   -0.001025
     2  N    0.001309
     3  N   -0.001628
     4  N    0.001344
 Sum of Mulliken charges =   0.00000

 Dipole moment (field-independent basis, Debye):
    X=              0.0050    Y=              0.0120    Z=              0.0000  Tot=              0.0130
 Quadrupole moment (field-independent basis, Debye-Ang):
   XX=            -21.8954   YY=            -21.8865   ZZ=            -20.4965
   XY=             -0.0050   XZ=              0.0000   YZ=              0.0000

 4SDQ=-218.7150624\CCSD=-218.7107485\CCSD(T)=-218.7471675\RMSD=9.056e-0
 Normal termination of Gaussian 16 at Fri Feb  9 19:53:46 2024.
