 Gaussian 16, Revision A.03,
 Gaussian 16:  ES64L-G16RevA.03 25-Dec-2016

 ------------------
 #p CCSD(T)/cc-pVTZ
 ------------------

 --------
 N2_N2_49
 --------
 Symbolic Z-matrix:
 Charge =  0 Multiplicity = 1

                         Standard orientation:
 ---------------------------------------------------------------------
 Center     Atomic      Atomic             Coordinates (Angstroms)
 Number     Number       Type             X           Y           Z
 ---------------------------------------------------------------------
      1          7           0        0.578060   -1.670560   -0.000000
      2          7           0       -0.192687   -0.899814   -0.000000
      3          7           0       -0.192687    0.740186    0.000000
      4          7           0       -0.192687    1.830187    0.000000
 ---------------------------------------------------------------------

 SCF Done:  E(RHF) =  -217.783143355     A.U. after   14 cycles
 E2 =    -0.7667640776D+00 EUMP2 =    -0.21854990743273D+03
 CCSD(T)
 CCSD(T)= -0.21858132699D+03

 The electronic state is 1-A'.
 Alpha  occ. eigenvalues --  -15.69555 -15.67910 -15.64377 -15.62531  -1.49692
 Alpha  occ. eigenvalues --   -1.44923  -0.95537  -0.72849  -0.67440  -0.64942
 Alpha  occ. eigenvalues --   -0.64779  -0.58984  -0.58016  -0.42900
 Alpha virt. eigenvalues --    0.11214   0.14090   0.23163   0.23231   0.43329
 Alpha virt. eigenvalues --    0.47053   0.52232   0.53423   0.60046   0.61473
 Alpha virt. eigenvalues --    0.61692   0.64311   0.69099   0.74981   0.80678

 Mulliken charges:
               1
     1  N   -0.089064
     2  N   -0.005961
     3  N    0.054958
     4  N    0.040067
 Sum of Mulliken charges =  -0.00000

 Dipole moment (field-independent basis, Debye):
    X=             -0.2808    Y=              1.3132    Z=              0.0000  Tot=              1.3429
 Quadrupole moment (field-independent basis, Debye-Ang):
   XX=            -21.6893   YY=            -24.2014   ZZ=            -20.2907
   XY=              0.8249   XZ=             -0.0000   YZ=             -0.0000

 4DQ=-218.5358236\MP4SDQ=-218.5476541\CCSD=-218.5414561\CCSD(T)=-218.58
 Normal termination of Gaussian 16 at Fri Feb  9 18:10:35 2024.
