 Gaussian 16, Revision A.03,
 Gaussian 16:  ES64L-G16RevA.03 25-Dec-2016

 ------------------
 #p CCSD(T)/cc-pVTZ
 ------------------

 ---------
 N2_N2_262
 ---------
 Symbolic Z-matrix:
 Charge =  0 Multiplicity = 1

                         Standard orientation:
 ---------------------------------------------------------------------
 Center     Atomic      Atomic             Coordinates (Angstroms)
 Number     Number       Type             X           Y           Z
 ---------------------------------------------------------------------
      1          7           0        0.578060   -3.090560    0.000000
      2          7           0       -0.192687   -2.319813    0.000000
      3          7           0       -0.192687    2.160186   -0.000000
      4          7           0       -0.192687    3.250187   -0.000000
 ---------------------------------------------------------------------

 SCF Done:  E(RHF) =  -217.969600106     A.U. after   10 cycles
 E2 =    -0.7433463336D+00 EUMP2 =    -0.21871294643969D+03
 CCSD(T)
 CCSD(T)= -0.21874696616D+03

 The electronic state is 1-A'.
 Alpha  occ. eigenvalues --  -15.67860 -15.67789 -15.67490 -15.67418  -1.47495
 Alpha  occ. eigenvalues --   -1.47424  -0.77471  -0.77377  -0.63299  -0.63173
 Alpha  occ. eigenvalues --   -0.61506  -0.61505  -0.61435  -0.61431
 Alpha virt. eigenvalues --    0.16550   0.16565   0.16649   0.16725   0.38923
 Alpha virt. eigenvalues --    0.45404   0.54142   0.55977   0.56038   0.56321
 Alpha virt. eigenvalues --    0.56373   0.59348   0.67262   0.67607   0.72904

 Mulliken charges:
               1
     1  N   -0.000071
     2  N    0.000118
     3  N   -0.000945
     4  N    0.000898
 Sum of Mulliken charges =   0.00000

 Dipole moment (field-independent basis, Debye):
    X=             -0.0065    Y=              0.0049    Z=             -0.0000  Tot=              0.0081
 Quadrupole moment (field-independent basis, Debye-Ang):
   XX=            -21.1962   YY=            -22.6473   ZZ=            -20.4972
   XY=              0.7026   XZ=             -0.0000   YZ=              0.0000

 4DQ=-218.7040842\MP4SDQ=-218.7148858\CCSD=-218.7105624\CCSD(T)=-218.74
 Normal termination of Gaussian 16 at Fri Feb  9 20:03:45 2024.
