 Gaussian 16, Revision A.03,
 Gaussian 16:  ES64L-G16RevA.03 25-Dec-2016

 ------------------
 #p CCSD(T)/cc-pVTZ
 ------------------

 ---------
 N2_N2_244
 ---------
 Symbolic Z-matrix:
 Charge =  0 Multiplicity = 1

                         Standard orientation:
 ---------------------------------------------------------------------
 Center     Atomic      Atomic             Coordinates (Angstroms)
 Number     Number       Type             X           Y           Z
 ---------------------------------------------------------------------
      1          7           0        0.578060   -2.970560   -0.000000
      2          7           0       -0.192687   -2.199813   -0.000000
      3          7           0       -0.192687    2.040187    0.000000
      4          7           0       -0.192687    3.130186    0.000000
 ---------------------------------------------------------------------

 SCF Done:  E(RHF) =  -217.969596579     A.U. after   11 cycles
 E2 =    -0.7434084721D+00 EUMP2 =    -0.21871300505106D+03
 CCSD(T)
 CCSD(T)= -0.21874701358D+03

 The electronic state is 1-A'.
 Alpha  occ. eigenvalues --  -15.67856 -15.67774 -15.67486 -15.67403  -1.47492
 Alpha  occ. eigenvalues --   -1.47409  -0.77480  -0.77347  -0.63320  -0.63131
 Alpha  occ. eigenvalues --   -0.61502  -0.61502  -0.61421  -0.61414
 Alpha virt. eigenvalues --    0.16507   0.16529   0.16664   0.16785   0.38049
 Alpha virt. eigenvalues --    0.45807   0.53580   0.55834   0.55940   0.56424
 Alpha virt. eigenvalues --    0.56520   0.60763   0.67219   0.67827   0.72609

 Mulliken charges:
               1
     1  N    0.000559
     2  N   -0.000491
     3  N   -0.002121
     4  N    0.002052
 Sum of Mulliken charges =  -0.00000

 Dipole moment (field-independent basis, Debye):
    X=             -0.0080    Y=              0.0061    Z=              0.0000  Tot=              0.0101
 Quadrupole moment (field-independent basis, Debye-Ang):
   XX=            -21.1968   YY=            -22.6566   ZZ=            -20.4975
   XY=              0.7038   XZ=             -0.0000   YZ=             -0.0000

 4DQ=-218.7041264\MP4SDQ=-218.7149296\CCSD=-218.7106018\CCSD(T)=-218.74
 Normal termination of Gaussian 16 at Fri Feb  9 19:53:15 2024.
