 Gaussian 16, Revision A.03,
 Gaussian 16:  ES64L-G16RevA.03 25-Dec-2016

 ------------------
 #p CCSD(T)/cc-pVTZ
 ------------------

 ---------
 N2_N2_191
 ---------
 Symbolic Z-matrix:
 Charge =  0 Multiplicity = 1

                         Standard orientation:
 ---------------------------------------------------------------------
 Center     Atomic      Atomic             Coordinates (Angstroms)
 Number     Number       Type             X           Y           Z
 ---------------------------------------------------------------------
      1          7           0       -0.817500   -2.032500    0.000000
      2          7           0        0.272500   -2.032500    0.000000
      3          7           0        0.272500    1.487500    0.000000
      4          7           0        0.272500    2.577500    0.000000
 ---------------------------------------------------------------------

 SCF Done:  E(RHF) =  -217.969484531     A.U. after   12 cycles
 E2 =    -0.7440694571D+00 EUMP2 =    -0.21871355398846D+03
 CCSD(T)
 CCSD(T)= -0.21874746603D+03

 The electronic state is 1-A'.
 Alpha  occ. eigenvalues --  -15.67995 -15.67664 -15.67624 -15.67293  -1.47630
 Alpha  occ. eigenvalues --   -1.47286  -0.77651  -0.77258  -0.63657  -0.62988
 Alpha  occ. eigenvalues --   -0.61650  -0.61644  -0.61302  -0.61143
 Alpha virt. eigenvalues --    0.15775   0.16380   0.16831   0.17435   0.39408
 Alpha virt. eigenvalues --    0.43043   0.51457   0.54717   0.55314   0.56699
 Alpha virt. eigenvalues --    0.57419   0.62230   0.66882   0.69297   0.72802

 Mulliken charges:
               1
     1  N   -0.003433
     2  N    0.003913
     3  N   -0.006826
     4  N    0.006346
 Sum of Mulliken charges =  -0.00000

 Dipole moment (field-independent basis, Debye):
    X=              0.0128    Y=              0.0283    Z=              0.0000  Tot=              0.0310
 Quadrupole moment (field-independent basis, Debye-Ang):
   XX=            -21.9016   YY=            -21.9330   ZZ=            -20.4961
   XY=             -0.0137   XZ=              0.0000   YZ=              0.0000

 Q=-218.7152902\CCSD=-218.7109691\CCSD(T)=-218.747466\RMSD=1.904e-09\PG
 Normal termination of Gaussian 16 at Fri Feb  9 19:26:05 2024.
