 Gaussian 16, Revision A.03,
 Gaussian 16:  ES64L-G16RevA.03 25-Dec-2016

 ------------------
 #p CCSD(T)/cc-pVTZ
 ------------------

 --------
 N2_N2_24
 --------
 Symbolic Z-matrix:
 Charge =  0 Multiplicity = 1

                         Standard orientation:
 ---------------------------------------------------------------------
 Center     Atomic      Atomic             Coordinates (Angstroms)
 Number     Number       Type             X           Y           Z
 ---------------------------------------------------------------------
      1          7           0        0.000000    0.000000    1.750000
      2          7           0        0.000000    0.000000    0.660000
      3          7           0        0.000000    0.000000   -0.660000
      4          7           0        0.000000    0.000000   -1.750000
 ---------------------------------------------------------------------

 SCF Done:  E(RHF) =  -217.559580054     A.U. after   11 cycles
 E2 =    -0.7814027024D+00 EUMP2 =    -0.21834098275669D+03
 CCSD(T)
 CCSD(T)= -0.21837908976D+03

 Unable to determine electronic state:  an orbital has unidentified symmetry.
 Alpha  occ. eigenvalues --  -15.78282 -15.78201 -15.65466 -15.65465  -1.55119
 Alpha  occ. eigenvalues --   -1.47922  -1.17714  -0.77166  -0.74550  -0.68871
 Alpha  occ. eigenvalues --   -0.66382  -0.62723  -0.59061  -0.26497
 Alpha virt. eigenvalues --    0.06850   0.17956   0.21670   0.24999   0.44585
 Alpha virt. eigenvalues --    0.45292   0.48865   0.50739   0.51850   0.61259
 Alpha virt. eigenvalues --    0.61782   0.62490   0.72016   0.73053   0.79418

 Mulliken charges:
               1
     1  N   -0.094655
     2  N    0.094655
     3  N    0.094655
     4  N   -0.094655
 Sum of Mulliken charges =   0.00000

 Dipole moment (field-independent basis, Debye):
    X=             -0.0000    Y=             -0.0000    Z=              0.0000  Tot=              0.0000
 Quadrupole moment (field-independent basis, Debye-Ang):
   XX=            -19.3892   YY=            -22.2233   ZZ=            -29.6310
   XY=              0.0000   XZ=              0.0000   YZ=             -0.0000

 7845\CCSD=-218.3322384\CCSD(T)=-218.3790898\RMSD=2.444e-09\PG=D*H [C*(
 Normal termination of Gaussian 16 at Fri Feb  9 17:53:48 2024.
