 Gaussian 16, Revision A.03,
 Gaussian 16:  ES64L-G16RevA.03 25-Dec-2016

 ------------------
 #p CCSD(T)/cc-pVTZ
 ------------------

 --------
 N2_N2_91
 --------
 Symbolic Z-matrix:
 Charge =  0 Multiplicity = 1

                         Standard orientation:
 ---------------------------------------------------------------------
 Center     Atomic      Atomic             Coordinates (Angstroms)
 Number     Number       Type             X           Y           Z
 ---------------------------------------------------------------------
      1          7           0        0.578060   -1.950560    0.000000
      2          7           0       -0.192687   -1.179813    0.000000
      3          7           0       -0.192687    1.020187   -0.000000
      4          7           0       -0.192687    2.110186   -0.000000
 ---------------------------------------------------------------------

 SCF Done:  E(RHF) =  -217.937270802     A.U. after   13 cycles
 E2 =    -0.7495572580D+00 EUMP2 =    -0.21868682806038D+03
 CCSD(T)
 CCSD(T)= -0.21871992690D+03

 The electronic state is 1-A'.
 Alpha  occ. eigenvalues --  -15.67492 -15.66631 -15.66442 -15.66017  -1.47354
 Alpha  occ. eigenvalues --   -1.46490  -0.81924  -0.74474  -0.66185  -0.62010
 Alpha  occ. eigenvalues --   -0.61764  -0.60635  -0.60238  -0.56558
 Alpha virt. eigenvalues --    0.14279   0.15849   0.19148   0.19880   0.45306
 Alpha virt. eigenvalues --    0.45720   0.52233   0.53496   0.59891   0.59918
 Alpha virt. eigenvalues --    0.63156   0.64512   0.66192   0.72410   0.80407

 Mulliken charges:
               1
     1  N   -0.006703
     2  N   -0.001366
     3  N    0.006671
     4  N    0.001398
 Sum of Mulliken charges =  -0.00000

 Dipole moment (field-independent basis, Debye):
    X=             -0.0962    Y=              0.1873    Z=              0.0000  Tot=              0.2106
 Quadrupole moment (field-independent basis, Debye-Ang):
   XX=            -21.2729   YY=            -23.3884   ZZ=            -20.4767
   XY=              0.7622   XZ=              0.0000   YZ=              0.0000

 4DQ=-218.6766486\MP4SDQ=-218.6875062\CCSD=-218.6827442\CCSD(T)=-218.71
 Normal termination of Gaussian 16 at Fri Feb  9 18:33:04 2024.
