 Gaussian 16, Revision A.03,
 Gaussian 16:  ES64L-G16RevA.03 25-Dec-2016

 ------------------
 #p CCSD(T)/cc-pVTZ
 ------------------

 --------
 N2_N2_71
 --------
 Symbolic Z-matrix:
 Charge =  0 Multiplicity = 1

                         Standard orientation:
 ---------------------------------------------------------------------
 Center     Atomic      Atomic             Coordinates (Angstroms)
 Number     Number       Type             X           Y           Z
 ---------------------------------------------------------------------
      1          7           0       -0.817500   -1.232500    0.000000
      2          7           0        0.272500   -1.232500    0.000000
      3          7           0        0.272500    0.687500    0.000000
      4          7           0        0.272500    1.777500    0.000000
 ---------------------------------------------------------------------

 SCF Done:  E(RHF) =  -217.875585459     A.U. after   14 cycles
 E2 =    -0.7595459601D+00 EUMP2 =    -0.21863513141879D+03
 CCSD(T)
 CCSD(T)= -0.21866707333D+03

 The electronic state is 1-A'.
 Alpha  occ. eigenvalues --  -15.67811 -15.66532 -15.66181 -15.64533  -1.48435
 Alpha  occ. eigenvalues --   -1.46123  -0.84400  -0.75718  -0.68424  -0.63302
 Alpha  occ. eigenvalues --   -0.62623  -0.60881  -0.59181  -0.50263
 Alpha virt. eigenvalues --    0.13535   0.14868   0.18648   0.21908   0.41874
 Alpha virt. eigenvalues --    0.44869   0.53374   0.53484   0.55605   0.58171
 Alpha virt. eigenvalues --    0.61335   0.66566   0.73459   0.75179   0.76000

 Mulliken charges:
               1
     1  N   -0.048255
     2  N    0.045048
     3  N    0.000252
     4  N    0.002955
 Sum of Mulliken charges =   0.00000

 Dipole moment (field-independent basis, Debye):
    X=              0.2680    Y=              0.2740    Z=              0.0000  Tot=              0.3832
 Quadrupole moment (field-independent basis, Debye-Ang):
   XX=            -22.0711   YY=            -22.7906   ZZ=            -20.3781
   XY=             -0.3674   XZ=              0.0000   YZ=              0.0000

 SDQ=-218.6333618\CCSD=-218.6286696\CCSD(T)=-218.6670733\RMSD=2.223e-09
 Normal termination of Gaussian 16 at Fri Feb  9 18:22:24 2024.
