 Gaussian 16, Revision A.03,
 Gaussian 16:  ES64L-G16RevA.03 25-Dec-2016

 ------------------
 #p CCSD(T)/cc-pVTZ
 ------------------

 ---------
 N2_N2_199
 ---------
 Symbolic Z-matrix:
 Charge =  0 Multiplicity = 1

                         Standard orientation:
 ---------------------------------------------------------------------
 Center     Atomic      Atomic             Coordinates (Angstroms)
 Number     Number       Type             X           Y           Z
 ---------------------------------------------------------------------
      1          7           0        0.578060   -2.670560   -0.000000
      2          7           0       -0.192687   -1.899813   -0.000000
      3          7           0       -0.192687    1.740187    0.000000
      4          7           0       -0.192687    2.830186    0.000000
 ---------------------------------------------------------------------

 SCF Done:  E(RHF) =  -217.969444051     A.U. after   12 cycles
 E2 =    -0.7436950287D+00 EUMP2 =    -0.21871313908016D+03
 CCSD(T)
 CCSD(T)= -0.21874710652D+03

 The electronic state is 1-A'.
 Alpha  occ. eigenvalues --  -15.67834 -15.67705 -15.67464 -15.67334  -1.47475
 Alpha  occ. eigenvalues --   -1.47345  -0.77574  -0.77177  -0.63474  -0.62901
 Alpha  occ. eigenvalues --   -0.61491  -0.61488  -0.61355  -0.61331
 Alpha virt. eigenvalues --    0.16275   0.16417   0.16809   0.17077   0.38215
 Alpha virt. eigenvalues --    0.46025   0.52478   0.55042   0.55371   0.56934
 Alpha virt. eigenvalues --    0.57253   0.63383   0.67105   0.69031   0.71450

 Mulliken charges:
               1
     1  N    0.003359
     2  N   -0.003386
     3  N   -0.006715
     4  N    0.006742
 Sum of Mulliken charges =  -0.00000

 Dipole moment (field-independent basis, Debye):
    X=             -0.0145    Y=              0.0126    Z=              0.0000  Tot=              0.0192
 Quadrupole moment (field-independent basis, Debye-Ang):
   XX=            -21.2001   YY=            -22.7073   ZZ=            -20.4983
   XY=              0.7086   XZ=              0.0000   YZ=             -0.0000

 4DQ=-218.7041936\MP4SDQ=-218.7150034\CCSD=-218.7106556\CCSD(T)=-218.74
 Normal termination of Gaussian 16 at Fri Feb  9 19:30:09 2024.
