 Gaussian 16, Revision A.03,
 Gaussian 16:  ES64L-G16RevA.03 25-Dec-2016

 ------------------
 #p CCSD(T)/cc-pVTZ
 ------------------

 ---------
 N2_N2_174
 ---------
 Symbolic Z-matrix:
 Charge =  0 Multiplicity = 1

                         Standard orientation:
 ---------------------------------------------------------------------
 Center     Atomic      Atomic             Coordinates (Angstroms)
 Number     Number       Type             X           Y           Z
 ---------------------------------------------------------------------
      1          7           0        0.000000    0.000000    2.750000
      2          7           0        0.000000    0.000000    1.660000
      3          7           0        0.000000    0.000000   -1.660000
      4          7           0        0.000000    0.000000   -2.750000
 ---------------------------------------------------------------------

 SCF Done:  E(RHF) =  -217.968763890     A.U. after   10 cycles
 E2 =    -0.7439087245D+00 EUMP2 =    -0.21871267261464D+03
 CCSD(T)
 CCSD(T)= -0.21874662147D+03

 The electronic state is 1-SGG.
 Alpha  occ. eigenvalues --  -15.67639 -15.67639 -15.67268 -15.67268  -1.47312
 Alpha  occ. eigenvalues --   -1.47298  -0.77684  -0.76860  -0.63654  -0.62429
 Alpha  occ. eigenvalues --   -0.61364  -0.61364  -0.61272  -0.61272
 Alpha virt. eigenvalues --    0.16051   0.16051   0.17496   0.17496   0.40012
 Alpha virt. eigenvalues --    0.46787   0.52392   0.54957   0.54957   0.57360
 Alpha virt. eigenvalues --    0.57360   0.66599   0.67224   0.70576   0.70576

 Mulliken charges:
               1
     1  N    0.006357
     2  N   -0.006357
     3  N   -0.006357
     4  N    0.006357
 Sum of Mulliken charges =  -0.00000

 Dipole moment (field-independent basis, Debye):
    X=              0.0000    Y=             -0.0000    Z=              0.0000  Tot=              0.0000
 Quadrupole moment (field-independent basis, Debye-Ang):
   XX=            -20.5011   YY=            -20.5011   ZZ=            -23.5557
   XY=              0.0000   XZ=              0.0000   YZ=             -0.0000

 P4SDQ=-218.7145225\CCSD=-218.7101383\CCSD(T)=-218.7466215\RMSD=7.413e-
 Normal termination of Gaussian 16 at Fri Feb  9 19:17:24 2024.
