 Gaussian 16, Revision A.03,
 Gaussian 16:  ES64L-G16RevA.03 25-Dec-2016

 ------------------
 #p CCSD(T)/cc-pVTZ
 ------------------

 ---------
 N2_N2_230
 ---------
 Symbolic Z-matrix:
 Charge =  0 Multiplicity = 1

                         Standard orientation:
 ---------------------------------------------------------------------
 Center     Atomic      Atomic             Coordinates (Angstroms)
 Number     Number       Type             X           Y           Z
 ---------------------------------------------------------------------
      1          7           0       -0.817500   -2.292500    0.000000
      2          7           0        0.272500   -2.292500    0.000000
      3          7           0        0.272500    1.747500    0.000000
      4          7           0        0.272500    2.837500    0.000000
 ---------------------------------------------------------------------

 SCF Done:  E(RHF) =  -217.969706212     A.U. after   11 cycles
 E2 =    -0.7435705597D+00 EUMP2 =    -0.21871327677208D+03
 CCSD(T)
 CCSD(T)= -0.21874726175D+03

 The electronic state is 1-A'.
 Alpha  occ. eigenvalues --  -15.67972 -15.67745 -15.67602 -15.67375  -1.47602
 Alpha  occ. eigenvalues --   -1.47370  -0.77583  -0.77345  -0.63442  -0.63131
 Alpha  occ. eigenvalues --   -0.61614  -0.61612  -0.61386  -0.61346
 Alpha virt. eigenvalues --    0.16206   0.16473   0.16725   0.16983   0.39498
 Alpha virt. eigenvalues --    0.42863   0.52463   0.55578   0.55779   0.56393
 Alpha virt. eigenvalues --    0.56686   0.61996   0.67048   0.69572   0.72542

 Mulliken charges:
               1
     1  N   -0.001454
     2  N    0.001832
     3  N   -0.002819
     4  N    0.002440
 Sum of Mulliken charges =  -0.00000

 Dipole moment (field-independent basis, Debye):
    X=              0.0063    Y=              0.0144    Z=              0.0000  Tot=              0.0157
 Quadrupole moment (field-independent basis, Debye-Ang):
   XX=            -21.8964   YY=            -21.8900   ZZ=            -20.4965
   XY=             -0.0062   XZ=              0.0000   YZ=              0.0000

 SDQ=-218.7151448\CCSD=-218.7108295\CCSD(T)=-218.7472618\RMSD=8.754e-09
 Normal termination of Gaussian 16 at Fri Feb  9 19:46:07 2024.
