 Gaussian 16, Revision A.03,
 Gaussian 16:  ES64L-G16RevA.03 25-Dec-2016

 ------------------
 #p CCSD(T)/cc-pVTZ
 ------------------

 ---------
 N2_N2_108
 ---------
 Symbolic Z-matrix:
 Charge =  0 Multiplicity = 1

                         Standard orientation:
 ---------------------------------------------------------------------
 Center     Atomic      Atomic             Coordinates (Angstroms)
 Number     Number       Type             X           Y           Z
 ---------------------------------------------------------------------
      1          7           0        0.000000    0.000000    2.310000
      2          7           0        0.000000    0.000000    1.220000
      3          7           0        0.000000    0.000000   -1.220000
      4          7           0        0.000000    0.000000   -2.310000
 ---------------------------------------------------------------------

 SCF Done:  E(RHF) =  -217.952664993     A.U. after   10 cycles
 E2 =    -0.7465537813D+00 EUMP2 =    -0.21869921877383D+03
 CCSD(T)
 CCSD(T)= -0.21873285035D+03

 The electronic state is 1-SGG.
 Alpha  occ. eigenvalues --  -15.67058 -15.67058 -15.66452 -15.66451  -1.46970
 Alpha  occ. eigenvalues --   -1.46804  -0.79942  -0.75007  -0.65282  -0.61279
 Alpha  occ. eigenvalues --   -0.61279  -0.60603  -0.60603  -0.59092
 Alpha virt. eigenvalues --    0.14782   0.14782   0.19458   0.19458   0.44997
 Alpha virt. eigenvalues --    0.46991   0.53763   0.53763   0.59110   0.59110
 Alpha virt. eigenvalues --    0.63850   0.66793   0.67026   0.70785   0.70785

 Mulliken charges:
               1
     1  N   -0.010360
     2  N    0.010360
     3  N    0.010360
     4  N   -0.010360
 Sum of Mulliken charges =  -0.00000

 Dipole moment (field-independent basis, Debye):
    X=             -0.0000    Y=              0.0000    Z=             -0.0000  Tot=              0.0000
 Quadrupole moment (field-independent basis, Debye-Ang):
   XX=            -20.5040   YY=            -20.5040   ZZ=            -24.0274
   XY=              0.0000   XZ=              0.0000   YZ=             -0.0000

 4SDQ=-218.7006488\CCSD=-218.6960329\CCSD(T)=-218.7328504\RMSD=8.588e-1
 Normal termination of Gaussian 16 at Fri Feb  9 18:41:59 2024.
