 Gaussian 16, Revision A.03,
 Gaussian 16:  ES64L-G16RevA.03 25-Dec-2016

 ------------------
 #p CCSD(T)/cc-pVTZ
 ------------------

 ---------
 N2_N2_220
 ---------
 Symbolic Z-matrix:
 Charge =  0 Multiplicity = 1

                         Standard orientation:
 ---------------------------------------------------------------------
 Center     Atomic      Atomic             Coordinates (Angstroms)
 Number     Number       Type             X           Y           Z
 ---------------------------------------------------------------------
      1          7           0        0.578060   -2.810560    0.000000
      2          7           0       -0.192687   -2.039814   -0.000000
      3          7           0       -0.192687    1.880187   -0.000000
      4          7           0       -0.192687    2.970186   -0.000000
 ---------------------------------------------------------------------

 SCF Done:  E(RHF) =  -217.969559014     A.U. after   11 cycles
 E2 =    -0.7435322273D+00 EUMP2 =    -0.21871309124117D+03
 CCSD(T)
 CCSD(T)= -0.21874708070D+03

 The electronic state is 1-A'.
 Alpha  occ. eigenvalues --  -15.67848 -15.67744 -15.67477 -15.67373  -1.47485
 Alpha  occ. eigenvalues --   -1.47381  -0.77511  -0.77280  -0.63377  -0.63037
 Alpha  occ. eigenvalues --   -0.61497  -0.61496  -0.61392  -0.61381
 Alpha virt. eigenvalues --    0.16410   0.16470   0.16713   0.16910   0.37573
 Alpha virt. eigenvalues --    0.46046   0.52915   0.55502   0.55707   0.56643
 Alpha virt. eigenvalues --    0.56834   0.62501   0.67157   0.68365   0.72050

 Mulliken charges:
               1
     1  N    0.001884
     2  N   -0.001823
     3  N   -0.004504
     4  N    0.004443
 Sum of Mulliken charges =  -0.00000

 Dipole moment (field-independent basis, Debye):
    X=             -0.0109    Y=              0.0087    Z=             -0.0000  Tot=              0.0140
 Quadrupole moment (field-independent basis, Debye-Ang):
   XX=            -21.1981   YY=            -22.6772   ZZ=            -20.4979
   XY=              0.7061   XZ=             -0.0000   YZ=              0.0000

 DQ=-218.7041823\MP4SDQ=-218.7149887\CCSD=-218.7106523\CCSD(T)=-218.747
 Normal termination of Gaussian 16 at Fri Feb  9 19:41:02 2024.
