 Gaussian 16, Revision A.03,
 Gaussian 16:  ES64L-G16RevA.03 25-Dec-2016

 ------------------
 #p CCSD(T)/cc-pVTZ
 ------------------

 ---------
 N2_N2_216
 ---------
 Symbolic Z-matrix:
 Charge =  0 Multiplicity = 1

                         Standard orientation:
 ---------------------------------------------------------------------
 Center     Atomic      Atomic             Coordinates (Angstroms)
 Number     Number       Type             X           Y           Z
 ---------------------------------------------------------------------
      1          7           0        0.000000    0.000000    3.030000
      2          7           0        0.000000    0.000000    1.940000
      3          7           0        0.000000    0.000000   -1.940000
      4          7           0        0.000000    0.000000   -3.030000
 ---------------------------------------------------------------------

 SCF Done:  E(RHF) =  -217.969450565     A.U. after   10 cycles
 E2 =    -0.7435314237D+00 EUMP2 =    -0.21871298198871D+03
 CCSD(T)
 CCSD(T)= -0.21874697599D+03

 The electronic state is 1-SGG.
 Alpha  occ. eigenvalues --  -15.67745 -15.67745 -15.67374 -15.67374  -1.47389
 Alpha  occ. eigenvalues --   -1.47386  -0.77468  -0.77214  -0.63354  -0.62938
 Alpha  occ. eigenvalues --   -0.61412  -0.61412  -0.61385  -0.61385
 Alpha virt. eigenvalues --    0.16422   0.16422   0.16997   0.16997   0.35625
 Alpha virt. eigenvalues --    0.47730   0.52971   0.55739   0.55739   0.56686
 Alpha virt. eigenvalues --    0.56686   0.66201   0.67278   0.71899   0.71899

 Mulliken charges:
               1
     1  N    0.006633
     2  N   -0.006633
     3  N   -0.006633
     4  N    0.006633
 Sum of Mulliken charges =  -0.00000

 Dipole moment (field-independent basis, Debye):
    X=              0.0000    Y=              0.0000    Z=              0.0000  Tot=              0.0000
 Quadrupole moment (field-independent basis, Debye-Ang):
   XX=            -20.4991   YY=            -20.4991   ZZ=            -23.4443
   XY=              0.0000   XZ=              0.0000   YZ=             -0.0000

 4SDQ=-218.7148925\CCSD=-218.710546\CCSD(T)=-218.746976\RMSD=6.632e-10\
 Normal termination of Gaussian 16 at Fri Feb  9 19:38:55 2024.
