 Gaussian 16, Revision A.03,
 Gaussian 16:  ES64L-G16RevA.03 25-Dec-2016

 ------------------
 #p CCSD(T)/cc-pVTZ
 ------------------

 ---------
 N2_N2_156
 ---------
 Symbolic Z-matrix:
 Charge =  0 Multiplicity = 1

                         Standard orientation:
 ---------------------------------------------------------------------
 Center     Atomic      Atomic             Coordinates (Angstroms)
 Number     Number       Type             X           Y           Z
 ---------------------------------------------------------------------
      1          7           0        0.000000    0.000000    2.630000
      2          7           0        0.000000    0.000000    1.540000
      3          7           0        0.000000    0.000000   -1.540000
      4          7           0        0.000000    0.000000   -2.630000
 ---------------------------------------------------------------------

 SCF Done:  E(RHF) =  -217.967745894     A.U. after   10 cycles
 E2 =    -0.7442103362D+00 EUMP2 =    -0.21871195623023D+03
 CCSD(T)
 CCSD(T)= -0.21874586707D+03

 The electronic state is 1-SGG.
 Alpha  occ. eigenvalues --  -15.67552 -15.67551 -15.67178 -15.67178  -1.47257
 Alpha  occ. eigenvalues --   -1.47228  -0.77919  -0.76571  -0.63916  -0.61994
 Alpha  occ. eigenvalues --   -0.61338  -0.61338  -0.61180  -0.61180
 Alpha virt. eigenvalues --    0.15801   0.15801   0.17841   0.17841   0.43277
 Alpha virt. eigenvalues --    0.46230   0.52633   0.54503   0.54503   0.57762
 Alpha virt. eigenvalues --    0.57762   0.66624   0.67187   0.70187   0.70187

 Mulliken charges:
               1
     1  N    0.003182
     2  N   -0.003182
     3  N   -0.003182
     4  N    0.003182
 Sum of Mulliken charges =  -0.00000

 Dipole moment (field-independent basis, Debye):
    X=              0.0000    Y=              0.0000    Z=             -0.0000  Tot=              0.0000
 Quadrupole moment (field-independent basis, Debye-Ang):
   XX=            -20.5026   YY=            -20.5026   ZZ=            -23.6356
   XY=              0.0000   XZ=              0.0000   YZ=             -0.0000

 4SDQ=-218.7137562\CCSD=-218.709342\CCSD(T)=-218.7458671\RMSD=7.826e-10
 Normal termination of Gaussian 16 at Fri Feb  9 19:08:09 2024.
