 Gaussian 16, Revision A.03,
 Gaussian 16:  ES64L-G16RevA.03 25-Dec-2016

 ------------------
 #p CCSD(T)/cc-pVTZ
 ------------------

 --------
 N2_N2_13
 --------
 Symbolic Z-matrix:
 Charge =  0 Multiplicity = 1

                         Standard orientation:
 ---------------------------------------------------------------------
 Center     Atomic      Atomic             Coordinates (Angstroms)
 Number     Number       Type             X           Y           Z
 ---------------------------------------------------------------------
      1          7           0        0.578060   -1.430560   -0.000000
      2          7           0       -0.192687   -0.659813   -0.000000
      3          7           0       -0.192687    0.500187    0.000000
      4          7           0       -0.192687    1.590186    0.000000
 ---------------------------------------------------------------------

 SCF Done:  E(RHF) =  -217.590238803     A.U. after   15 cycles
 E2 =    -0.7584931540D+00 EUMP2 =    -0.21834873195738D+03
 CCSD(T)
 CCSD(T)= -0.21838729003D+03

 The electronic state is 1-A'.
 Alpha  occ. eigenvalues --  -15.80741 -15.71880 -15.69485 -15.57309  -1.62220
 Alpha  occ. eigenvalues --   -1.47822  -1.23081  -0.81095  -0.79609  -0.73032
 Alpha  occ. eigenvalues --   -0.63752  -0.58448  -0.55462  -0.30235
 Alpha virt. eigenvalues --    0.05429   0.12183   0.27591   0.37111   0.41261
 Alpha virt. eigenvalues --    0.49368   0.50242   0.52639   0.54229   0.61995
 Alpha virt. eigenvalues --    0.62447   0.67378   0.70463   0.72771   0.73204

 Mulliken charges:
               1
     1  N   -0.390447
     2  N    0.096959
     3  N    0.372904
     4  N   -0.079417
 Sum of Mulliken charges =  -0.00000

 Dipole moment (field-independent basis, Debye):
    X=             -1.0467    Y=              2.3420    Z=              0.0000  Tot=              2.5652
 Quadrupole moment (field-independent basis, Debye-Ang):
   XX=            -22.7501   YY=            -27.7426   ZZ=            -19.2541
   XY=              1.6995   XZ=              0.0000   YZ=             -0.0000

 =-218.3336283\MP4SDQ=-218.3464225\CCSD=-218.3441356\CCSD(T)=-218.38729
 Normal termination of Gaussian 16 at Fri Feb  9 17:47:10 2024.
