 Gaussian 16, Revision A.03,
 Gaussian 16:  ES64L-G16RevA.03 25-Dec-2016

 ------------------
 #p CCSD(T)/cc-pVTZ
 ------------------

 --------
 N2_N2_14
 --------
 Symbolic Z-matrix:
 Charge =  0 Multiplicity = 1

                         Standard orientation:
 ---------------------------------------------------------------------
 Center     Atomic      Atomic             Coordinates (Angstroms)
 Number     Number       Type             X           Y           Z
 ---------------------------------------------------------------------
      1          7           0       -0.817500   -0.852500    0.000000
      2          7           0        0.272500   -0.852500    0.000000
      3          7           0        0.272500    0.307500    0.000000
      4          7           0        0.272500    1.397500    0.000000
 ---------------------------------------------------------------------

 SCF Done:  E(RHF) =  -217.530535690     A.U. after   15 cycles
 E2 =    -0.7613461519D+00 EUMP2 =    -0.21829188184207D+03
 CCSD(T)
 CCSD(T)= -0.21832767636D+03

 The electronic state is 1-A'.
 Alpha  occ. eigenvalues --  -15.81662 -15.68990 -15.68285 -15.59927  -1.71613
 Alpha  occ. eigenvalues --   -1.48976  -1.12666  -0.84583  -0.81945  -0.70968
 Alpha  occ. eigenvalues --   -0.64934  -0.59253  -0.54577  -0.33045
 Alpha virt. eigenvalues --    0.08224   0.16306   0.22138   0.36668   0.41302
 Alpha virt. eigenvalues --    0.42543   0.48683   0.50414   0.54876   0.59840
 Alpha virt. eigenvalues --    0.60173   0.65524   0.70602   0.72356   0.75406

 Mulliken charges:
               1
     1  N   -0.323332
     2  N    0.049551
     3  N    0.370608
     4  N   -0.096827
 Sum of Mulliken charges =  -0.00000

 Dipole moment (field-independent basis, Debye):
    X=              1.2631    Y=              0.9414    Z=              0.0000  Tot=              1.5753
 Quadrupole moment (field-independent basis, Debye-Ang):
   XX=            -23.3371   YY=            -25.5066   ZZ=            -19.2400
   XY=             -0.8530   XZ=              0.0000   YZ=              0.0000

 DQ=-218.2876695\CCSD=-218.2855485\CCSD(T)=-218.3276764\RMSD=4.339e-09\
 Normal termination of Gaussian 16 at Fri Feb  9 17:47:45 2024.
