 Gaussian 16, Revision A.03,
 Gaussian 16:  ES64L-G16RevA.03 25-Dec-2016

 ------------------
 #p CCSD(T)/cc-pVTZ
 ------------------

 --------
 N2_N2_19
 --------
 Symbolic Z-matrix:
 Charge =  0 Multiplicity = 1

                         Standard orientation:
 ---------------------------------------------------------------------
 Center     Atomic      Atomic             Coordinates (Angstroms)
 Number     Number       Type             X           Y           Z
 ---------------------------------------------------------------------
      1          7           0        0.578060   -1.470560   -0.000000
      2          7           0       -0.192687   -0.699813    0.000000
      3          7           0       -0.192687    0.540186    0.000000
      4          7           0       -0.192687    1.630187    0.000000
 ---------------------------------------------------------------------

 SCF Done:  E(RHF) =  -217.611470333     A.U. after   15 cycles
 E2 =    -0.7608190639D+00 EUMP2 =    -0.21837228939669D+03
 CCSD(T)
 CCSD(T)= -0.21841202412D+03

 The electronic state is 1-A'.
 Alpha  occ. eigenvalues --  -15.80855 -15.73704 -15.68661 -15.56587  -1.59641
 Alpha  occ. eigenvalues --   -1.46986  -1.18678  -0.78497  -0.77014  -0.74365
 Alpha  occ. eigenvalues --   -0.63619  -0.58417  -0.56200  -0.30063
 Alpha virt. eigenvalues --    0.05843   0.10963   0.26549   0.34511   0.41002
 Alpha virt. eigenvalues --    0.49053   0.50424   0.52454   0.56046   0.59618
 Alpha virt. eigenvalues --    0.62385   0.66286   0.70035   0.73743   0.73800

 Mulliken charges:
               1
     1  N   -0.362747
     2  N    0.035151
     3  N    0.346577
     4  N   -0.018982
 Sum of Mulliken charges =  -0.00000

 Dipole moment (field-independent basis, Debye):
    X=             -0.9472    Y=              2.9144    Z=              0.0000  Tot=              3.0644
 Quadrupole moment (field-independent basis, Debye-Ang):
   XX=            -22.8536   YY=            -27.2122   ZZ=            -19.4570
   XY=              1.5299   XZ=             -0.0000   YZ=              0.0000

 4DQ=-218.3575138\MP4SDQ=-218.3710704\CCSD=-218.3683185\CCSD(T)=-218.41
 Normal termination of Gaussian 16 at Fri Feb  9 17:50:41 2024.
