 Gaussian 16, Revision A.03,
 Gaussian 16:  ES64L-G16RevA.03 25-Dec-2016

 ------------------
 #p CCSD(T)/cc-pVTZ
 ------------------

 ---------
 N2_N2_227
 ---------
 Symbolic Z-matrix:
 Charge =  0 Multiplicity = 1

                         Standard orientation:
 ---------------------------------------------------------------------
 Center     Atomic      Atomic             Coordinates (Angstroms)
 Number     Number       Type             X           Y           Z
 ---------------------------------------------------------------------
      1          7           0       -0.817500   -2.272500    0.000000
      2          7           0        0.272500   -2.272500    0.000000
      3          7           0        0.272500    1.727500    0.000000
      4          7           0        0.272500    2.817500    0.000000
 ---------------------------------------------------------------------

 SCF Done:  E(RHF) =  -217.969705098     A.U. after   11 cycles
 E2 =    -0.7435959631D+00 EUMP2 =    -0.21871330106070D+03
 CCSD(T)
 CCSD(T)= -0.21874728206D+03

 The electronic state is 1-A'.
 Alpha  occ. eigenvalues --  -15.67974 -15.67741 -15.67603 -15.67371  -1.47604
 Alpha  occ. eigenvalues --   -1.47365  -0.77586  -0.77340  -0.63451  -0.63124
 Alpha  occ. eigenvalues --   -0.61616  -0.61614  -0.61381  -0.61337
 Alpha virt. eigenvalues --    0.16181   0.16468   0.16730   0.17008   0.39378
 Alpha virt. eigenvalues --    0.42871   0.52369   0.55531   0.55752   0.56411
 Alpha virt. eigenvalues --    0.56727   0.62116   0.67038   0.69673   0.72781

 Mulliken charges:
               1
     1  N   -0.001558
     2  N    0.001952
     3  N   -0.003106
     4  N    0.002711
 Sum of Mulliken charges =  -0.00000

 Dipole moment (field-independent basis, Debye):
    X=              0.0067    Y=              0.0150    Z=              0.0000  Tot=              0.0164
 Quadrupole moment (field-independent basis, Debye-Ang):
   XX=            -21.8966   YY=            -21.8914   ZZ=            -20.4965
   XY=             -0.0065   XZ=              0.0000   YZ=              0.0000

 DQ=-218.7151622\CCSD=-218.7108465\CCSD(T)=-218.7472821\RMSD=9.145e-09\
 Normal termination of Gaussian 16 at Fri Feb  9 19:44:35 2024.
