 Gaussian 16, Revision A.03,
 Gaussian 16:  ES64L-G16RevA.03 25-Dec-2016

 ------------------
 #p CCSD(T)/cc-pVTZ
 ------------------

 ---------
 N2_N2_251
 ---------
 Symbolic Z-matrix:
 Charge =  0 Multiplicity = 1

                         Standard orientation:
 ---------------------------------------------------------------------
 Center     Atomic      Atomic             Coordinates (Angstroms)
 Number     Number       Type             X           Y           Z
 ---------------------------------------------------------------------
      1          7           0       -0.817500   -2.432500    0.000000
      2          7           0        0.272500   -2.432500    0.000000
      3          7           0        0.272500    1.887500    0.000000
      4          7           0        0.272500    2.977500    0.000000
 ---------------------------------------------------------------------

 SCF Done:  E(RHF) =  -217.969692325     A.U. after   10 cycles
 E2 =    -0.7434345902D+00 EUMP2 =    -0.21871312691566D+03
 CCSD(T)
 CCSD(T)= -0.21874713433D+03

 The electronic state is 1-A'.
 Alpha  occ. eigenvalues --  -15.67959 -15.67768 -15.67589 -15.67397  -1.47590
 Alpha  occ. eigenvalues --   -1.47395  -0.77566  -0.77369  -0.63397  -0.63172
 Alpha  occ. eigenvalues --   -0.61601  -0.61600  -0.61410  -0.61388
 Alpha virt. eigenvalues --    0.16351   0.16497   0.16696   0.16842   0.40535
 Alpha virt. eigenvalues --    0.42819   0.53191   0.55827   0.55930   0.56288
 Alpha virt. eigenvalues --    0.56458   0.60684   0.67116   0.68441   0.72244

 Mulliken charges:
               1
     1  N   -0.000892
     2  N    0.001136
     3  N   -0.001273
     4  N    0.001028
 Sum of Mulliken charges =  -0.00000

 Dipole moment (field-independent basis, Debye):
    X=              0.0046    Y=              0.0114    Z=              0.0000  Tot=              0.0123
 Quadrupole moment (field-independent basis, Debye-Ang):
   XX=            -21.8951   YY=            -21.8863   ZZ=            -20.4965
   XY=             -0.0047   XZ=              0.0000   YZ=              0.0000

 DQ=-218.7150329\CCSD=-218.7107194\CCSD(T)=-218.7471343\RMSD=7.643e-09\
 Normal termination of Gaussian 16 at Fri Feb  9 19:56:54 2024.
