 Gaussian 16, Revision A.03,
 Gaussian 16:  ES64L-G16RevA.03 25-Dec-2016

 ------------------
 #p CCSD(T)/cc-pVTZ
 ------------------

 --------
 N2_N2_53
 --------
 Symbolic Z-matrix:
 Charge =  0 Multiplicity = 1

                         Standard orientation:
 ---------------------------------------------------------------------
 Center     Atomic      Atomic             Coordinates (Angstroms)
 Number     Number       Type             X           Y           Z
 ---------------------------------------------------------------------
      1          7           0       -0.817500   -1.112500    0.000000
      2          7           0        0.272500   -1.112500    0.000000
      3          7           0        0.272500    0.567500    0.000000
      4          7           0        0.272500    1.657500    0.000000
 ---------------------------------------------------------------------

 SCF Done:  E(RHF) =  -217.781376883     A.U. after   15 cycles
 E2 =    -0.7651025650D+00 EUMP2 =    -0.21854647944821D+03
 CCSD(T)
 CCSD(T)= -0.21857996500D+03

 The electronic state is 1-A'.
 Alpha  occ. eigenvalues --  -15.68600 -15.67364 -15.66998 -15.61713  -1.50476
 Alpha  occ. eigenvalues --   -1.46038  -0.90305  -0.75693  -0.69708  -0.65554
 Alpha  occ. eigenvalues --   -0.63045  -0.60400  -0.58192  -0.43594
 Alpha virt. eigenvalues --    0.13469   0.13840   0.19355   0.23075   0.41663
 Alpha virt. eigenvalues --    0.44061   0.51447   0.53377   0.55607   0.58678
 Alpha virt. eigenvalues --    0.61585   0.66472   0.73418   0.75093   0.76423

 Mulliken charges:
               1
     1  N   -0.111441
     2  N    0.074157
     3  N    0.032051
     4  N    0.005233
 Sum of Mulliken charges =  -0.00000

 Dipole moment (field-independent basis, Debye):
    X=              0.5862    Y=              0.6482    Z=              0.0000  Tot=              0.8740
 Quadrupole moment (field-independent basis, Debye-Ang):
   XX=            -22.3472   YY=            -23.1894   ZZ=            -20.2322
   XY=             -0.6550   XZ=              0.0000   YZ=              0.0000

 SDQ=-218.5447942\CCSD=-218.5401039\CCSD(T)=-218.579965\RMSD=4.500e-09\
 Normal termination of Gaussian 16 at Fri Feb  9 18:12:51 2024.
