 Gaussian 16, Revision A.03,
 Gaussian 16:  ES64L-G16RevA.03 25-Dec-2016

 ------------------
 #p CCSD(T)/cc-pVTZ
 ------------------

 --------
 N2_N2_63
 --------
 Symbolic Z-matrix:
 Charge =  0 Multiplicity = 1

                         Standard orientation:
 ---------------------------------------------------------------------
 Center     Atomic      Atomic             Coordinates (Angstroms)
 Number     Number       Type             X           Y           Z
 ---------------------------------------------------------------------
      1          7           0        0.000000    0.000000    2.010000
      2          7           0        0.000000    0.000000    0.920000
      3          7           0        0.000000    0.000000   -0.920000
      4          7           0        0.000000    0.000000   -2.010000
 ---------------------------------------------------------------------

 SCF Done:  E(RHF) =  -217.841537905     A.U. after   10 cycles
 E2 =    -0.7580947098D+00 EUMP2 =    -0.21859963261501D+03
 CCSD(T)
 CCSD(T)= -0.21863186509D+03

 The electronic state is 1-SGG.
 Alpha  occ. eigenvalues --  -15.66159 -15.66159 -15.63834 -15.63832  -1.46557
 Alpha  occ. eigenvalues --   -1.45661  -0.88514  -0.72317  -0.67001  -0.61749
 Alpha  occ. eigenvalues --   -0.61749  -0.58936  -0.58936  -0.48598
 Alpha virt. eigenvalues --    0.12885   0.12885   0.22818   0.22818   0.44110
 Alpha virt. eigenvalues --    0.45834   0.54379   0.54379   0.60720   0.60720
 Alpha virt. eigenvalues --    0.63111   0.66901   0.73875   0.73875   0.80673

 Mulliken charges:
               1
     1  N    0.006704
     2  N   -0.006704
     3  N   -0.006704
     4  N    0.006704
 Sum of Mulliken charges =  -0.00000

 Dipole moment (field-independent basis, Debye):
    X=              0.0000    Y=              0.0000    Z=             -0.0000  Tot=              0.0000
 Quadrupole moment (field-independent basis, Debye-Ang):
   XX=            -20.4695   YY=            -20.4695   ZZ=            -24.5666
   XY=              0.0000   XZ=              0.0000   YZ=             -0.0000

 DQ=-218.5992742\CCSD=-218.5937003\CCSD(T)=-218.6318651\RMSD=2.707e-09\
 Normal termination of Gaussian 16 at Fri Feb  9 18:18:13 2024.
