 Gaussian 16, Revision A.03,
 Gaussian 16:  ES64L-G16RevA.03 25-Dec-2016

 ------------------
 #p CCSD(T)/cc-pVTZ
 ------------------

 ---------
 N2_N2_266
 ---------
 Symbolic Z-matrix:
 Charge =  0 Multiplicity = 1

                         Standard orientation:
 ---------------------------------------------------------------------
 Center     Atomic      Atomic             Coordinates (Angstroms)
 Number     Number       Type             X           Y           Z
 ---------------------------------------------------------------------
      1          7           0       -0.817500   -2.532500    0.000000
      2          7           0        0.272500   -2.532500    0.000000
      3          7           0        0.272500    1.987500    0.000000
      4          7           0        0.272500    3.077500    0.000000
 ---------------------------------------------------------------------

 SCF Done:  E(RHF) =  -217.969673326     A.U. after    9 cycles
 E2 =    -0.7433723605D+00 EUMP2 =    -0.21871304568629D+03
 CCSD(T)
 CCSD(T)= -0.21874706424D+03

 The electronic state is 1-A'.
 Alpha  occ. eigenvalues --  -15.67951 -15.67780 -15.67581 -15.67409  -1.47583
 Alpha  occ. eigenvalues --   -1.47409  -0.77557  -0.77383  -0.63379  -0.63191
 Alpha  occ. eigenvalues --   -0.61593  -0.61592  -0.61423  -0.61408
 Alpha virt. eigenvalues --    0.16421   0.16509   0.16681   0.16773   0.41254
 Alpha virt. eigenvalues --    0.42793   0.53764   0.55937   0.55996   0.56236
 Alpha virt. eigenvalues --    0.56353   0.59528   0.67164   0.67906   0.72502

 Mulliken charges:
               1
     1  N   -0.000637
     2  N    0.000794
     3  N   -0.000661
     4  N    0.000504
 Sum of Mulliken charges =   0.00000

 Dipole moment (field-independent basis, Debye):
    X=              0.0038    Y=              0.0102    Z=              0.0000  Tot=              0.0109
 Quadrupole moment (field-independent basis, Debye-Ang):
   XX=            -21.8945   YY=            -21.8874   ZZ=            -20.4964
   XY=             -0.0040   XZ=              0.0000   YZ=              0.0000

 4SDQ=-218.7149699\CCSD=-218.7106572\CCSD(T)=-218.7470642\RMSD=9.403e-0
 Normal termination of Gaussian 16 at Fri Feb  9 20:05:49 2024.
