 Gaussian 16, Revision A.03,
 Gaussian 16:  ES64L-G16RevA.03 25-Dec-2016

 ------------------
 #p CCSD(T)/cc-pVTZ
 ------------------

 ---------
 N2_N2_148
 ---------
 Symbolic Z-matrix:
 Charge =  0 Multiplicity = 1

                         Standard orientation:
 ---------------------------------------------------------------------
 Center     Atomic      Atomic             Coordinates (Angstroms)
 Number     Number       Type             X           Y           Z
 ---------------------------------------------------------------------
      1          7           0        0.578060   -2.330560    0.000000
      2          7           0       -0.192687   -1.559813    0.000000
      3          7           0       -0.192687    1.400187   -0.000000
      4          7           0       -0.192687    2.490186   -0.000000
 ---------------------------------------------------------------------

 SCF Done:  E(RHF) =  -217.967416135     A.U. after   12 cycles
 E2 =    -0.7445768443D+00 EUMP2 =    -0.21871199297888D+03
 CCSD(T)
 CCSD(T)= -0.21874583710D+03

 The electronic state is 1-A'.
 Alpha  occ. eigenvalues --  -15.67732 -15.67481 -15.67353 -15.67110  -1.47417
 Alpha  occ. eigenvalues --   -1.47169  -0.78123  -0.76560  -0.64118  -0.62221
 Alpha  occ. eigenvalues --   -0.61480  -0.61429  -0.61149  -0.60890
 Alpha virt. eigenvalues --    0.15678   0.16251   0.17397   0.17834   0.43055
 Alpha virt. eigenvalues --    0.46120   0.52990   0.53897   0.54074   0.58056
 Alpha virt. eigenvalues --    0.58940   0.63752   0.66964   0.70472   0.71503

 Mulliken charges:
               1
     1  N    0.005781
     2  N   -0.006142
     3  N   -0.003872
     4  N    0.004233
 Sum of Mulliken charges =  -0.00000

 Dipole moment (field-independent basis, Debye):
    X=             -0.0316    Y=              0.0345    Z=             -0.0000  Tot=              0.0468
 Quadrupole moment (field-independent basis, Debye-Ang):
   XX=            -21.2129   YY=            -22.8649   ZZ=            -20.5000
   XY=              0.7198   XZ=             -0.0000   YZ=              0.0000

 4DQ=-218.7028593\MP4SDQ=-218.7136771\CCSD=-218.7092661\CCSD(T)=-218.74
 Normal termination of Gaussian 16 at Fri Feb  9 19:04:06 2024.
