 Gaussian 16, Revision A.03,
 Gaussian 16:  ES64L-G16RevA.03 25-Dec-2016

 ------------------
 #p CCSD(T)/cc-pVTZ
 ------------------

 ---------
 N2_N2_173
 ---------
 Symbolic Z-matrix:
 Charge =  0 Multiplicity = 1

                         Standard orientation:
 ---------------------------------------------------------------------
 Center     Atomic      Atomic             Coordinates (Angstroms)
 Number     Number       Type             X           Y           Z
 ---------------------------------------------------------------------
      1          7           0       -0.817500   -1.912500    0.000000
      2          7           0        0.272500   -1.912500    0.000000
      3          7           0        0.272500    1.367500    0.000000
      4          7           0        0.272500    2.457500    0.000000
 ---------------------------------------------------------------------

 SCF Done:  E(RHF) =  -217.968992502     A.U. after   12 cycles
 E2 =    -0.7444812438D+00 EUMP2 =    -0.21871347374548D+03
 CCSD(T)
 CCSD(T)= -0.21874732703D+03

 The electronic state is 1-A'.
 Alpha  occ. eigenvalues --  -15.67998 -15.67624 -15.67594 -15.67222  -1.47642
 Alpha  occ. eigenvalues --   -1.47221  -0.77723  -0.77185  -0.63877  -0.62886
 Alpha  occ. eigenvalues --   -0.61676  -0.61661  -0.61233  -0.60911
 Alpha virt. eigenvalues --    0.15505   0.16307   0.16916   0.17755   0.40578
 Alpha virt. eigenvalues --    0.43366   0.51246   0.54150   0.55116   0.56899
 Alpha virt. eigenvalues --    0.57898   0.61641   0.66742   0.69195   0.72742

 Mulliken charges:
               1
     1  N   -0.004793
     2  N    0.005321
     3  N   -0.007597
     4  N    0.007069
 Sum of Mulliken charges =  -0.00000

 Dipole moment (field-independent basis, Debye):
    X=              0.0183    Y=              0.0392    Z=              0.0000  Tot=              0.0433
 Quadrupole moment (field-independent basis, Debye-Ang):
   XX=            -21.9064   YY=            -21.9750   ZZ=            -20.4956
   XY=             -0.0214   XZ=              0.0000   YZ=              0.0000

 4SDQ=-218.715103\CCSD=-218.7107774\CCSD(T)=-218.747327\RMSD=2.001e-09\
 Normal termination of Gaussian 16 at Fri Feb  9 19:16:54 2024.
