 Gaussian 16, Revision A.03,
 Gaussian 16:  ES64L-G16RevA.03 25-Dec-2016

 ------------------
 #p CCSD(T)/cc-pVTZ
 ------------------

 ---------
 N2_N2_271
 ---------
 Symbolic Z-matrix:
 Charge =  0 Multiplicity = 1

                         Standard orientation:
 ---------------------------------------------------------------------
 Center     Atomic      Atomic             Coordinates (Angstroms)
 Number     Number       Type             X           Y           Z
 ---------------------------------------------------------------------
      1          7           0        0.578060   -3.150560    0.000000
      2          7           0       -0.192687   -2.379813    0.000000
      3          7           0       -0.192687    2.220186   -0.000000
      4          7           0       -0.192687    3.310187   -0.000000
 ---------------------------------------------------------------------

 SCF Done:  E(RHF) =  -217.969598918     A.U. after   10 cycles
 E2 =    -0.7433226519D+00 EUMP2 =    -0.21871292157007D+03
 CCSD(T)
 CCSD(T)= -0.21874694597D+03

 The electronic state is 1-A'.
 Alpha  occ. eigenvalues --  -15.67862 -15.67795 -15.67491 -15.67425  -1.47497
 Alpha  occ. eigenvalues --   -1.47430  -0.77469  -0.77388  -0.63293  -0.63189
 Alpha  occ. eigenvalues --   -0.61507  -0.61507  -0.61442  -0.61438
 Alpha virt. eigenvalues --    0.16564   0.16577   0.16646   0.16703   0.39418
 Alpha virt. eigenvalues --    0.45145   0.54423   0.56025   0.56070   0.56285
 Alpha virt. eigenvalues --    0.56322   0.58724   0.67280   0.67538   0.73013

 Mulliken charges:
               1
     1  N   -0.000266
     2  N    0.000302
     3  N   -0.000570
     4  N    0.000535
 Sum of Mulliken charges =  -0.00000

 Dipole moment (field-independent basis, Debye):
    X=             -0.0059    Y=              0.0045    Z=             -0.0000  Tot=              0.0074
 Quadrupole moment (field-independent basis, Debye-Ang):
   XX=            -21.1959   YY=            -22.6439   ZZ=            -20.4971
   XY=              0.7021   XZ=             -0.0000   YZ=              0.0000

 4DQ=-218.7040659\MP4SDQ=-218.7148668\CCSD=-218.7105452\CCSD(T)=-218.74
 Normal termination of Gaussian 16 at Fri Feb  9 20:08:20 2024.
