 Gaussian 16, Revision A.03,
 Gaussian 16:  ES64L-G16RevA.03 25-Dec-2016

 ------------------
 #p CCSD(T)/cc-pVTZ
 ------------------

 ---------
 N2_N2_228
 ---------
 Symbolic Z-matrix:
 Charge =  0 Multiplicity = 1

                         Standard orientation:
 ---------------------------------------------------------------------
 Center     Atomic      Atomic             Coordinates (Angstroms)
 Number     Number       Type             X           Y           Z
 ---------------------------------------------------------------------
      1          7           0        0.000000    0.000000    3.110000
      2          7           0        0.000000    0.000000    2.020000
      3          7           0        0.000000    0.000000   -2.020000
      4          7           0        0.000000    0.000000   -3.110000
 ---------------------------------------------------------------------

 SCF Done:  E(RHF) =  -217.969504324     A.U. after   10 cycles
 E2 =    -0.7434674596D+00 EUMP2 =    -0.21871297178349D+03
 CCSD(T)
 CCSD(T)= -0.21874697390D+03

 The electronic state is 1-SGG.
 Alpha  occ. eigenvalues --  -15.67762 -15.67762 -15.67391 -15.67391  -1.47403
 Alpha  occ. eigenvalues --   -1.47401  -0.77447  -0.77266  -0.63316  -0.63012
 Alpha  occ. eigenvalues --   -0.61422  -0.61422  -0.61404  -0.61404
 Alpha virt. eigenvalues --    0.16483   0.16483   0.16910   0.16910   0.35412
 Alpha virt. eigenvalues --    0.47751   0.53230   0.55870   0.55870   0.56560
 Alpha virt. eigenvalues --    0.56560   0.65590   0.67292   0.70027   0.72240

 Mulliken charges:
               1
     1  N    0.005358
     2  N   -0.005358
     3  N   -0.005358
     4  N    0.005358
 Sum of Mulliken charges =  -0.00000

 Dipole moment (field-independent basis, Debye):
    X=              0.0000    Y=              0.0000    Z=              0.0000  Tot=              0.0000
 Quadrupole moment (field-independent basis, Debye-Ang):
   XX=            -20.4987   YY=            -20.4987   ZZ=            -23.4249
   XY=              0.0000   XZ=              0.0000   YZ=             -0.0000

 P4SDQ=-218.7148932\CCSD=-218.710553\CCSD(T)=-218.7469739\RMSD=6.456e-1
 Normal termination of Gaussian 16 at Fri Feb  9 19:45:05 2024.
