 Gaussian 16, Revision A.03,
 Gaussian 16:  ES64L-G16RevA.03 25-Dec-2016

 ------------------
 #p CCSD(T)/cc-pVTZ
 ------------------

 ---------
 N2_N2_280
 ---------
 Symbolic Z-matrix:
 Charge =  0 Multiplicity = 1

                         Standard orientation:
 ---------------------------------------------------------------------
 Center     Atomic      Atomic             Coordinates (Angstroms)
 Number     Number       Type             X           Y           Z
 ---------------------------------------------------------------------
      1          7           0        0.578060   -3.210560    0.000000
      2          7           0       -0.192687   -2.439813    0.000000
      3          7           0       -0.192687    2.280187   -0.000000
      4          7           0       -0.192687    3.370186   -0.000000
 ---------------------------------------------------------------------

 SCF Done:  E(RHF) =  -217.969597186     A.U. after   10 cycles
 E2 =    -0.7433027679D+00 EUMP2 =    -0.21871289995415D+03
 CCSD(T)
 CCSD(T)= -0.21874692847D+03

 The electronic state is 1-A'.
 Alpha  occ. eigenvalues --  -15.67863 -15.67801 -15.67493 -15.67430  -1.47498
 Alpha  occ. eigenvalues --   -1.47436  -0.77469  -0.77396  -0.63289  -0.63201
 Alpha  occ. eigenvalues --   -0.61509  -0.61508  -0.61447  -0.61444
 Alpha virt. eigenvalues --    0.16575   0.16586   0.16644   0.16686   0.39908
 Alpha virt. eigenvalues --    0.44863   0.54693   0.56061   0.56094   0.56257
 Alpha virt. eigenvalues --    0.56282   0.58183   0.67296   0.67489   0.73101

 Mulliken charges:
               1
     1  N   -0.000393
     2  N    0.000419
     3  N   -0.000312
     4  N    0.000286
 Sum of Mulliken charges =  -0.00000

 Dipole moment (field-independent basis, Debye):
    X=             -0.0053    Y=              0.0042    Z=             -0.0000  Tot=              0.0068
 Quadrupole moment (field-independent basis, Debye-Ang):
   XX=            -21.1957   YY=            -22.6410   ZZ=            -20.4970
   XY=              0.7017   XZ=             -0.0000   YZ=              0.0000

 -218.7040498\MP4SDQ=-218.7148503\CCSD=-218.7105302\CCSD(T)=-218.746928
 Normal termination of Gaussian 16 at Fri Feb  9 20:13:01 2024.
