 Gaussian 16, Revision A.03,
 Gaussian 16:  ES64L-G16RevA.03 25-Dec-2016

 ------------------
 #p CCSD(T)/cc-pVTZ
 ------------------

 ---------
 N2_N2_128
 ---------
 Symbolic Z-matrix:
 Charge =  0 Multiplicity = 1

                         Standard orientation:
 ---------------------------------------------------------------------
 Center     Atomic      Atomic             Coordinates (Angstroms)
 Number     Number       Type             X           Y           Z
 ---------------------------------------------------------------------
      1          7           0       -0.817500   -1.612500    0.000000
      2          7           0        0.272500   -1.612500    0.000000
      3          7           0        0.272500    1.067500    0.000000
      4          7           0        0.272500    2.157500    0.000000
 ---------------------------------------------------------------------

 SCF Done:  E(RHF) =  -217.962209655     A.U. after   12 cycles
 E2 =    -0.7468271839D+00 EUMP2 =    -0.21870903683874D+03
 CCSD(T)
 CCSD(T)= -0.21874252658D+03

 The electronic state is 1-A'.
 Alpha  occ. eigenvalues --  -15.67925 -15.67462 -15.67218 -15.66826  -1.47660
 Alpha  occ. eigenvalues --   -1.46927  -0.78353  -0.76799  -0.65167  -0.62557
 Alpha  occ. eigenvalues --   -0.61821  -0.61660  -0.60853  -0.59224
 Alpha virt. eigenvalues --    0.14680   0.15987   0.17316   0.19000   0.42064
 Alpha virt. eigenvalues --    0.45790   0.52883   0.54663   0.55718   0.58609
 Alpha virt. eigenvalues --    0.59367   0.59428   0.66327   0.71394   0.72887

 Mulliken charges:
               1
     1  N   -0.008953
     2  N    0.009659
     3  N   -0.001352
     4  N    0.000645
 Sum of Mulliken charges =  -0.00000

 Dipole moment (field-independent basis, Debye):
    X=              0.0491    Y=              0.0835    Z=              0.0000  Tot=              0.0969
 Quadrupole moment (field-independent basis, Debye-Ang):
   XX=            -21.9319   YY=            -22.1802   ZZ=            -20.4895
   XY=             -0.0720   XZ=              0.0000   YZ=              0.0000

 SDQ=-218.7100582\CCSD=-218.7056986\CCSD(T)=-218.7425266\RMSD=3.570e-09
 Normal termination of Gaussian 16 at Fri Feb  9 18:52:29 2024.
