 Gaussian 16, Revision A.03,
 Gaussian 16:  ES64L-G16RevA.03 25-Dec-2016

 ------------------
 #p CCSD(T)/cc-pVTZ
 ------------------

 ---------
 N2_N2_134
 ---------
 Symbolic Z-matrix:
 Charge =  0 Multiplicity = 1

                         Standard orientation:
 ---------------------------------------------------------------------
 Center     Atomic      Atomic             Coordinates (Angstroms)
 Number     Number       Type             X           Y           Z
 ---------------------------------------------------------------------
      1          7           0       -0.817500   -1.652500    0.000000
      2          7           0        0.272500   -1.652500    0.000000
      3          7           0        0.272500    1.107500    0.000000
      4          7           0        0.272500    2.197500    0.000000
 ---------------------------------------------------------------------

 SCF Done:  E(RHF) =  -217.964096245     A.U. after   12 cycles
 E2 =    -0.7463244551D+00 EUMP2 =    -0.21871042069992D+03
 CCSD(T)
 CCSD(T)= -0.21874399024D+03

 The electronic state is 1-A'.
 Alpha  occ. eigenvalues --  -15.67943 -15.67511 -15.67292 -15.66907  -1.47658
 Alpha  occ. eigenvalues --   -1.46981  -0.78196  -0.76874  -0.64914  -0.62604
 Alpha  occ. eigenvalues --   -0.61788  -0.61669  -0.60931  -0.59595
 Alpha virt. eigenvalues --    0.14800   0.16044   0.17241   0.18789   0.42035
 Alpha virt. eigenvalues --    0.45674   0.52990   0.53947   0.55447   0.58046
 Alpha virt. eigenvalues --    0.59155   0.59613   0.66365   0.70870   0.72839

 Mulliken charges:
               1
     1  N   -0.008015
     2  N    0.008827
     3  N   -0.002624
     4  N    0.001812
 Sum of Mulliken charges =  -0.00000

 Dipole moment (field-independent basis, Debye):
    X=              0.0425    Y=              0.0759    Z=              0.0000  Tot=              0.0870
 Quadrupole moment (field-independent basis, Debye-Ang):
   XX=            -21.9269   YY=            -22.1418   ZZ=            -20.4914
   XY=             -0.0609   XZ=              0.0000   YZ=              0.0000

 Q=-218.711571\CCSD=-218.7072197\CCSD(T)=-218.7439902\RMSD=2.735e-09\PG
 Normal termination of Gaussian 16 at Fri Feb  9 18:55:35 2024.
