 Gaussian 16, Revision A.03,
 Gaussian 16:  ES64L-G16RevA.03 25-Dec-2016

 ------------------
 #p CCSD(T)/cc-pVTZ
 ------------------

 --------
 N2_N2_81
 --------
 Symbolic Z-matrix:
 Charge =  0 Multiplicity = 1

                         Standard orientation:
 ---------------------------------------------------------------------
 Center     Atomic      Atomic             Coordinates (Angstroms)
 Number     Number       Type             X           Y           Z
 ---------------------------------------------------------------------
      1          7           0        0.000000    0.000000    2.130000
      2          7           0        0.000000    0.000000    1.040000
      3          7           0        0.000000    0.000000   -1.040000
      4          7           0        0.000000    0.000000   -2.130000
 ---------------------------------------------------------------------

 SCF Done:  E(RHF) =  -217.911821380     A.U. after   10 cycles
 E2 =    -0.7511419140D+00 EUMP2 =    -0.21866296329358D+03
 CCSD(T)
 CCSD(T)= -0.21869606449D+03

 The electronic state is 1-SGG.
 Alpha  occ. eigenvalues --  -15.66570 -15.66570 -15.65210 -15.65208  -1.46696
 Alpha  occ. eigenvalues --   -1.46245  -0.83626  -0.73471  -0.66370  -0.61388
 Alpha  occ. eigenvalues --   -0.61388  -0.59814  -0.59814  -0.54555
 Alpha virt. eigenvalues --    0.13837   0.13837   0.21151   0.21151   0.44428
 Alpha virt. eigenvalues --    0.46421   0.54037   0.54037   0.60034   0.60034
 Alpha virt. eigenvalues --    0.65208   0.66961   0.72423   0.72423   0.76170

 Mulliken charges:
               1
     1  N   -0.007122
     2  N    0.007122
     3  N    0.007122
     4  N   -0.007122
 Sum of Mulliken charges =   0.00000

 Dipole moment (field-independent basis, Debye):
    X=             -0.0000    Y=              0.0000    Z=             -0.0000  Tot=              0.0000
 Quadrupole moment (field-independent basis, Debye-Ang):
   XX=            -20.4900   YY=            -20.4900   ZZ=            -24.3714
   XY=              0.0000   XZ=              0.0000   YZ=             -0.0000

 4SDQ=-218.6637066\CCSD=-218.6587206\CCSD(T)=-218.6960645\RMSD=9.153e-1
 Normal termination of Gaussian 16 at Fri Feb  9 18:27:43 2024.
