 Gaussian 16, Revision A.03,
 Gaussian 16:  ES64L-G16RevA.03 25-Dec-2016

 ------------------
 #p CCSD(T)/cc-pVTZ
 ------------------

 --------
 N2_N2_46
 --------
 Symbolic Z-matrix:
 Charge =  0 Multiplicity = 1

                         Standard orientation:
 ---------------------------------------------------------------------
 Center     Atomic      Atomic             Coordinates (Angstroms)
 Number     Number       Type             X           Y           Z
 ---------------------------------------------------------------------
      1          7           0        0.578060   -1.650560    0.000000
      2          7           0       -0.192687   -0.879813    0.000000
      3          7           0       -0.192687    0.720187   -0.000000
      4          7           0       -0.192687    1.810186   -0.000000
 ---------------------------------------------------------------------

 SCF Done:  E(RHF) =  -217.762327379     A.U. after   15 cycles
 E2 =    -0.7683235793D+00 EUMP2 =    -0.21853065095787D+03
 CCSD(T)
 CCSD(T)= -0.21856227947D+03

 The electronic state is 1-A'.
 Alpha  occ. eigenvalues --  -15.70142 -15.68672 -15.64343 -15.61853  -1.50331
 Alpha  occ. eigenvalues --   -1.44740  -0.97358  -0.73064  -0.67495  -0.65662
 Alpha  occ. eigenvalues --   -0.65182  -0.58830  -0.57744  -0.41267
 Alpha virt. eigenvalues --    0.10748   0.13732   0.23490   0.23835   0.43008
 Alpha virt. eigenvalues --    0.47279   0.52122   0.53245   0.59964   0.61035
 Alpha virt. eigenvalues --    0.61846   0.64417   0.69330   0.75034   0.80286

 Mulliken charges:
               1
     1  N   -0.106662
     2  N   -0.011423
     3  N    0.070349
     4  N    0.047736
 Sum of Mulliken charges =  -0.00000

 Dipole moment (field-independent basis, Debye):
    X=             -0.3150    Y=              1.5531    Z=             -0.0000  Tot=              1.5847
 Quadrupole moment (field-independent basis, Debye-Ang):
   XX=            -21.7842   YY=            -24.3159   ZZ=            -20.2537
   XY=              0.8362   XZ=             -0.0000   YZ=              0.0000

 DQ=-218.516201\MP4SDQ=-218.528319\CCSD=-218.5219912\CCSD(T)=-218.56227
 Normal termination of Gaussian 16 at Fri Feb  9 18:08:52 2024.
