 Gaussian 16, Revision A.03,
 Gaussian 16:  ES64L-G16RevA.03 25-Dec-2016

 ------------------
 #p CCSD(T)/cc-pVTZ
 ------------------

 ---------
 N2_N2_279
 ---------
 Symbolic Z-matrix:
 Charge =  0 Multiplicity = 1

                         Standard orientation:
 ---------------------------------------------------------------------
 Center     Atomic      Atomic             Coordinates (Angstroms)
 Number     Number       Type             X           Y           Z
 ---------------------------------------------------------------------
      1          7           0        0.000000    0.000000    3.450000
      2          7           0        0.000000    0.000000    2.360000
      3          7           0        0.000000    0.000000   -2.360000
      4          7           0        0.000000    0.000000   -3.450000
 ---------------------------------------------------------------------

 SCF Done:  E(RHF) =  -217.969567199     A.U. after    9 cycles
 E2 =    -0.7432990463D+00 EUMP2 =    -0.21871286624576D+03
 CCSD(T)
 CCSD(T)= -0.21874689529D+03

 The electronic state is 1-SGG.
 Alpha  occ. eigenvalues --  -15.67804 -15.67804 -15.67433 -15.67433  -1.47441
 Alpha  occ. eigenvalues --   -1.47441  -0.77422  -0.77382  -0.63251  -0.63176
 Alpha  occ. eigenvalues --   -0.61454  -0.61454  -0.61450  -0.61450
 Alpha virt. eigenvalues --    0.16609   0.16609   0.16708   0.16708   0.38226
 Alpha virt. eigenvalues --    0.46252   0.54592   0.56127   0.56127   0.56272
 Alpha virt. eigenvalues --    0.56272   0.59144   0.67347   0.67508   0.73115

 Mulliken charges:
               1
     1  N    0.000548
     2  N   -0.000548
     3  N   -0.000548
     4  N    0.000548
 Sum of Mulliken charges =  -0.00000

 Dipole moment (field-independent basis, Debye):
    X=              0.0000    Y=             -0.0000    Z=             -0.0000  Tot=              0.0000
 Quadrupole moment (field-independent basis, Debye-Ang):
   XX=            -20.4975   YY=            -20.4975   ZZ=            -23.3775
   XY=              0.0000   XZ=              0.0000   YZ=             -0.0000

 P4SDQ=-218.7148211\CCSD=-218.710497\CCSD(T)=-218.7468953\RMSD=9.793e-0
 Normal termination of Gaussian 16 at Fri Feb  9 20:12:28 2024.
