 Gaussian 16, Revision A.03,
 Gaussian 16:  ES64L-G16RevA.03 25-Dec-2016

 ------------------
 #p CCSD(T)/cc-pVTZ
 ------------------

 ---------
 N2_N2_106
 ---------
 Symbolic Z-matrix:
 Charge =  0 Multiplicity = 1

                         Standard orientation:
 ---------------------------------------------------------------------
 Center     Atomic      Atomic             Coordinates (Angstroms)
 Number     Number       Type             X           Y           Z
 ---------------------------------------------------------------------
      1          7           0        0.578060   -2.050560   -0.000000
      2          7           0       -0.192687   -1.279813   -0.000000
      3          7           0       -0.192687    1.120186    0.000000
      4          7           0       -0.192687    2.210187    0.000000
 ---------------------------------------------------------------------

 SCF Done:  E(RHF) =  -217.953285006     A.U. after   13 cycles
 E2 =    -0.7472427017D+00 EUMP2 =    -0.21870052770752D+03
 CCSD(T)
 CCSD(T)= -0.21873397034D+03

 The electronic state is 1-A'.
 Alpha  occ. eigenvalues --  -15.67527 -15.66938 -15.66881 -15.66484  -1.47333
 Alpha  occ. eigenvalues --   -1.46765  -0.80146  -0.75222  -0.65504  -0.61865
 Alpha  occ. eigenvalues --   -0.61590  -0.60993  -0.60616  -0.58577
 Alpha virt. eigenvalues --    0.14774   0.16010   0.18489   0.19143   0.45149
 Alpha virt. eigenvalues --    0.45793   0.52314   0.53429   0.59017   0.59353
 Alpha virt. eigenvalues --    0.62226   0.63737   0.66538   0.71524   0.77995

 Mulliken charges:
               1
     1  N    0.000710
     2  N   -0.004409
     3  N    0.005964
     4  N   -0.002265
 Sum of Mulliken charges =  -0.00000

 Dipole moment (field-independent basis, Debye):
    X=             -0.0700    Y=              0.1104    Z=              0.0000  Tot=              0.1308
 Quadrupole moment (field-independent basis, Debye-Ang):
   XX=            -21.2455   YY=            -23.1977   ZZ=            -20.4918
   XY=              0.7456   XZ=             -0.0000   YZ=             -0.0000

 4DQ=-218.6908322\MP4SDQ=-218.7016639\CCSD=-218.6970675\CCSD(T)=-218.73
 Normal termination of Gaussian 16 at Fri Feb  9 18:40:58 2024.
