 Gaussian 16, Revision A.03,
 Gaussian 16:  ES64L-G16RevA.03 25-Dec-2016

 ------------------
 #p CCSD(T)/cc-pVTZ
 ------------------

 ---------
 N2_N2_138
 ---------
 Symbolic Z-matrix:
 Charge =  0 Multiplicity = 1

                         Standard orientation:
 ---------------------------------------------------------------------
 Center     Atomic      Atomic             Coordinates (Angstroms)
 Number     Number       Type             X           Y           Z
 ---------------------------------------------------------------------
      1          7           0        0.000000    0.000000    2.510000
      2          7           0        0.000000    0.000000    1.420000
      3          7           0        0.000000    0.000000   -1.420000
      4          7           0        0.000000    0.000000   -2.510000
 ---------------------------------------------------------------------

 SCF Done:  E(RHF) =  -217.965378283     A.U. after   10 cycles
 E2 =    -0.7447009470D+00 EUMP2 =    -0.21871007923030D+03
 CCSD(T)
 CCSD(T)= -0.21874392733D+03

 The electronic state is 1-SGG.
 Alpha  occ. eigenvalues --  -15.67418 -15.67418 -15.67026 -15.67026  -1.47178
 Alpha  occ. eigenvalues --   -1.47123  -0.78342  -0.76145  -0.64303  -0.61310
 Alpha  occ. eigenvalues --   -0.61310  -0.61309  -0.61039  -0.61039
 Alpha virt. eigenvalues --    0.15486   0.15486   0.18303   0.18303   0.45733
 Alpha virt. eigenvalues --    0.46125   0.54083   0.54083   0.54435   0.58224
 Alpha virt. eigenvalues --    0.58224   0.66658   0.67126   0.70085   0.70085

 Mulliken charges:
               1
     1  N   -0.002331
     2  N    0.002331
     3  N    0.002331
     4  N   -0.002331
 Sum of Mulliken charges =  -0.00000

 Dipole moment (field-independent basis, Debye):
    X=              0.0000    Y=              0.0000    Z=             -0.0000  Tot=              0.0000
 Quadrupole moment (field-independent basis, Debye-Ang):
   XX=            -20.5045   YY=            -20.5045   ZZ=            -23.7460
   XY=              0.0000   XZ=              0.0000   YZ=             -0.0000

 SDQ=-218.7117975\CCSD=-218.7073368\CCSD(T)=-218.7439273\RMSD=8.233e-10
 Normal termination of Gaussian 16 at Fri Feb  9 18:57:35 2024.
