 Gaussian 16, Revision A.03,
 Gaussian 16:  ES64L-G16RevA.03 25-Dec-2016

 ------------------
 #p CCSD(T)/cc-pVTZ
 ------------------

 ---------
 N2_N2_205
 ---------
 Symbolic Z-matrix:
 Charge =  0 Multiplicity = 1

                         Standard orientation:
 ---------------------------------------------------------------------
 Center     Atomic      Atomic             Coordinates (Angstroms)
 Number     Number       Type             X           Y           Z
 ---------------------------------------------------------------------
      1          7           0        0.578060   -2.710560    0.000000
      2          7           0       -0.192687   -1.939813    0.000000
      3          7           0       -0.192687    1.780186    0.000000
      4          7           0       -0.192687    2.870187    0.000000
 ---------------------------------------------------------------------

 SCF Done:  E(RHF) =  -217.969490090     A.U. after   11 cycles
 E2 =    -0.7436421915D+00 EUMP2 =    -0.21871313228129D+03
 CCSD(T)
 CCSD(T)= -0.21874710667D+03

 The electronic state is 1-A'.
 Alpha  occ. eigenvalues --  -15.67839 -15.67718 -15.67469 -15.67347  -1.47478
 Alpha  occ. eigenvalues --   -1.47357  -0.77551  -0.77212  -0.63440  -0.62947
 Alpha  occ. eigenvalues --   -0.61493  -0.61490  -0.61367  -0.61348
 Alpha virt. eigenvalues --    0.16319   0.16432   0.16775   0.17023   0.37918
 Alpha virt. eigenvalues --    0.46045   0.52585   0.55191   0.55482   0.56841
 Alpha virt. eigenvalues --    0.57118   0.63199   0.67120   0.68829   0.71626

 Mulliken charges:
               1
     1  N    0.002920
     2  N   -0.002912
     3  N   -0.006136
     4  N    0.006128
 Sum of Mulliken charges =  -0.00000

 Dipole moment (field-independent basis, Debye):
    X=             -0.0134    Y=              0.0113    Z=              0.0000  Tot=              0.0175
 Quadrupole moment (field-independent basis, Debye-Ang):
   XX=            -21.1995   YY=            -22.6973   ZZ=            -20.4982
   XY=              0.7078   XZ=              0.0000   YZ=             -0.0000

 P4DQ=-218.7041983\MP4SDQ=-218.7150072\CCSD=-218.7106631\CCSD(T)=-218.7
 Normal termination of Gaussian 16 at Fri Feb  9 19:33:14 2024.
