 Gaussian 16, Revision A.03,
 Gaussian 16:  ES64L-G16RevA.03 25-Dec-2016

 ------------------
 #p CCSD(T)/cc-pVTZ
 ------------------

 ---------
 N2_N2_289
 ---------
 Symbolic Z-matrix:
 Charge =  0 Multiplicity = 1

                         Standard orientation:
 ---------------------------------------------------------------------
 Center     Atomic      Atomic             Coordinates (Angstroms)
 Number     Number       Type             X           Y           Z
 ---------------------------------------------------------------------
      1          7           0        0.578060   -3.270560    0.000000
      2          7           0       -0.192687   -2.499813    0.000000
      3          7           0       -0.192687    2.340187   -0.000000
      4          7           0       -0.192687    3.430186   -0.000000
 ---------------------------------------------------------------------

 SCF Done:  E(RHF) =  -217.969595102     A.U. after   10 cycles
 E2 =    -0.7432868099D+00 EUMP2 =    -0.21871288191236D+03
 CCSD(T)
 CCSD(T)= -0.21874691389D+03

 The electronic state is 1-A'.
 Alpha  occ. eigenvalues --  -15.67865 -15.67806 -15.67494 -15.67435  -1.47500
 Alpha  occ. eigenvalues --   -1.47441  -0.77469  -0.77404  -0.63287  -0.63211
 Alpha  occ. eigenvalues --   -0.61510  -0.61510  -0.61452  -0.61450
 Alpha virt. eigenvalues --    0.16582   0.16590   0.16644   0.16672   0.40370
 Alpha virt. eigenvalues --    0.44573   0.54944   0.56087   0.56111   0.56235
 Alpha virt. eigenvalues --    0.56251   0.57729   0.67310   0.67454   0.73169

 Mulliken charges:
               1
     1  N   -0.000464
     2  N    0.000482
     3  N   -0.000145
     4  N    0.000127
 Sum of Mulliken charges =  -0.00000

 Dipole moment (field-independent basis, Debye):
    X=             -0.0049    Y=              0.0039    Z=              0.0000  Tot=              0.0062
 Quadrupole moment (field-independent basis, Debye-Ang):
   XX=            -21.1955   YY=            -22.6384   ZZ=            -20.4969
   XY=              0.7014   XZ=             -0.0000   YZ=              0.0000

 4DQ=-218.7040362\MP4SDQ=-218.7148364\CCSD=-218.7105175\CCSD(T)=-218.74
 Normal termination of Gaussian 16 at Fri Feb  9 20:17:33 2024.
