 Gaussian 16, Revision A.03,
 Gaussian 16:  ES64L-G16RevA.03 25-Dec-2016

 ------------------
 #p CCSD(T)/cc-pVTZ
 ------------------

 ---------
 N2_N2_237
 ---------
 Symbolic Z-matrix:
 Charge =  0 Multiplicity = 1

                         Standard orientation:
 ---------------------------------------------------------------------
 Center     Atomic      Atomic             Coordinates (Angstroms)
 Number     Number       Type             X           Y           Z
 ---------------------------------------------------------------------
      1          7           0        0.000000    0.000000    3.170000
      2          7           0        0.000000    0.000000    2.080000
      3          7           0        0.000000    0.000000   -2.080000
      4          7           0        0.000000    0.000000   -3.170000
 ---------------------------------------------------------------------

 SCF Done:  E(RHF) =  -217.969529701     A.U. after    9 cycles
 E2 =    -0.7434267975D+00 EUMP2 =    -0.21871295649811D+03
 CCSD(T)
 CCSD(T)= -0.21874696419D+03

 The electronic state is 1-SGG.
 Alpha  occ. eigenvalues --  -15.67772 -15.67772 -15.67401 -15.67401  -1.47412
 Alpha  occ. eigenvalues --   -1.47411  -0.77437  -0.77297  -0.63295  -0.63056
 Alpha  occ. eigenvalues --   -0.61429  -0.61429  -0.61415  -0.61415
 Alpha virt. eigenvalues --    0.16520   0.16520   0.16857   0.16857   0.35539
 Alpha virt. eigenvalues --    0.47671   0.53444   0.55946   0.55946   0.56483
 Alpha virt. eigenvalues --    0.56483   0.64646   0.67303   0.68743   0.72462

 Mulliken charges:
               1
     1  N    0.004266
     2  N   -0.004266
     3  N   -0.004266
     4  N    0.004266
 Sum of Mulliken charges =  -0.00000

 Dipole moment (field-independent basis, Debye):
    X=              0.0000    Y=             -0.0000    Z=              0.0000  Tot=              0.0000
 Quadrupole moment (field-independent basis, Debye-Ang):
   XX=            -20.4984   YY=            -20.4984   ZZ=            -23.4129
   XY=              0.0000   XZ=              0.0000   YZ=             -0.0000

 P4SDQ=-218.7148853\CCSD=-218.7105489\CCSD(T)=-218.7469642\RMSD=9.989e-
 Normal termination of Gaussian 16 at Fri Feb  9 19:49:39 2024.
