 Gaussian 16, Revision A.03,
 Gaussian 16:  ES64L-G16RevA.03 25-Dec-2016

 ------------------
 #p CCSD(T)/cc-pVTZ
 ------------------

 ---------
 N2_N2_107
 ---------
 Symbolic Z-matrix:
 Charge =  0 Multiplicity = 1

                         Standard orientation:
 ---------------------------------------------------------------------
 Center     Atomic      Atomic             Coordinates (Angstroms)
 Number     Number       Type             X           Y           Z
 ---------------------------------------------------------------------
      1          7           0       -0.817500   -1.472500    0.000000
      2          7           0        0.272500   -1.472500    0.000000
      3          7           0        0.272500    0.927500    0.000000
      4          7           0        0.272500    2.017500    0.000000
 ---------------------------------------------------------------------

 SCF Done:  E(RHF) =  -217.949801156     A.U. after   13 cycles
 E2 =    -0.7494809360D+00 EUMP2 =    -0.21869928209224D+03
 CCSD(T)
 CCSD(T)= -0.21873235832D+03

 The electronic state is 1-A'.
 Alpha  occ. eigenvalues --  -15.67841 -15.67147 -15.66890 -15.66412  -1.47685
 Alpha  occ. eigenvalues --   -1.46695  -0.79313  -0.76462  -0.66256  -0.62420
 Alpha  occ. eigenvalues --   -0.62020  -0.61558  -0.60470  -0.57323
 Alpha virt. eigenvalues --    0.14242   0.15734   0.17658   0.19878   0.42076
 Alpha virt. eigenvalues --    0.45649   0.52779   0.55564   0.56610   0.57530
 Alpha virt. eigenvalues --    0.60131   0.64902   0.66390   0.73135   0.73720

 Mulliken charges:
               1
     1  N   -0.015378
     2  N    0.015220
     3  N    0.000504
     4  N   -0.000347
 Sum of Mulliken charges =   0.00000

 Dipole moment (field-independent basis, Debye):
    X=              0.0848    Y=              0.1160    Z=              0.0000  Tot=              0.1437
 Quadrupole moment (field-independent basis, Debye-Ang):
   XX=            -21.9549   YY=            -22.3485   ZZ=            -20.4746
   XY=             -0.1296   XZ=              0.0000   YZ=              0.0000

 SDQ=-218.6996446\CCSD=-218.6952325\CCSD(T)=-218.7323583\RMSD=3.151e-09
 Normal termination of Gaussian 16 at Fri Feb  9 18:41:29 2024.
