 Gaussian 16, Revision A.03,
 Gaussian 16:  ES64L-G16RevA.03 25-Dec-2016

 ------------------
 #p CCSD(T)/cc-pVTZ
 ------------------

 -------
 N2_N2_8
 -------
 Symbolic Z-matrix:
 Charge =  0 Multiplicity = 1

                         Standard orientation:
 ---------------------------------------------------------------------
 Center     Atomic      Atomic             Coordinates (Angstroms)
 Number     Number       Type             X           Y           Z
 ---------------------------------------------------------------------
      1          7           0       -0.817500   -0.812500    0.000000
      2          7           0        0.272500   -0.812500    0.000000
      3          7           0        0.272500    0.267500    0.000000
      4          7           0        0.272500    1.357500    0.000000
 ---------------------------------------------------------------------

 SCF Done:  E(RHF) =  -217.462060863     A.U. after   15 cycles
 E2 =    -0.7596204423D+00 EUMP2 =    -0.21822168130482D+03
 CCSD(T)
 CCSD(T)= -0.21825579289D+03

 The electronic state is 1-A'.
 Alpha  occ. eigenvalues --  -15.82098 -15.67972 -15.67183 -15.61193  -1.77726
 Alpha  occ. eigenvalues --   -1.48534  -1.16680  -0.86715  -0.85653  -0.69977
 Alpha  occ. eigenvalues --   -0.65579  -0.58241  -0.53119  -0.33662
 Alpha virt. eigenvalues --    0.07148   0.17897   0.23540   0.37490   0.41533
 Alpha virt. eigenvalues --    0.44032   0.49512   0.49809   0.54174   0.59891
 Alpha virt. eigenvalues --    0.60239   0.65393   0.69531   0.74718   0.75405

 Mulliken charges:
               1
     1  N   -0.307614
     2  N    0.047331
     3  N    0.396708
     4  N   -0.136425
 Sum of Mulliken charges =  -0.00000

 Dipole moment (field-independent basis, Debye):
    X=              1.1537    Y=              0.5028    Z=              0.0000  Tot=              1.2585
 Quadrupole moment (field-independent basis, Debye-Ang):
   XX=            -23.1749   YY=            -25.6832   ZZ=            -19.0582
   XY=             -0.8978   XZ=              0.0000   YZ=              0.0000

 DQ=-218.2165515\CCSD=-218.2144563\CCSD(T)=-218.2557929\RMSD=4.505e-09\
 Normal termination of Gaussian 16 at Fri Feb  9 17:44:22 2024.
