 Gaussian 16, Revision A.03,
 Gaussian 16:  ES64L-G16RevA.03 25-Dec-2016

 ------------------
 #p CCSD(T)/cc-pVTZ
 ------------------

 ---------
 N2_N2_234
 ---------
 Symbolic Z-matrix:
 Charge =  0 Multiplicity = 1

                         Standard orientation:
 ---------------------------------------------------------------------
 Center     Atomic      Atomic             Coordinates (Angstroms)
 Number     Number       Type             X           Y           Z
 ---------------------------------------------------------------------
      1          7           0        0.000000    0.000000    3.150000
      2          7           0        0.000000    0.000000    2.060000
      3          7           0        0.000000    0.000000   -2.060000
      4          7           0        0.000000    0.000000   -3.150000
 ---------------------------------------------------------------------

 SCF Done:  E(RHF) =  -217.969522357     A.U. after   10 cycles
 E2 =    -0.7434397361D+00 EUMP2 =    -0.21871296209324D+03
 CCSD(T)
 CCSD(T)= -0.21874696797D+03

 The electronic state is 1-SGG.
 Alpha  occ. eigenvalues --  -15.67769 -15.67769 -15.67398 -15.67398  -1.47409
 Alpha  occ. eigenvalues --   -1.47408  -0.77440  -0.77287  -0.63301  -0.63042
 Alpha  occ. eigenvalues --   -0.61427  -0.61427  -0.61411  -0.61411
 Alpha virt. eigenvalues --    0.16509   0.16509   0.16874   0.16874   0.35471
 Alpha virt. eigenvalues --    0.47707   0.53371   0.55922   0.55922   0.56507
 Alpha virt. eigenvalues --    0.56507   0.65013   0.67299   0.69087   0.72391

 Mulliken charges:
               1
     1  N    0.004634
     2  N   -0.004634
     3  N   -0.004634
     4  N    0.004634
 Sum of Mulliken charges =   0.00000

 Dipole moment (field-independent basis, Debye):
    X=              0.0000    Y=              0.0000    Z=              0.0000  Tot=              0.0000
 Quadrupole moment (field-independent basis, Debye-Ang):
   XX=            -20.4985   YY=            -20.4985   ZZ=            -23.4166
   XY=              0.0000   XZ=              0.0000   YZ=             -0.0000

 P4SDQ=-218.7148885\CCSD=-218.7105509\CCSD(T)=-218.746968\RMSD=6.374e-1
 Normal termination of Gaussian 16 at Fri Feb  9 19:48:09 2024.
