 Gaussian 16, Revision A.03,
 Gaussian 16:  ES64L-G16RevA.03 25-Dec-2016

 ------------------
 #p CCSD(T)/cc-pVTZ
 ------------------

 ---------
 N2_N2_150
 ---------
 Symbolic Z-matrix:
 Charge =  0 Multiplicity = 1

                         Standard orientation:
 ---------------------------------------------------------------------
 Center     Atomic      Atomic             Coordinates (Angstroms)
 Number     Number       Type             X           Y           Z
 ---------------------------------------------------------------------
      1          7           0        0.000000    0.000000    2.590000
      2          7           0        0.000000    0.000000    1.500000
      3          7           0        0.000000    0.000000   -1.500000
      4          7           0        0.000000    0.000000   -2.590000
 ---------------------------------------------------------------------

 SCF Done:  E(RHF) =  -217.967166489     A.U. after   10 cycles
 E2 =    -0.7443460415D+00 EUMP2 =    -0.21871151253066D+03
 CCSD(T)
 CCSD(T)= -0.21874540592D+03

 The electronic state is 1-SGG.
 Alpha  occ. eigenvalues --  -15.67513 -15.67513 -15.67136 -15.67136  -1.47233
 Alpha  occ. eigenvalues --   -1.47198  -0.78034  -0.76446  -0.64029  -0.61800
 Alpha  occ. eigenvalues --   -0.61329  -0.61329  -0.61140  -0.61140
 Alpha virt. eigenvalues --    0.15703   0.15703   0.17980   0.17980   0.44372
 Alpha virt. eigenvalues --    0.46056   0.52959   0.54354   0.54354   0.57910
 Alpha virt. eigenvalues --    0.57910   0.66633   0.67171   0.70116   0.70116

 Mulliken charges:
               1
     1  N    0.001587
     2  N   -0.001587
     3  N   -0.001587
     4  N    0.001587
 Sum of Mulliken charges =  -0.00000

 Dipole moment (field-independent basis, Debye):
    X=              0.0000    Y=              0.0000    Z=              0.0000  Tot=              0.0000
 Quadrupole moment (field-independent basis, Debye-Ang):
   XX=            -20.5032   YY=            -20.5032   ZZ=            -23.6685
   XY=              0.0000   XZ=              0.0000   YZ=             -0.0000

 SDQ=-218.7132899\CCSD=-218.7088624\CCSD(T)=-218.7454059\RMSD=7.963e-10
 Normal termination of Gaussian 16 at Fri Feb  9 19:05:05 2024.
