 Gaussian 16, Revision A.03,
 Gaussian 16:  ES64L-G16RevA.03 25-Dec-2016

 ------------------
 #p CCSD(T)/cc-pVTZ
 ------------------

 --------
 N2_N2_69
 --------
 Symbolic Z-matrix:
 Charge =  0 Multiplicity = 1

                         Standard orientation:
 ---------------------------------------------------------------------
 Center     Atomic      Atomic             Coordinates (Angstroms)
 Number     Number       Type             X           Y           Z
 ---------------------------------------------------------------------
      1          7           0        0.000000    0.000000    2.050000
      2          7           0        0.000000    0.000000    0.960000
      3          7           0        0.000000    0.000000   -0.960000
      4          7           0        0.000000    0.000000   -2.050000
 ---------------------------------------------------------------------

 SCF Done:  E(RHF) =  -217.871148041     A.U. after   10 cycles
 E2 =    -0.7552225949D+00 EUMP2 =    -0.21862637063570D+03
 CCSD(T)
 CCSD(T)= -0.21865896770D+03

 The electronic state is 1-SGG.
 Alpha  occ. eigenvalues --  -15.66302 -15.66301 -15.64340 -15.64339  -1.46587
 Alpha  occ. eigenvalues --   -1.45877  -0.86589  -0.72698  -0.66807  -0.61583
 Alpha  occ. eigenvalues --   -0.61583  -0.59269  -0.59269  -0.50967
 Alpha virt. eigenvalues --    0.13243   0.13243   0.22203   0.22203   0.44217
 Alpha virt. eigenvalues --    0.46049   0.54263   0.54263   0.60486   0.60486
 Alpha virt. eigenvalues --    0.63957   0.66959   0.73381   0.73381   0.79801

 Mulliken charges:
               1
     1  N   -0.000090
     2  N    0.000090
     3  N    0.000090
     4  N   -0.000090
 Sum of Mulliken charges =   0.00000

 Dipole moment (field-independent basis, Debye):
    X=              0.0000    Y=              0.0000    Z=              0.0000  Tot=              0.0000
 Quadrupole moment (field-independent basis, Debye-Ang):
   XX=            -20.4773   YY=            -20.4773   ZZ=            -24.5124
   XY=              0.0000   XZ=              0.0000   YZ=             -0.0000

 SDQ=-218.6264771\CCSD=-218.6211493\CCSD(T)=-218.6589677\RMSD=1.756e-09
 Normal termination of Gaussian 16 at Fri Feb  9 18:21:19 2024.
