 Gaussian 16, Revision A.03,
 Gaussian 16:  ES64L-G16RevA.03 25-Dec-2016

 ------------------
 #p CCSD(T)/cc-pVTZ
 ------------------

 --------
 N2_N2_40
 --------
 Symbolic Z-matrix:
 Charge =  0 Multiplicity = 1

                         Standard orientation:
 ---------------------------------------------------------------------
 Center     Atomic      Atomic             Coordinates (Angstroms)
 Number     Number       Type             X           Y           Z
 ---------------------------------------------------------------------
      1          7           0        0.578060   -1.610560   -0.000000
      2          7           0       -0.192687   -0.839813    0.000000
      3          7           0       -0.192687    0.680186    0.000000
      4          7           0       -0.192687    1.770187    0.000000
 ---------------------------------------------------------------------

 SCF Done:  E(RHF) =  -217.718165246     A.U. after   16 cycles
 E2 =    -0.7700488718D+00 EUMP2 =    -0.21848821411736D+03
 CCSD(T)
 CCSD(T)= -0.21852111173D+03

 The electronic state is 1-A'.
 Alpha  occ. eigenvalues --  -15.71719 -15.70957 -15.64465 -15.60167  -1.52076
 Alpha  occ. eigenvalues --   -1.44397  -1.01500  -0.73863  -0.68494  -0.67591
 Alpha  occ. eigenvalues --   -0.65287  -0.58509  -0.57157  -0.37808
 Alpha virt. eigenvalues --    0.09590   0.12807   0.24200   0.25327   0.42230
 Alpha virt. eigenvalues --    0.47846   0.51786   0.52685   0.59792   0.60035
 Alpha virt. eigenvalues --    0.62152   0.64684   0.69739   0.75010   0.79198

 Mulliken charges:
               1
     1  N   -0.154424
     2  N   -0.025901
     3  N    0.116300
     4  N    0.064024
 Sum of Mulliken charges =  -0.00000

 Dipole moment (field-independent basis, Debye):
    X=             -0.4100    Y=              2.1597    Z=              0.0000  Tot=              2.1982
 Quadrupole moment (field-independent basis, Debye-Ang):
   XX=            -22.0376   YY=            -24.6397   ZZ=            -20.1534
   XY=              0.8793   XZ=              0.0000   YZ=             -0.0000

 4DQ=-218.4734123\MP4SDQ=-218.4863245\CCSD=-218.4799272\CCSD(T)=-218.52
 Normal termination of Gaussian 16 at Fri Feb  9 18:05:13 2024.
