 Gaussian 16, Revision A.03,
 Gaussian 16:  ES64L-G16RevA.03 25-Dec-2016

 ------------------
 #p CCSD(T)/cc-pVTZ
 ------------------

 ---------
 N2_N2_120
 ---------
 Symbolic Z-matrix:
 Charge =  0 Multiplicity = 1

                         Standard orientation:
 ---------------------------------------------------------------------
 Center     Atomic      Atomic             Coordinates (Angstroms)
 Number     Number       Type             X           Y           Z
 ---------------------------------------------------------------------
      1          7           0        0.000000    0.000000    2.390000
      2          7           0        0.000000    0.000000    1.300000
      3          7           0        0.000000    0.000000   -1.300000
      4          7           0        0.000000    0.000000   -2.390000
 ---------------------------------------------------------------------

 SCF Done:  E(RHF) =  -217.959875323     A.U. after   10 cycles
 E2 =    -0.7455773076D+00 EUMP2 =    -0.21870545263072D+03
 CCSD(T)
 CCSD(T)= -0.21873919513D+03

 The electronic state is 1-SGG.
 Alpha  occ. eigenvalues --  -15.67224 -15.67224 -15.66753 -15.66752  -1.47067
 Alpha  occ. eigenvalues --   -1.46960  -0.79107  -0.75536  -0.64842  -0.61286
 Alpha  occ. eigenvalues --   -0.61286  -0.60818  -0.60818  -0.60204
 Alpha virt. eigenvalues --    0.15095   0.15095   0.18925   0.18925   0.45284
 Alpha virt. eigenvalues --    0.47050   0.53813   0.53813   0.58738   0.58738
 Alpha virt. eigenvalues --    0.59363   0.66726   0.67022   0.70362   0.70362

 Mulliken charges:
               1
     1  N   -0.008246
     2  N    0.008246
     3  N    0.008246
     4  N   -0.008246
 Sum of Mulliken charges =  -0.00000

 Dipole moment (field-independent basis, Debye):
    X=             -0.0000    Y=             -0.0000    Z=              0.0000  Tot=              0.0000
 Quadrupole moment (field-independent basis, Debye-Ang):
   XX=            -20.5054   YY=            -20.5054   ZZ=            -23.8985
   XY=              0.0000   XZ=              0.0000   YZ=             -0.0000

 4SDQ=-218.707031\CCSD=-218.7024946\CCSD(T)=-218.7391951\RMSD=8.581e-10
 Normal termination of Gaussian 16 at Fri Feb  9 18:48:18 2024.
