 Gaussian 16, Revision A.03,
 Gaussian 16:  ES64L-G16RevA.03 25-Dec-2016

 ------------------
 #p CCSD(T)/cc-pVTZ
 ------------------

 --------
 N2_N2_68
 --------
 Symbolic Z-matrix:
 Charge =  0 Multiplicity = 1

                         Standard orientation:
 ---------------------------------------------------------------------
 Center     Atomic      Atomic             Coordinates (Angstroms)
 Number     Number       Type             X           Y           Z
 ---------------------------------------------------------------------
      1          7           0       -0.817500   -1.212500    0.000000
      2          7           0        0.272500   -1.212500    0.000000
      3          7           0        0.272500    0.667500    0.000000
      4          7           0        0.272500    1.757500    0.000000
 ---------------------------------------------------------------------

 SCF Done:  E(RHF) =  -217.863440222     A.U. after   14 cycles
 E2 =    -0.7607132587D+00 EUMP2 =    -0.21862415348057D+03
 CCSD(T)
 CCSD(T)= -0.21865607938D+03

 The electronic state is 1-A'.
 Alpha  occ. eigenvalues --  -15.67858 -15.66583 -15.66153 -15.64217  -1.48631
 Alpha  occ. eigenvalues --   -1.46077  -0.85178  -0.75671  -0.68604  -0.63543
 Alpha  occ. eigenvalues --   -0.62680  -0.60800  -0.59028  -0.49328
 Alpha virt. eigenvalues --    0.13497   0.14744   0.18758   0.22099   0.41844
 Alpha virt. eigenvalues --    0.44769   0.53137   0.53418   0.55576   0.58283
 Alpha virt. eigenvalues --    0.61406   0.66580   0.73447   0.75456   0.76090

 Mulliken charges:
               1
     1  N   -0.054396
     2  N    0.049335
     3  N    0.002222
     4  N    0.002839
 Sum of Mulliken charges =   0.00000

 Dipole moment (field-independent basis, Debye):
    X=              0.3014    Y=              0.3083    Z=              0.0000  Tot=              0.4312
 Quadrupole moment (field-independent basis, Debye-Ang):
   XX=            -22.0959   YY=            -22.8420   ZZ=            -20.3616
   XY=             -0.4031   XZ=              0.0000   YZ=              0.0000

 SDQ=-218.6222091\CCSD=-218.6174837\CCSD(T)=-218.6560794\RMSD=2.744e-09
 Normal termination of Gaussian 16 at Fri Feb  9 18:20:50 2024.
