 Gaussian 16, Revision A.03,
 Gaussian 16:  ES64L-G16RevA.03 25-Dec-2016

 ------------------
 #p CCSD(T)/cc-pVTZ
 ------------------

 ---------
 N2_N2_229
 ---------
 Symbolic Z-matrix:
 Charge =  0 Multiplicity = 1

                         Standard orientation:
 ---------------------------------------------------------------------
 Center     Atomic      Atomic             Coordinates (Angstroms)
 Number     Number       Type             X           Y           Z
 ---------------------------------------------------------------------
      1          7           0        0.578060   -2.870560   -0.000000
      2          7           0       -0.192687   -2.099813   -0.000000
      3          7           0       -0.192687    1.940186    0.000000
      4          7           0       -0.192687    3.030187    0.000000
 ---------------------------------------------------------------------

 SCF Done:  E(RHF) =  -217.969579803     A.U. after   11 cycles
 E2 =    -0.7434798346D+00 EUMP2 =    -0.21871305963718D+03
 CCSD(T)
 CCSD(T)= -0.21874705677D+03

 The electronic state is 1-A'.
 Alpha  occ. eigenvalues --  -15.67852 -15.67757 -15.67481 -15.67386  -1.47487
 Alpha  occ. eigenvalues --   -1.47393  -0.77496  -0.77310  -0.63351  -0.63079
 Alpha  occ. eigenvalues --   -0.61499  -0.61498  -0.61404  -0.61395
 Alpha virt. eigenvalues --    0.16453   0.16492   0.16690   0.16856   0.37622
 Alpha virt. eigenvalues --    0.45996   0.53148   0.55649   0.55811   0.56548
 Alpha virt. eigenvalues --    0.56698   0.61918   0.67180   0.68129   0.72280

 Mulliken charges:
               1
     1  N    0.001330
     2  N   -0.001257
     3  N   -0.003531
     4  N    0.003458
 Sum of Mulliken charges =   0.00000

 Dipole moment (field-independent basis, Debye):
    X=             -0.0097    Y=              0.0075    Z=              0.0000  Tot=              0.0123
 Quadrupole moment (field-independent basis, Debye-Ang):
   XX=            -21.1976   YY=            -22.6681   ZZ=            -20.4977
   XY=              0.7052   XZ=              0.0000   YZ=             -0.0000

 P4DQ=-218.7041632\MP4SDQ=-218.7149682\CCSD=-218.7106354\CCSD(T)=-218.7
 Normal termination of Gaussian 16 at Fri Feb  9 19:45:34 2024.
