 Gaussian 16, Revision A.03,
 Gaussian 16:  ES64L-G16RevA.03 25-Dec-2016

 ------------------
 #p CCSD(T)/cc-pVTZ
 ------------------

 ---------
 N2_N2_145
 ---------
 Symbolic Z-matrix:
 Charge =  0 Multiplicity = 1

                         Standard orientation:
 ---------------------------------------------------------------------
 Center     Atomic      Atomic             Coordinates (Angstroms)
 Number     Number       Type             X           Y           Z
 ---------------------------------------------------------------------
      1          7           0        0.578060   -2.310560    0.000000
      2          7           0       -0.192687   -1.539813    0.000000
      3          7           0       -0.192687    1.380187   -0.000000
      4          7           0       -0.192687    2.470186   -0.000000
 ---------------------------------------------------------------------

 SCF Done:  E(RHF) =  -217.967069447     A.U. after   12 cycles
 E2 =    -0.7446727890D+00 EUMP2 =    -0.21871174223629D+03
 CCSD(T)
 CCSD(T)= -0.21874557202D+03

 The electronic state is 1-A'.
 Alpha  occ. eigenvalues --  -15.67720 -15.67456 -15.67339 -15.67086  -1.47411
 Alpha  occ. eigenvalues --   -1.47152  -0.78193  -0.76497  -0.64186  -0.62170
 Alpha  occ. eigenvalues --   -0.61481  -0.61419  -0.61127  -0.60824
 Alpha virt. eigenvalues --    0.15629   0.16238   0.17451   0.17901   0.43303
 Alpha virt. eigenvalues --    0.46146   0.53009   0.53996   0.54087   0.58139
 Alpha virt. eigenvalues --    0.59077   0.63745   0.66952   0.70477   0.71754

 Mulliken charges:
               1
     1  N    0.005744
     2  N   -0.006129
     3  N   -0.003055
     4  N    0.003441
 Sum of Mulliken charges =  -0.00000

 Dipole moment (field-independent basis, Debye):
    X=             -0.0333    Y=              0.0370    Z=             -0.0000  Tot=              0.0497
 Quadrupole moment (field-independent basis, Debye-Ang):
   XX=            -21.2143   YY=            -22.8804   ZZ=            -20.5001
   XY=              0.7209   XZ=              0.0000   YZ=              0.0000

 P4DQ=-218.702588\MP4SDQ=-218.7134062\CCSD=-218.7089883\CCSD(T)=-218.74
 Normal termination of Gaussian 16 at Fri Feb  9 19:01:21 2024.
