 Gaussian 16, Revision A.03,
 Gaussian 16:  ES64L-G16RevA.03 25-Dec-2016

 ------------------
 #p CCSD(T)/cc-pVTZ
 ------------------

 ---------
 N2_N2_146
 ---------
 Symbolic Z-matrix:
 Charge =  0 Multiplicity = 1

                         Standard orientation:
 ---------------------------------------------------------------------
 Center     Atomic      Atomic             Coordinates (Angstroms)
 Number     Number       Type             X           Y           Z
 ---------------------------------------------------------------------
      1          7           0       -0.817500   -1.732500    0.000000
      2          7           0        0.272500   -1.732500    0.000000
      3          7           0        0.272500    1.187500    0.000000
      4          7           0        0.272500    2.277500    0.000000
 ---------------------------------------------------------------------

 SCF Done:  E(RHF) =  -217.966618014     A.U. after   12 cycles
 E2 =    -0.7455440954D+00 EUMP2 =    -0.21871216210907D+03
 CCSD(T)
 CCSD(T)= -0.21874585469D+03

 The electronic state is 1-A'.
 Alpha  occ. eigenvalues --  -15.67972 -15.67576 -15.67415 -15.67037  -1.47655
 Alpha  occ. eigenvalues --   -1.47073  -0.77972  -0.76999  -0.64490  -0.62698
 Alpha  occ. eigenvalues --   -0.61739  -0.61675  -0.61056  -0.60173
 Alpha virt. eigenvalues --    0.15031   0.16143   0.17114   0.18412   0.41897
 Alpha virt. eigenvalues --    0.45077   0.52374   0.53285   0.55162   0.57407
 Alpha virt. eigenvalues --    0.58744   0.60298   0.66469   0.70038   0.72771

 Mulliken charges:
               1
     1  N   -0.006799
     2  N    0.007608
     3  N   -0.005108
     4  N    0.004298
 Sum of Mulliken charges =  -0.00000

 Dipole moment (field-independent basis, Debye):
    X=              0.0323    Y=              0.0624    Z=              0.0000  Tot=              0.0702
 Quadrupole moment (field-independent basis, Debye-Ang):
   XX=            -21.9187   YY=            -22.0764   ZZ=            -20.4937
   XY=             -0.0439   XZ=              0.0000   YZ=              0.0000

 SDQ=-218.7135146\CCSD=-218.7091752\CCSD(T)=-218.7458547\RMSD=2.102e-09
 Normal termination of Gaussian 16 at Fri Feb  9 19:02:58 2024.
