 Gaussian 16, Revision A.03,
 Gaussian 16:  ES64L-G16RevA.03 25-Dec-2016

 ------------------
 #p CCSD(T)/cc-pVTZ
 ------------------

 ---------
 N2_N2_283
 ---------
 Symbolic Z-matrix:
 Charge =  0 Multiplicity = 1

                         Standard orientation:
 ---------------------------------------------------------------------
 Center     Atomic      Atomic             Coordinates (Angstroms)
 Number     Number       Type             X           Y           Z
 ---------------------------------------------------------------------
      1          7           0        0.578060   -3.230560   -0.000000
      2          7           0       -0.192687   -2.459813   -0.000000
      3          7           0       -0.192687    2.300186    0.000000
      4          7           0       -0.192687    3.390187    0.000000
 ---------------------------------------------------------------------

 SCF Done:  E(RHF) =  -217.969596272     A.U. after   10 cycles
 E2 =    -0.7432974644D+00 EUMP2 =    -0.21871289373655D+03
 CCSD(T)
 CCSD(T)= -0.21874692341D+03

 The electronic state is 1-A'.
 Alpha  occ. eigenvalues --  -15.67864 -15.67803 -15.67493 -15.67432  -1.47499
 Alpha  occ. eigenvalues --   -1.47438  -0.77469  -0.77399  -0.63288  -0.63205
 Alpha  occ. eigenvalues --   -0.61509  -0.61509  -0.61449  -0.61446
 Alpha virt. eigenvalues --    0.16577   0.16587   0.16644   0.16681   0.40066
 Alpha virt. eigenvalues --    0.44767   0.54780   0.56070   0.56100   0.56249
 Alpha virt. eigenvalues --    0.56270   0.58022   0.67301   0.67476   0.73125

 Mulliken charges:
               1
     1  N   -0.000422
     2  N    0.000445
     3  N   -0.000248
     4  N    0.000225
 Sum of Mulliken charges =   0.00000

 Dipole moment (field-independent basis, Debye):
    X=             -0.0052    Y=              0.0041    Z=              0.0000  Tot=              0.0066
 Quadrupole moment (field-independent basis, Debye-Ang):
   XX=            -21.1957   YY=            -22.6401   ZZ=            -20.4969
   XY=              0.7016   XZ=             -0.0000   YZ=             -0.0000

 P4DQ=-218.704045\MP4SDQ=-218.7148455\CCSD=-218.7105257\CCSD(T)=-218.74
 Normal termination of Gaussian 16 at Fri Feb  9 20:14:29 2024.
