 Gaussian 16, Revision A.03,
 Gaussian 16:  ES64L-G16RevA.03 25-Dec-2016

 ------------------
 #p CCSD(T)/cc-pVTZ
 ------------------

 ---------
 N2_N2_109
 ---------
 Symbolic Z-matrix:
 Charge =  0 Multiplicity = 1

                         Standard orientation:
 ---------------------------------------------------------------------
 Center     Atomic      Atomic             Coordinates (Angstroms)
 Number     Number       Type             X           Y           Z
 ---------------------------------------------------------------------
      1          7           0        0.578060   -2.070560    0.000000
      2          7           0       -0.192687   -1.299814    0.000000
      3          7           0       -0.192687    1.140187   -0.000000
      4          7           0       -0.192687    2.230187   -0.000000
 ---------------------------------------------------------------------

 SCF Done:  E(RHF) =  -217.955405236     A.U. after   12 cycles
 E2 =    -0.7469068558D+00 EUMP2 =    -0.21870231209144D+03
 CCSD(T)
 CCSD(T)= -0.21873580496D+03

 The electronic state is 1-A'.
 Alpha  occ. eigenvalues --  -15.67541 -15.66989 -15.66949 -15.66558  -1.47337
 Alpha  occ. eigenvalues --   -1.46810  -0.79888  -0.75355  -0.65375  -0.61856
 Alpha  occ. eigenvalues --   -0.61570  -0.61051  -0.60676  -0.58880
 Alpha virt. eigenvalues --    0.14859   0.16035   0.18380   0.19016   0.45060
 Alpha virt. eigenvalues --    0.45850   0.52349   0.53435   0.58758   0.59251
 Alpha virt. eigenvalues --    0.61888   0.63703   0.66600   0.71376   0.77310

 Mulliken charges:
               1
     1  N    0.001652
     2  N   -0.004753
     3  N    0.005722
     4  N   -0.002621
 Sum of Mulliken charges =  -0.00000

 Dipole moment (field-independent basis, Debye):
    X=             -0.0658    Y=              0.1001    Z=             -0.0000  Tot=              0.1198
 Quadrupole moment (field-independent basis, Debye-Ang):
   XX=            -21.2417   YY=            -23.1643   ZZ=            -20.4937
   XY=              0.7428   XZ=             -0.0000   YZ=              0.0000

 4DQ=-218.6926866\MP4SDQ=-218.7035157\CCSD=-218.6989428\CCSD(T)=-218.73
 Normal termination of Gaussian 16 at Fri Feb  9 18:42:32 2024.
