 Gaussian 16, Revision A.03,
 Gaussian 16:  ES64L-G16RevA.03 25-Dec-2016

 ------------------
 #p CCSD(T)/cc-pVTZ
 ------------------

 -------
 N2_N2_3
 -------
 Symbolic Z-matrix:
 Charge =  0 Multiplicity = 1

                         Standard orientation:
 ---------------------------------------------------------------------
 Center     Atomic      Atomic             Coordinates (Angstroms)
 Number     Number       Type             X           Y           Z
 ---------------------------------------------------------------------
      1          7           0        0.000000    0.000000    1.610000
      2          7           0        0.000000    0.000000    0.520000
      3          7           0        0.000000    0.000000   -0.520000
      4          7           0        0.000000    0.000000   -1.610000
 ---------------------------------------------------------------------

 SCF Done:  E(RHF) =  -217.549394136     A.U. after   11 cycles
 E2 =    -0.7435546987D+00 EUMP2 =    -0.21829294883478D+03
 CCSD(T)
 CCSD(T)= -0.21833234802D+03

 Unable to determine electronic state:  an orbital has unidentified symmetry.
 Alpha  occ. eigenvalues --  -15.75912 -15.75480 -15.62968 -15.62968  -1.66417
 Alpha  occ. eigenvalues --   -1.46424  -1.32848  -0.86342  -0.84261  -0.66949
 Alpha  occ. eigenvalues --   -0.65849  -0.59533  -0.53438  -0.30987
 Alpha virt. eigenvalues --    0.04351   0.27897   0.31983   0.36430   0.42505
 Alpha virt. eigenvalues --    0.45208   0.49741   0.50324   0.50611   0.61469
 Alpha virt. eigenvalues --    0.62182   0.64155   0.71189   0.72232   0.80162

 Mulliken charges:
               1
     1  N   -0.168213
     2  N    0.168213
     3  N    0.168213
     4  N   -0.168213
 Sum of Mulliken charges =   0.00000

 Dipole moment (field-independent basis, Debye):
    X=             -0.0000    Y=             -0.0000    Z=             -0.0000  Tot=              0.0000
 Quadrupole moment (field-independent basis, Debye-Ang):
   XX=            -21.4452   YY=            -18.8400   ZZ=            -30.5333
   XY=              0.0000   XZ=              0.0000   YZ=             -0.0000

 0371\CCSD=-218.2927428\CCSD(T)=-218.332348\RMSD=9.816e-09\PG=D*H [C*(N
 Normal termination of Gaussian 16 at Fri Feb  9 17:41:42 2024.
