 Gaussian 16, Revision A.03,
 Gaussian 16:  ES64L-G16RevA.03 25-Dec-2016

 ------------------
 #p CCSD(T)/cc-pVTZ
 ------------------

 ---------
 N2_N2_233
 ---------
 Symbolic Z-matrix:
 Charge =  0 Multiplicity = 1

                         Standard orientation:
 ---------------------------------------------------------------------
 Center     Atomic      Atomic             Coordinates (Angstroms)
 Number     Number       Type             X           Y           Z
 ---------------------------------------------------------------------
      1          7           0       -0.817500   -2.312500    0.000000
      2          7           0        0.272500   -2.312500    0.000000
      3          7           0        0.272500    1.767500    0.000000
      4          7           0        0.272500    2.857500    0.000000
 ---------------------------------------------------------------------

 SCF Done:  E(RHF) =  -217.969706238     A.U. after   11 cycles
 E2 =    -0.7435468163D+00 EUMP2 =    -0.21871325305435D+03
 CCSD(T)
 CCSD(T)= -0.21874724181D+03

 The electronic state is 1-A'.
 Alpha  occ. eigenvalues --  -15.67970 -15.67749 -15.67600 -15.67379  -1.47600
 Alpha  occ. eigenvalues --   -1.47374  -0.77580  -0.77349  -0.63434  -0.63139
 Alpha  occ. eigenvalues --   -0.61612  -0.61610  -0.61390  -0.61353
 Alpha virt. eigenvalues --    0.16230   0.16477   0.16720   0.16959   0.39629
 Alpha virt. eigenvalues --    0.42856   0.52560   0.55622   0.55806   0.56375
 Alpha virt. eigenvalues --    0.56647   0.61856   0.67058   0.69437   0.72372

 Mulliken charges:
               1
     1  N   -0.001356
     2  N    0.001717
     3  N   -0.002547
     4  N    0.002186
 Sum of Mulliken charges =  -0.00000

 Dipole moment (field-independent basis, Debye):
    X=              0.0060    Y=              0.0138    Z=              0.0000  Tot=              0.0151
 Quadrupole moment (field-independent basis, Debye-Ang):
   XX=            -21.8961   YY=            -21.8889   ZZ=            -20.4965
   XY=             -0.0059   XZ=              0.0000   YZ=              0.0000

 4SDQ=-218.7151276\CCSD=-218.7108126\CCSD(T)=-218.7472418\RMSD=8.349e-0
 Normal termination of Gaussian 16 at Fri Feb  9 19:47:39 2024.
