 Gaussian 16, Revision A.03,
 Gaussian 16:  ES64L-G16RevA.03 25-Dec-2016

 ------------------
 #p CCSD(T)/cc-pVTZ
 ------------------

 ---------
 N2_N2_212
 ---------
 Symbolic Z-matrix:
 Charge =  0 Multiplicity = 1

                         Standard orientation:
 ---------------------------------------------------------------------
 Center     Atomic      Atomic             Coordinates (Angstroms)
 Number     Number       Type             X           Y           Z
 ---------------------------------------------------------------------
      1          7           0       -0.817500   -2.172500    0.000000
      2          7           0        0.272500   -2.172500    0.000000
      3          7           0        0.272500    1.627500    0.000000
      4          7           0        0.272500    2.717500    0.000000
 ---------------------------------------------------------------------

 SCF Done:  E(RHF) =  -217.969674413     A.U. after   12 cycles
 E2 =    -0.7437511755D+00 EUMP2 =    -0.21871342558816D+03
 CCSD(T)
 CCSD(T)= -0.21874738319D+03

 The electronic state is 1-A'.
 Alpha  occ. eigenvalues --  -15.67984 -15.67716 -15.67613 -15.67346  -1.47614
 Alpha  occ. eigenvalues --   -1.47338  -0.77606  -0.77313  -0.63511  -0.63078
 Alpha  occ. eigenvalues --   -0.61629  -0.61626  -0.61355  -0.61283
 Alpha virt. eigenvalues --    0.16034   0.16439   0.16763   0.17156   0.39010
 Alpha virt. eigenvalues --    0.42919   0.51940   0.55251   0.55587   0.56515
 Alpha virt. eigenvalues --    0.56971   0.62433   0.66984   0.69703   0.72920

 Mulliken charges:
               1
     1  N   -0.002186
     2  N    0.002642
     3  N   -0.004702
     4  N    0.004246
 Sum of Mulliken charges =  -0.00000

 Dipole moment (field-independent basis, Debye):
    X=              0.0086    Y=              0.0192    Z=              0.0000  Tot=              0.0211
 Quadrupole moment (field-independent basis, Debye-Ang):
   XX=            -21.8982   YY=            -21.9026   ZZ=            -20.4964
   XY=             -0.0086   XZ=              0.0000   YZ=              0.0000

 DQ=-218.7152451\CCSD=-218.7109276\CCSD(T)=-218.7473832\RMSD=1.740e-09\
 Normal termination of Gaussian 16 at Fri Feb  9 19:36:54 2024.
