 Gaussian 16, Revision A.03,
 Gaussian 16:  ES64L-G16RevA.03 25-Dec-2016

 ------------------
 #p CCSD(T)/cc-pVTZ
 ------------------

 ---------
 N2_N2_110
 ---------
 Symbolic Z-matrix:
 Charge =  0 Multiplicity = 1

                         Standard orientation:
 ---------------------------------------------------------------------
 Center     Atomic      Atomic             Coordinates (Angstroms)
 Number     Number       Type             X           Y           Z
 ---------------------------------------------------------------------
      1          7           0       -0.817500   -1.492500    0.000000
      2          7           0        0.272500   -1.492500    0.000000
      3          7           0        0.272500    0.947500    0.000000
      4          7           0        0.272500    2.037500    0.000000
 ---------------------------------------------------------------------

 SCF Done:  E(RHF) =  -217.952335427     A.U. after   12 cycles
 E2 =    -0.7489946415D+00 EUMP2 =    -0.21870133006898D+03
 CCSD(T)
 CCSD(T)= -0.21873448055D+03

 The electronic state is 1-A'.
 Alpha  occ. eigenvalues --  -15.67854 -15.67208 -15.66942 -15.66487  -1.47677
 Alpha  occ. eigenvalues --   -1.46733  -0.79123  -0.76517  -0.66083  -0.62434
 Alpha  occ. eigenvalues --   -0.61980  -0.61582  -0.60537  -0.57664
 Alpha virt. eigenvalues --    0.14306   0.15776   0.17600   0.19739   0.42080
 Alpha virt. eigenvalues --    0.45697   0.52766   0.55508   0.56535   0.57751
 Alpha virt. eigenvalues --    0.60020   0.63892   0.66333   0.73093   0.73351

 Mulliken charges:
               1
     1  N   -0.014100
     2  N    0.014077
     3  N    0.000614
     4  N   -0.000590
 Sum of Mulliken charges =  -0.00000

 Dipole moment (field-independent basis, Debye):
    X=              0.0781    Y=              0.1106    Z=              0.0000  Tot=              0.1354
 Quadrupole moment (field-independent basis, Debye-Ang):
   XX=            -21.9509   YY=            -22.3211   ZZ=            -20.4778
   XY=             -0.1191   XZ=              0.0000   YZ=              0.0000

 SDQ=-218.7018107\CCSD=-218.6974092\CCSD(T)=-218.7344806\RMSD=9.562e-09
 Normal termination of Gaussian 16 at Fri Feb  9 18:43:05 2024.
