 Gaussian 16, Revision A.03,
 Gaussian 16:  ES64L-G16RevA.03 25-Dec-2016

 ------------------
 #p CCSD(T)/cc-pVTZ
 ------------------

 ---------
 N2_N2_192
 ---------
 Symbolic Z-matrix:
 Charge =  0 Multiplicity = 1

                         Standard orientation:
 ---------------------------------------------------------------------
 Center     Atomic      Atomic             Coordinates (Angstroms)
 Number     Number       Type             X           Y           Z
 ---------------------------------------------------------------------
      1          7           0        0.000000    0.000000    2.870000
      2          7           0        0.000000    0.000000    1.780000
      3          7           0        0.000000    0.000000   -1.780000
      4          7           0        0.000000    0.000000   -2.870000
 ---------------------------------------------------------------------

 SCF Done:  E(RHF) =  -217.969210208     A.U. after   10 cycles
 E2 =    -0.7437079883D+00 EUMP2 =    -0.21871291819612D+03
 CCSD(T)
 CCSD(T)= -0.21874689124D+03

 The electronic state is 1-SGG.
 Alpha  occ. eigenvalues --  -15.67696 -15.67696 -15.67326 -15.67326  -1.47352
 Alpha  occ. eigenvalues --   -1.47344  -0.77554  -0.77054  -0.63485  -0.62710
 Alpha  occ. eigenvalues --   -0.61387  -0.61387  -0.61333  -0.61333
 Alpha virt. eigenvalues --    0.16243   0.16243   0.17238   0.17238   0.37460
 Alpha virt. eigenvalues --    0.47314   0.52556   0.55355   0.55355   0.57025
 Alpha virt. eigenvalues --    0.57025   0.66541   0.67250   0.71126   0.71126

 Mulliken charges:
               1
     1  N    0.007573
     2  N   -0.007573
     3  N   -0.007573
     4  N    0.007573
 Sum of Mulliken charges =  -0.00000

 Dipole moment (field-independent basis, Debye):
    X=              0.0000    Y=             -0.0000    Z=              0.0000  Tot=              0.0000
 Quadrupole moment (field-independent basis, Debye-Ang):
   XX=            -20.5001   YY=            -20.5001   ZZ=            -23.4978
   XY=              0.0000   XZ=              0.0000   YZ=             -0.0000

 P4SDQ=-218.7148003\CCSD=-218.7104363\CCSD(T)=-218.7468912\RMSD=7.039e-
 Normal termination of Gaussian 16 at Fri Feb  9 19:26:36 2024.
