 Gaussian 16, Revision A.03,
 Gaussian 16:  ES64L-G16RevA.03 25-Dec-2016

 ------------------
 #p CCSD(T)/cc-pVTZ
 ------------------

 ---------
 N2_N2_104
 ---------
 Symbolic Z-matrix:
 Charge =  0 Multiplicity = 1

                         Standard orientation:
 ---------------------------------------------------------------------
 Center     Atomic      Atomic             Coordinates (Angstroms)
 Number     Number       Type             X           Y           Z
 ---------------------------------------------------------------------
      1          7           0       -0.817500   -1.452500    0.000000
      2          7           0        0.272500   -1.452500    0.000000
      3          7           0        0.272500    0.907500    0.000000
      4          7           0        0.272500    1.997500    0.000000
 ---------------------------------------------------------------------

 SCF Done:  E(RHF) =  -217.946920458     A.U. after   13 cycles
 E2 =    -0.7500114373D+00 EUMP2 =    -0.21869693189569D+03
 CCSD(T)
 CCSD(T)= -0.21872992813D+03

 The electronic state is 1-A'.
 Alpha  occ. eigenvalues --  -15.67827 -15.67081 -15.66837 -15.66329  -1.47696
 Alpha  occ. eigenvalues --   -1.46656  -0.79526  -0.76404  -0.66432  -0.62409
 Alpha  occ. eigenvalues --   -0.62066  -0.61529  -0.60397  -0.56954
 Alpha virt. eigenvalues --    0.14178   0.15688   0.17719   0.20023   0.42069
 Alpha virt. eigenvalues --    0.45599   0.52800   0.55603   0.56648   0.57337
 Alpha virt. eigenvalues --    0.60241   0.65782   0.66602   0.73179   0.74097

 Mulliken charges:
               1
     1  N   -0.016791
     2  N    0.016515
     3  N    0.000267
     4  N    0.000010
 Sum of Mulliken charges =  -0.00000

 Dipole moment (field-independent basis, Debye):
    X=              0.0922    Y=              0.1219    Z=              0.0000  Tot=              0.1528
 Quadrupole moment (field-independent basis, Debye-Ang):
   XX=            -21.9593   YY=            -22.3772   ZZ=            -20.4709
   XY=             -0.1411   XZ=              0.0000   YZ=              0.0000

 4SDQ=-218.6971668\CCSD=-218.6927427\CCSD(T)=-218.7299281\RMSD=3.358e-0
 Normal termination of Gaussian 16 at Fri Feb  9 18:39:59 2024.
