 Gaussian 16, Revision A.03,
 Gaussian 16:  ES64L-G16RevA.03 25-Dec-2016

 ------------------
 #p CCSD(T)/cc-pVTZ
 ------------------

 ---------
 N2_N2_155
 ---------
 Symbolic Z-matrix:
 Charge =  0 Multiplicity = 1

                         Standard orientation:
 ---------------------------------------------------------------------
 Center     Atomic      Atomic             Coordinates (Angstroms)
 Number     Number       Type             X           Y           Z
 ---------------------------------------------------------------------
      1          7           0       -0.817500   -1.792500    0.000000
      2          7           0        0.272500   -1.792500    0.000000
      3          7           0        0.272500    1.247500    0.000000
      4          7           0        0.272500    2.337500    0.000000
 ---------------------------------------------------------------------

 SCF Done:  E(RHF) =  -217.967767519     A.U. after   12 cycles
 E2 =    -0.7451062682D+00 EUMP2 =    -0.21871287378718D+03
 CCSD(T)
 CCSD(T)= -0.21874663400D+03

 The electronic state is 1-A'.
 Alpha  occ. eigenvalues --  -15.67986 -15.67602 -15.67487 -15.67113  -1.47652
 Alpha  occ. eigenvalues --   -1.47130  -0.77860  -0.77074  -0.64238  -0.62764
 Alpha  occ. eigenvalues --   -0.61712  -0.61673  -0.61128  -0.60490
 Alpha virt. eigenvalues --    0.15197   0.16206   0.17037   0.18167   0.41657
 Alpha virt. eigenvalues --    0.44390   0.51645   0.53556   0.55078   0.57179
 Alpha virt. eigenvalues --    0.58448   0.60791   0.66560   0.69604   0.72743

 Mulliken charges:
               1
     1  N   -0.006133
     2  N    0.006842
     3  N   -0.006497
     4  N    0.005788
 Sum of Mulliken charges =  -0.00000

 Dipole moment (field-independent basis, Debye):
    X=              0.0265    Y=              0.0536    Z=              0.0000  Tot=              0.0598
 Quadrupole moment (field-independent basis, Debye-Ang):
   XX=            -21.9137   YY=            -22.0363   ZZ=            -20.4946
   XY=             -0.0344   XZ=              0.0000   YZ=              0.0000

 4SDQ=-218.7143403\CCSD=-218.710007\CCSD(T)=-218.746634\RMSD=2.022e-09\
 Normal termination of Gaussian 16 at Fri Feb  9 19:07:39 2024.
