 Gaussian 16, Revision A.03,
 Gaussian 16:  ES64L-G16RevA.03 25-Dec-2016

 ------------------
 #p CCSD(T)/cc-pVTZ
 ------------------

 ---------
 N2_N2_181
 ---------
 Symbolic Z-matrix:
 Charge =  0 Multiplicity = 1

                         Standard orientation:
 ---------------------------------------------------------------------
 Center     Atomic      Atomic             Coordinates (Angstroms)
 Number     Number       Type             X           Y           Z
 ---------------------------------------------------------------------
      1          7           0        0.578060   -2.550560    0.000000
      2          7           0       -0.192687   -1.779813    0.000000
      3          7           0       -0.192687    1.620187   -0.000000
      4          7           0       -0.192687    2.710186   -0.000000
 ---------------------------------------------------------------------

 SCF Done:  E(RHF) =  -217.969185022     A.U. after   12 cycles
 E2 =    -0.7438987660D+00 EUMP2 =    -0.21871308378784D+03
 CCSD(T)
 CCSD(T)= -0.21874702443D+03

 The electronic state is 1-A'.
 Alpha  occ. eigenvalues --  -15.67813 -15.67654 -15.67443 -15.67283  -1.47461
 Alpha  occ. eigenvalues --   -1.47302  -0.77677  -0.77036  -0.63615  -0.62723
 Alpha  occ. eigenvalues --   -0.61485  -0.61477  -0.61307  -0.61256
 Alpha virt. eigenvalues --    0.16112   0.16368   0.16951   0.17277   0.39624
 Alpha virt. eigenvalues --    0.45958   0.52287   0.54527   0.54970   0.57264
 Alpha virt. eigenvalues --    0.57733   0.63689   0.67060   0.69689   0.70950

 Mulliken charges:
               1
     1  N    0.004648
     2  N   -0.004813
     3  N   -0.007755
     4  N    0.007919
 Sum of Mulliken charges =   0.00000

 Dipole moment (field-independent basis, Debye):
    X=             -0.0187    Y=              0.0175    Z=             -0.0000  Tot=              0.0256
 Quadrupole moment (field-independent basis, Debye-Ang):
   XX=            -21.2029   YY=            -22.7458   ZZ=            -20.4988
   XY=              0.7114   XZ=             -0.0000   YZ=              0.0000

 4DQ=-218.7040946\MP4SDQ=-218.7149075\CCSD=-218.7105453\CCSD(T)=-218.74
 Normal termination of Gaussian 16 at Fri Feb  9 19:20:56 2024.
