 Gaussian 16, Revision A.03,
 Gaussian 16:  ES64L-G16RevA.03 25-Dec-2016

 ------------------
 #p CCSD(T)/cc-pVTZ
 ------------------

 --------
 N2_N2_22
 --------
 Symbolic Z-matrix:
 Charge =  0 Multiplicity = 1

                         Standard orientation:
 ---------------------------------------------------------------------
 Center     Atomic      Atomic             Coordinates (Angstroms)
 Number     Number       Type             X           Y           Z
 ---------------------------------------------------------------------
      1          7           0        0.578060   -1.490560    0.000000
      2          7           0       -0.192687   -0.719813    0.000000
      3          7           0       -0.192687    0.560187   -0.000000
      4          7           0       -0.192687    1.650186   -0.000000
 ---------------------------------------------------------------------

 SCF Done:  E(RHF) =  -217.619792560     A.U. after   16 cycles
 E2 =    -0.7615000755D+00 EUMP2 =    -0.21838129263531D+03
 CCSD(T)
 CCSD(T)= -0.21842127151D+03

 The electronic state is 1-A'.
 Alpha  occ. eigenvalues --  -15.80458 -15.74409 -15.68006 -15.56356  -1.58717
 Alpha  occ. eigenvalues --   -1.46325  -1.16329  -0.77281  -0.75805  -0.74839
 Alpha  occ. eigenvalues --   -0.63593  -0.58290  -0.56356  -0.30295
 Alpha virt. eigenvalues --    0.06061   0.10629   0.26192   0.32948   0.40862
 Alpha virt. eigenvalues --    0.48928   0.50535   0.52160   0.56962   0.58847
 Alpha virt. eigenvalues --    0.62380   0.65840   0.70090   0.74036   0.74400

 Mulliken charges:
               1
     1  N   -0.345038
     2  N    0.008331
     3  N    0.326619
     4  N    0.010088
 Sum of Mulliken charges =  -0.00000

 Dipole moment (field-independent basis, Debye):
    X=             -0.8876    Y=              3.1494    Z=             -0.0000  Tot=              3.2721
 Quadrupole moment (field-independent basis, Debye-Ang):
   XX=            -22.8552   YY=            -26.8548   ZZ=            -19.5659
   XY=              1.4230   XZ=              0.0000   YZ=              0.0000

 4DQ=-218.3670742\MP4SDQ=-218.3808907\CCSD=-218.3777007\CCSD(T)=-218.42
 Normal termination of Gaussian 16 at Fri Feb  9 17:52:34 2024.
