 Gaussian 16, Revision A.03,
 Gaussian 16:  ES64L-G16RevA.03 25-Dec-2016

 ------------------
 #p CCSD(T)/cc-pVTZ
 ------------------

 ---------
 N2_N2_274
 ---------
 Symbolic Z-matrix:
 Charge =  0 Multiplicity = 1

                         Standard orientation:
 ---------------------------------------------------------------------
 Center     Atomic      Atomic             Coordinates (Angstroms)
 Number     Number       Type             X           Y           Z
 ---------------------------------------------------------------------
      1          7           0        0.578060   -3.170560   -0.000000
      2          7           0       -0.192687   -2.399813   -0.000000
      3          7           0       -0.192687    2.240186    0.000000
      4          7           0       -0.192687    3.330187    0.000000
 ---------------------------------------------------------------------

 SCF Done:  E(RHF) =  -217.969598319     A.U. after   10 cycles
 E2 =    -0.7433157179D+00 EUMP2 =    -0.21871291403669D+03
 CCSD(T)
 CCSD(T)= -0.21874693985D+03

 The electronic state is 1-A'.
 Alpha  occ. eigenvalues --  -15.67862 -15.67797 -15.67492 -15.67427  -1.47497
 Alpha  occ. eigenvalues --   -1.47432  -0.77469  -0.77391  -0.63291  -0.63193
 Alpha  occ. eigenvalues --   -0.61508  -0.61507  -0.61444  -0.61440
 Alpha virt. eigenvalues --    0.16568   0.16580   0.16645   0.16697   0.39584
 Alpha virt. eigenvalues --    0.45053   0.54515   0.56038   0.56079   0.56275
 Alpha virt. eigenvalues --    0.56307   0.58534   0.67286   0.67520   0.73045

 Mulliken charges:
               1
     1  N   -0.000315
     2  N    0.000347
     3  N   -0.000472
     4  N    0.000440
 Sum of Mulliken charges =  -0.00000

 Dipole moment (field-independent basis, Debye):
    X=             -0.0057    Y=              0.0044    Z=             -0.0000  Tot=              0.0072
 Quadrupole moment (field-independent basis, Debye-Ang):
   XX=            -21.1959   YY=            -22.6429   ZZ=            -20.4970
   XY=              0.7020   XZ=             -0.0000   YZ=              0.0000

 DQ=-218.7040602\MP4SDQ=-218.7148611\CCSD=-218.7105399\CCSD(T)=-218.746
 Normal termination of Gaussian 16 at Fri Feb  9 20:09:55 2024.
