 Gaussian 16, Revision A.03,
 Gaussian 16:  ES64L-G16RevA.03 25-Dec-2016

 ------------------
 #p CCSD(T)/cc-pVTZ
 ------------------

 ---------
 N2_N2_215
 ---------
 Symbolic Z-matrix:
 Charge =  0 Multiplicity = 1

                         Standard orientation:
 ---------------------------------------------------------------------
 Center     Atomic      Atomic             Coordinates (Angstroms)
 Number     Number       Type             X           Y           Z
 ---------------------------------------------------------------------
      1          7           0       -0.817500   -2.192500    0.000000
      2          7           0        0.272500   -2.192500    0.000000
      3          7           0        0.272500    1.647500    0.000000
      4          7           0        0.272500    2.737500    0.000000
 ---------------------------------------------------------------------

 SCF Done:  E(RHF) =  -217.969684927     A.U. after   12 cycles
 E2 =    -0.7437160322D+00 EUMP2 =    -0.21871340095940D+03
 CCSD(T)
 CCSD(T)= -0.21874736374D+03

 The electronic state is 1-A'.
 Alpha  occ. eigenvalues --  -15.67982 -15.67722 -15.67611 -15.67351  -1.47612
 Alpha  occ. eigenvalues --   -1.47344  -0.77601  -0.77320  -0.63497  -0.63088
 Alpha  occ. eigenvalues --   -0.61626  -0.61623  -0.61361  -0.61296
 Alpha virt. eigenvalues --    0.16066   0.16446   0.16756   0.17123   0.39046
 Alpha virt. eigenvalues --    0.42908   0.52021   0.55314   0.55623   0.56493
 Alpha virt. eigenvalues --    0.56917   0.62405   0.66996   0.69743   0.72938

 Mulliken charges:
               1
     1  N   -0.002045
     2  N    0.002492
     3  N   -0.004370
     4  N    0.003923
 Sum of Mulliken charges =  -0.00000

 Dipole moment (field-independent basis, Debye):
    X=              0.0082    Y=              0.0182    Z=              0.0000  Tot=              0.0200
 Quadrupole moment (field-independent basis, Debye-Ang):
   XX=            -21.8978   YY=            -21.8998   ZZ=            -20.4964
   XY=             -0.0081   XZ=              0.0000   YZ=              0.0000

 SDQ=-218.7152298\CCSD=-218.7109127\CCSD(T)=-218.7473637\RMSD=1.718e-09
 Normal termination of Gaussian 16 at Fri Feb  9 19:38:26 2024.
