 Gaussian 16, Revision A.03,
 Gaussian 16:  ES64L-G16RevA.03 25-Dec-2016

 ------------------
 #p CCSD(T)/cc-pVTZ
 ------------------

 ---------
 N2_N2_159
 ---------
 Symbolic Z-matrix:
 Charge =  0 Multiplicity = 1

                         Standard orientation:
 ---------------------------------------------------------------------
 Center     Atomic      Atomic             Coordinates (Angstroms)
 Number     Number       Type             X           Y           Z
 ---------------------------------------------------------------------
      1          7           0        0.000000    0.000000    2.650000
      2          7           0        0.000000    0.000000    1.560000
      3          7           0        0.000000    0.000000   -1.560000
      4          7           0        0.000000    0.000000   -2.650000
 ---------------------------------------------------------------------

 SCF Done:  E(RHF) =  -217.967979804     A.U. after   10 cycles
 E2 =    -0.7441503035D+00 EUMP2 =    -0.21871213010750D+03
 CCSD(T)
 CCSD(T)= -0.21874604863D+03

 The electronic state is 1-SGG.
 Alpha  occ. eigenvalues --  -15.67569 -15.67569 -15.67196 -15.67196  -1.47267
 Alpha  occ. eigenvalues --   -1.47242  -0.77870  -0.76627  -0.63864  -0.62081
 Alpha  occ. eigenvalues --   -0.61343  -0.61343  -0.61199  -0.61199
 Alpha virt. eigenvalues --    0.15847   0.15847   0.17776   0.17776   0.42713
 Alpha virt. eigenvalues --    0.46320   0.52535   0.54580   0.54580   0.57691
 Alpha virt. eigenvalues --    0.57691   0.66620   0.67195   0.70235   0.70235

 Mulliken charges:
               1
     1  N    0.003873
     2  N   -0.003873
     3  N   -0.003873
     4  N    0.003873
 Sum of Mulliken charges =  -0.00000

 Dipole moment (field-independent basis, Debye):
    X=              0.0000    Y=             -0.0000    Z=              0.0000  Tot=              0.0000
 Quadrupole moment (field-independent basis, Debye-Ang):
   XX=            -20.5023   YY=            -20.5023   ZZ=            -23.6204
   XY=              0.0000   XZ=              0.0000   YZ=             -0.0000

 4SDQ=-218.7139401\CCSD=-218.7095318\CCSD(T)=-218.7460486\RMSD=7.758e-1
 Normal termination of Gaussian 16 at Fri Feb  9 19:09:42 2024.
