 Gaussian 16, Revision A.03,
 Gaussian 16:  ES64L-G16RevA.03 25-Dec-2016

 ------------------
 #p CCSD(T)/cc-pVTZ
 ------------------

 ---------
 N2_N2_114
 ---------
 Symbolic Z-matrix:
 Charge =  0 Multiplicity = 1

                         Standard orientation:
 ---------------------------------------------------------------------
 Center     Atomic      Atomic             Coordinates (Angstroms)
 Number     Number       Type             X           Y           Z
 ---------------------------------------------------------------------
      1          7           0        0.000000    0.000000    2.350000
      2          7           0        0.000000    0.000000    1.260000
      3          7           0        0.000000    0.000000   -1.260000
      4          7           0        0.000000    0.000000   -2.350000
 ---------------------------------------------------------------------

 SCF Done:  E(RHF) =  -217.956760790     A.U. after   10 cycles
 E2 =    -0.7460137778D+00 EUMP2 =    -0.21870277456785D+03
 CCSD(T)
 CCSD(T)= -0.21873646705D+03

 The electronic state is 1-SGG.
 Alpha  occ. eigenvalues --  -15.67144 -15.67144 -15.66617 -15.66617  -1.47021
 Alpha  occ. eigenvalues --   -1.46888  -0.79483  -0.75284  -0.65055  -0.61281
 Alpha  occ. eigenvalues --   -0.61281  -0.60718  -0.60718  -0.59695
 Alpha virt. eigenvalues --    0.14945   0.14945   0.19177   0.19177   0.45139
 Alpha virt. eigenvalues --    0.47053   0.53774   0.53774   0.58921   0.58921
 Alpha virt. eigenvalues --    0.61560   0.66757   0.66988   0.70549   0.70549

 Mulliken charges:
               1
     1  N   -0.009562
     2  N    0.009562
     3  N    0.009562
     4  N   -0.009562
 Sum of Mulliken charges =  -0.00000

 Dipole moment (field-independent basis, Debye):
    X=             -0.0000    Y=             -0.0000    Z=              0.0000  Tot=              0.0000
 Quadrupole moment (field-independent basis, Debye-Ang):
   XX=            -20.5050   YY=            -20.5050   ZZ=            -23.9602
   XY=              0.0000   XZ=              0.0000   YZ=             -0.0000

 P4SDQ=-218.704286\CCSD=-218.6997137\CCSD(T)=-218.736467\RMSD=8.623e-10
 Normal termination of Gaussian 16 at Fri Feb  9 18:45:11 2024.
