 Gaussian 16, Revision A.03,
 Gaussian 16:  ES64L-G16RevA.03 25-Dec-2016

 ------------------
 #p CCSD(T)/cc-pVTZ
 ------------------

 --------
 N2_N2_42
 --------
 Symbolic Z-matrix:
 Charge =  0 Multiplicity = 1

                         Standard orientation:
 ---------------------------------------------------------------------
 Center     Atomic      Atomic             Coordinates (Angstroms)
 Number     Number       Type             X           Y           Z
 ---------------------------------------------------------------------
      1          7           0        0.000000    0.000000    1.870000
      2          7           0        0.000000    0.000000    0.780000
      3          7           0        0.000000    0.000000   -0.780000
      4          7           0        0.000000    0.000000   -1.870000
 ---------------------------------------------------------------------

 SCF Done:  E(RHF) =  -217.655512462     A.U. after   11 cycles
 E2 =    -0.7760236713D+00 EUMP2 =    -0.21843153613365D+03
 CCSD(T)
 CCSD(T)= -0.21846159622D+03

 The electronic state is 1-SGG.
 Alpha  occ. eigenvalues --  -15.65680 -15.65680 -15.61984 -15.61980  -1.46863
 Alpha  occ. eigenvalues --   -1.44751  -0.98345  -0.71181  -0.67598  -0.63049
 Alpha  occ. eigenvalues --   -0.63049  -0.57372  -0.57372  -0.35789
 Alpha virt. eigenvalues --    0.11116   0.11116   0.25535   0.25535   0.43584
 Alpha virt. eigenvalues --    0.45019   0.54686   0.54686   0.58828   0.61551
 Alpha virt. eigenvalues --    0.61551   0.65920   0.75279   0.75279   0.80989

 Mulliken charges:
               1
     1  N    0.081220
     2  N   -0.081220
     3  N   -0.081220
     4  N    0.081220
 Sum of Mulliken charges =  -0.00000

 Dipole moment (field-independent basis, Debye):
    X=              0.0000    Y=             -0.0000    Z=              0.0000  Tot=              0.0000
 Quadrupole moment (field-independent basis, Debye-Ang):
   XX=            -20.4423   YY=            -20.4423   ZZ=            -24.5723
   XY=              0.0000   XZ=              0.0000   YZ=             -0.0000

 SDQ=-218.4280443\CCSD=-218.4209096\CCSD(T)=-218.4615962\RMSD=1.392e-09
 Normal termination of Gaussian 16 at Fri Feb  9 18:06:25 2024.
