 Gaussian 16, Revision A.03,
 Gaussian 16:  ES64L-G16RevA.03 25-Dec-2016

 ------------------
 #p CCSD(T)/cc-pVTZ
 ------------------

 ---------
 N2_N2_102
 ---------
 Symbolic Z-matrix:
 Charge =  0 Multiplicity = 1

                         Standard orientation:
 ---------------------------------------------------------------------
 Center     Atomic      Atomic             Coordinates (Angstroms)
 Number     Number       Type             X           Y           Z
 ---------------------------------------------------------------------
      1          7           0        0.000000    0.000000    2.270000
      2          7           0        0.000000    0.000000    1.180000
      3          7           0        0.000000    0.000000   -1.180000
      4          7           0        0.000000    0.000000   -2.270000
 ---------------------------------------------------------------------

 SCF Done:  E(RHF) =  -217.947291313     A.U. after   10 cycles
 E2 =    -0.7472232127D+00 EUMP2 =    -0.21869451452522D+03
 CCSD(T)
 CCSD(T)= -0.21872807096D+03

 The electronic state is 1-SGG.
 Alpha  occ. eigenvalues --  -15.66964 -15.66964 -15.66251 -15.66250  -1.46915
 Alpha  occ. eigenvalues --   -1.46707  -0.80504  -0.74704  -0.65520  -0.61283
 Alpha  occ. eigenvalues --   -0.61283  -0.60469  -0.60469  -0.58374
 Alpha virt. eigenvalues --    0.14606   0.14606   0.19768   0.19768   0.44858
 Alpha virt. eigenvalues --    0.46894   0.53782   0.53782   0.59304   0.59304
 Alpha virt. eigenvalues --    0.65635   0.66833   0.67672   0.71069   0.71069

 Mulliken charges:
               1
     1  N   -0.010616
     2  N    0.010616
     3  N    0.010616
     4  N   -0.010616
 Sum of Mulliken charges =  -0.00000

 Dipole moment (field-independent basis, Debye):
    X=             -0.0000    Y=              0.0000    Z=              0.0000  Tot=              0.0000
 Quadrupole moment (field-independent basis, Debye-Ang):
   XX=            -20.5024   YY=            -20.5024   ZZ=            -24.0994
   XY=              0.0000   XZ=              0.0000   YZ=             -0.0000

 4SDQ=-218.6958448\CCSD=-218.6911753\CCSD(T)=-218.728071\RMSD=8.466e-10
 Normal termination of Gaussian 16 at Fri Feb  9 18:38:53 2024.
