 Gaussian 16, Revision A.03,
 Gaussian 16:  ES64L-G16RevA.03 25-Dec-2016

 ------------------
 #p CCSD(T)/cc-pVTZ
 ------------------

 ---------
 N2_N2_105
 ---------
 Symbolic Z-matrix:
 Charge =  0 Multiplicity = 1

                         Standard orientation:
 ---------------------------------------------------------------------
 Center     Atomic      Atomic             Coordinates (Angstroms)
 Number     Number       Type             X           Y           Z
 ---------------------------------------------------------------------
      1          7           0        0.000000    0.000000    2.290000
      2          7           0        0.000000    0.000000    1.200000
      3          7           0        0.000000    0.000000   -1.200000
      4          7           0        0.000000    0.000000   -2.290000
 ---------------------------------------------------------------------

 SCF Done:  E(RHF) =  -217.950159536     A.U. after   10 cycles
 E2 =    -0.7468704590D+00 EUMP2 =    -0.21869702999457D+03
 CCSD(T)
 CCSD(T)= -0.21873062604D+03

 The electronic state is 1-SGG.
 Alpha  occ. eigenvalues --  -15.67012 -15.67012 -15.66356 -15.66355  -1.46943
 Alpha  occ. eigenvalues --   -1.46757  -0.80209  -0.74859  -0.65400  -0.61280
 Alpha  occ. eigenvalues --   -0.61280  -0.60539  -0.60539  -0.58749
 Alpha virt. eigenvalues --    0.14696   0.14696   0.19609   0.19609   0.44926
 Alpha virt. eigenvalues --    0.46946   0.53769   0.53769   0.59206   0.59206
 Alpha virt. eigenvalues --    0.64898   0.66813   0.67186   0.70921   0.70921

 Mulliken charges:
               1
     1  N   -0.010555
     2  N    0.010555
     3  N    0.010555
     4  N   -0.010555
 Sum of Mulliken charges =  -0.00000

 Dipole moment (field-independent basis, Debye):
    X=             -0.0000    Y=             -0.0000    Z=             -0.0000  Tot=              0.0000
 Quadrupole moment (field-independent basis, Debye-Ang):
   XX=            -20.5033   YY=            -20.5033   ZZ=            -24.0628
   XY=              0.0000   XZ=              0.0000   YZ=             -0.0000

 Q=-218.6984127\CCSD=-218.6937714\CCSD(T)=-218.730626\RMSD=8.538e-10\PG
 Normal termination of Gaussian 16 at Fri Feb  9 18:40:29 2024.
