 Gaussian 16, Revision A.03,
 Gaussian 16:  ES64L-G16RevA.03 25-Dec-2016

 ------------------
 #p CCSD(T)/cc-pVTZ
 ------------------

 ---------
 N2_N2_163
 ---------
 Symbolic Z-matrix:
 Charge =  0 Multiplicity = 1

                         Standard orientation:
 ---------------------------------------------------------------------
 Center     Atomic      Atomic             Coordinates (Angstroms)
 Number     Number       Type             X           Y           Z
 ---------------------------------------------------------------------
      1          7           0        0.578060   -2.430560    0.000000
      2          7           0       -0.192687   -1.659813   -0.000000
      3          7           0       -0.192687    1.500186   -0.000000
      4          7           0       -0.192687    2.590187   -0.000000
 ---------------------------------------------------------------------

 SCF Done:  E(RHF) =  -217.968561692     A.U. after   12 cycles
 E2 =    -0.7442002822D+00 EUMP2 =    -0.21871276197392D+03
 CCSD(T)
 CCSD(T)= -0.21874666106D+03

 The electronic state is 1-A'.
 Alpha  occ. eigenvalues --  -15.67778 -15.67577 -15.67405 -15.67206  -1.47441
 Alpha  occ. eigenvalues --   -1.47241  -0.77862  -0.76820  -0.63840  -0.62474
 Alpha  occ. eigenvalues --   -0.61480  -0.61459  -0.61237  -0.61116
 Alpha virt. eigenvalues --    0.15899   0.16309   0.17162   0.17545   0.41548
 Alpha virt. eigenvalues --    0.45987   0.52477   0.53978   0.54487   0.57668
 Alpha virt. eigenvalues --    0.58332   0.63766   0.67013   0.70516   0.70584

 Mulliken charges:
               1
     1  N    0.005581
     2  N   -0.005869
     3  N   -0.006832
     4  N    0.007120
 Sum of Mulliken charges =   0.00000

 Dipole moment (field-independent basis, Debye):
    X=             -0.0247    Y=              0.0248    Z=             -0.0000  Tot=              0.0350
 Quadrupole moment (field-independent basis, Debye-Ang):
   XX=            -21.2073   YY=            -22.8008   ZZ=            -20.4995
   XY=              0.7153   XZ=             -0.0000   YZ=              0.0000

 DQ=-218.7037087\MP4SDQ=-218.7145244\CCSD=-218.7101405\CCSD(T)=-218.746
 Normal termination of Gaussian 16 at Fri Feb  9 19:11:48 2024.
