 Gaussian 16, Revision A.03,
 Gaussian 16:  ES64L-G16RevA.03 25-Dec-2016

 ------------------
 #p CCSD(T)/cc-pVTZ
 ------------------

 --------
 N2_N2_33
 --------
 Symbolic Z-matrix:
 Charge =  0 Multiplicity = 1

                         Standard orientation:
 ---------------------------------------------------------------------
 Center     Atomic      Atomic             Coordinates (Angstroms)
 Number     Number       Type             X           Y           Z
 ---------------------------------------------------------------------
      1          7           0        0.000000    0.000000    1.810000
      2          7           0        0.000000    0.000000    0.720000
      3          7           0        0.000000    0.000000   -0.720000
      4          7           0        0.000000    0.000000   -1.810000
 ---------------------------------------------------------------------

 SCF Done:  E(RHF) =  -217.502767839     A.U. after   11 cycles
 E2 =    -0.8026748330D+00 EUMP2 =    -0.21830544267205D+03
 CCSD(T)
 CCSD(T)= -0.21834276317D+03

 Unable to determine electronic state:  an orbital has unidentified symmetry.
 Alpha  occ. eigenvalues --  -15.79157 -15.79107 -15.66379 -15.66378  -1.53367
 Alpha  occ. eigenvalues --   -1.48499  -1.10649  -0.75031  -0.72246  -0.69621
 Alpha  occ. eigenvalues --   -0.66400  -0.63832  -0.60763  -0.24847
 Alpha virt. eigenvalues --    0.07583   0.11080   0.14951   0.22922   0.44538
 Alpha virt. eigenvalues --    0.45389   0.50781   0.51566   0.52020   0.60856
 Alpha virt. eigenvalues --    0.61808   0.63605   0.71933   0.72961   0.79245

 Mulliken charges:
               1
     1  N   -0.103281
     2  N    0.103281
     3  N    0.103281
     4  N   -0.103281
 Sum of Mulliken charges =  -0.00000

 Dipole moment (field-independent basis, Debye):
    X=             -0.0000    Y=             -0.0000    Z=             -0.0000  Tot=              0.0000
 Quadrupole moment (field-independent basis, Debye-Ang):
   XX=            -22.5200   YY=            -19.5780   ZZ=            -29.2659
   XY=              0.0000   XZ=              0.0000   YZ=             -0.0000

 3772\CCSD=-218.2908449\CCSD(T)=-218.3427632\RMSD=1.698e-09\PG=D*H [C*(
 Normal termination of Gaussian 16 at Fri Feb  9 17:59:25 2024.
