 Gaussian 16, Revision A.03,
 Gaussian 16:  ES64L-G16RevA.03 25-Dec-2016

 ------------------
 #p CCSD(T)/cc-pVTZ
 ------------------

 ---------
 N2_N2_267
 ---------
 Symbolic Z-matrix:
 Charge =  0 Multiplicity = 1

                         Standard orientation:
 ---------------------------------------------------------------------
 Center     Atomic      Atomic             Coordinates (Angstroms)
 Number     Number       Type             X           Y           Z
 ---------------------------------------------------------------------
      1          7           0        0.000000    0.000000    3.370000
      2          7           0        0.000000    0.000000    2.280000
      3          7           0        0.000000    0.000000   -2.280000
      4          7           0        0.000000    0.000000   -3.370000
 ---------------------------------------------------------------------

 SCF Done:  E(RHF) =  -217.969564175     A.U. after    9 cycles
 E2 =    -0.7433263441D+00 EUMP2 =    -0.21871289051870D+03
 CCSD(T)
 CCSD(T)= -0.21874691436D+03

 The electronic state is 1-SGG.
 Alpha  occ. eigenvalues --  -15.67797 -15.67797 -15.67426 -15.67426  -1.47434
 Alpha  occ. eigenvalues --   -1.47434  -0.77423  -0.77365  -0.63257  -0.63152
 Alpha  occ. eigenvalues --   -0.61448  -0.61448  -0.61442  -0.61442
 Alpha virt. eigenvalues --    0.16594   0.16594   0.16738   0.16738   0.37267
 Alpha virt. eigenvalues --    0.46805   0.54254   0.56097   0.56097   0.56313
 Alpha virt. eigenvalues --    0.56313   0.60400   0.67336   0.67603   0.72988

 Mulliken charges:
               1
     1  N    0.001229
     2  N   -0.001229
     3  N   -0.001229
     4  N    0.001229
 Sum of Mulliken charges =   0.00000

 Dipole moment (field-independent basis, Debye):
    X=              0.0000    Y=              0.0000    Z=              0.0000  Tot=              0.0000
 Quadrupole moment (field-independent basis, Debye-Ang):
   XX=            -20.4977   YY=            -20.4977   ZZ=            -23.3851
   XY=              0.0000   XZ=              0.0000   YZ=             -0.0000

 P4SDQ=-218.7148393\CCSD=-218.7105126\CCSD(T)=-218.7469144\RMSD=9.827e-
 Normal termination of Gaussian 16 at Fri Feb  9 20:06:19 2024.
