 Gaussian 16, Revision A.03,
 Gaussian 16:  ES64L-G16RevA.03 25-Dec-2016

 ------------------
 #p CCSD(T)/cc-pVTZ
 ------------------

 ---------
 N2_N2_288
 ---------
 Symbolic Z-matrix:
 Charge =  0 Multiplicity = 1

                         Standard orientation:
 ---------------------------------------------------------------------
 Center     Atomic      Atomic             Coordinates (Angstroms)
 Number     Number       Type             X           Y           Z
 ---------------------------------------------------------------------
      1          7           0        0.000000    0.000000    3.510000
      2          7           0        0.000000    0.000000    2.420000
      3          7           0        0.000000    0.000000   -2.420000
      4          7           0        0.000000    0.000000   -3.510000
 ---------------------------------------------------------------------

 SCF Done:  E(RHF) =  -217.969568121     A.U. after    9 cycles
 E2 =    -0.7432826461D+00 EUMP2 =    -0.21871285076736D+03
 CCSD(T)
 CCSD(T)= -0.21874688317D+03

 The electronic state is 1-SGG.
 Alpha  occ. eigenvalues --  -15.67809 -15.67809 -15.67438 -15.67438  -1.47446
 Alpha  occ. eigenvalues --   -1.47446  -0.77423  -0.77393  -0.63248  -0.63191
 Alpha  occ. eigenvalues --   -0.61458  -0.61458  -0.61455  -0.61455
 Alpha virt. eigenvalues --    0.16617   0.16617   0.16691   0.16691   0.38936
 Alpha virt. eigenvalues --    0.45802   0.54836   0.56143   0.56143   0.56249
 Alpha virt. eigenvalues --    0.56249   0.58417   0.67354   0.67466   0.73187

 Mulliken charges:
               1
     1  N    0.000224
     2  N   -0.000224
     3  N   -0.000224
     4  N    0.000224
 Sum of Mulliken charges =  -0.00000

 Dipole moment (field-independent basis, Debye):
    X=              0.0000    Y=              0.0000    Z=              0.0000  Tot=              0.0000
 Quadrupole moment (field-independent basis, Debye-Ang):
   XX=            -20.4973   YY=            -20.4973   ZZ=            -23.3727
   XY=              0.0000   XZ=              0.0000   YZ=             -0.0000

 P4SDQ=-218.7148093\CCSD=-218.710487\CCSD(T)=-218.7468832\RMSD=9.776e-0
 Normal termination of Gaussian 16 at Fri Feb  9 20:17:01 2024.
