 Gaussian 16, Revision A.03,
 Gaussian 16:  ES64L-G16RevA.03 25-Dec-2016

 ------------------
 #p CCSD(T)/cc-pVTZ
 ------------------

 --------
 N2_N2_37
 --------
 Symbolic Z-matrix:
 Charge =  0 Multiplicity = 1

                         Standard orientation:
 ---------------------------------------------------------------------
 Center     Atomic      Atomic             Coordinates (Angstroms)
 Number     Number       Type             X           Y           Z
 ---------------------------------------------------------------------
      1          7           0        0.578060   -1.590560   -0.000000
      2          7           0       -0.192687   -0.819813   -0.000000
      3          7           0       -0.192687    0.660187    0.000000
      4          7           0       -0.192687    1.750186    0.000000
 ---------------------------------------------------------------------

 SCF Done:  E(RHF) =  -217.696065540     A.U. after   16 cycles
 E2 =    -0.7696715088D+00 EUMP2 =    -0.21846573704852D+03
 CCSD(T)
 CCSD(T)= -0.21849985432D+03

 The electronic state is 1-A'.
 Alpha  occ. eigenvalues --  -15.72790 -15.72422 -15.64676 -15.59183  -1.53196
 Alpha  occ. eigenvalues --   -1.44294  -1.03817  -0.74423  -0.69561  -0.68831
 Alpha  occ. eigenvalues --   -0.64935  -0.58350  -0.56871  -0.36059
 Alpha virt. eigenvalues --    0.08897   0.12247   0.24578   0.26243   0.41792
 Alpha virt. eigenvalues --    0.48166   0.51585   0.52293   0.59503   0.59672
 Alpha virt. eigenvalues --    0.62284   0.64833   0.69904   0.74925   0.78491

 Mulliken charges:
               1
     1  N   -0.185455
     2  N   -0.033434
     3  N    0.148387
     4  N    0.070502
 Sum of Mulliken charges =   0.00000

 Dipole moment (field-independent basis, Debye):
    X=             -0.4748    Y=              2.5113    Z=              0.0000  Tot=              2.5558
 Quadrupole moment (field-independent basis, Debye-Ang):
   XX=            -22.1980   YY=            -24.8744   ZZ=            -20.0855
   XY=              0.9199   XZ=             -0.0000   YZ=             -0.0000

 Q=-218.4511011\MP4SDQ=-218.4644779\CCSD=-218.4582393\CCSD(T)=-218.4998
 Normal termination of Gaussian 16 at Fri Feb  9 18:03:21 2024.
