 Gaussian 16, Revision A.03,
 Gaussian 16:  ES64L-G16RevA.03 25-Dec-2016

 ------------------
 #p CCSD(T)/cc-pVTZ
 ------------------

 ---------
 N2_N2_241
 ---------
 Symbolic Z-matrix:
 Charge =  0 Multiplicity = 1

                         Standard orientation:
 ---------------------------------------------------------------------
 Center     Atomic      Atomic             Coordinates (Angstroms)
 Number     Number       Type             X           Y           Z
 ---------------------------------------------------------------------
      1          7           0        0.578060   -2.950560    0.000000
      2          7           0       -0.192687   -2.179813    0.000000
      3          7           0       -0.192687    2.020186   -0.000000
      4          7           0       -0.192687    3.110187   -0.000000
 ---------------------------------------------------------------------

 SCF Done:  E(RHF) =  -217.969594372     A.U. after   11 cycles
 E2 =    -0.7434215350D+00 EUMP2 =    -0.21871301590719D+03
 CCSD(T)
 CCSD(T)= -0.21874702225D+03

 The electronic state is 1-A'.
 Alpha  occ. eigenvalues --  -15.67855 -15.67771 -15.67485 -15.67400  -1.47491
 Alpha  occ. eigenvalues --   -1.47406  -0.77483  -0.77341  -0.63325  -0.63122
 Alpha  occ. eigenvalues --   -0.61502  -0.61501  -0.61418  -0.61411
 Alpha virt. eigenvalues --    0.16498   0.16522   0.16668   0.16797   0.37935
 Alpha virt. eigenvalues --    0.45856   0.53490   0.55802   0.55918   0.56446
 Alpha virt. eigenvalues --    0.56551   0.61004   0.67211   0.67878   0.72549

 Mulliken charges:
               1
     1  N    0.000696
     2  N   -0.000626
     3  N   -0.002374
     4  N    0.002303
 Sum of Mulliken charges =  -0.00000

 Dipole moment (field-independent basis, Debye):
    X=             -0.0083    Y=              0.0063    Z=             -0.0000  Tot=              0.0104
 Quadrupole moment (field-independent basis, Debye-Ang):
   XX=            -21.1969   YY=            -22.6585   ZZ=            -20.4975
   XY=              0.7041   XZ=             -0.0000   YZ=              0.0000

 P4DQ=-218.7041339\MP4SDQ=-218.7149374\CCSD=-218.7106087\CCSD(T)=-218.7
 Normal termination of Gaussian 16 at Fri Feb  9 19:51:47 2024.
