 Gaussian 16, Revision A.03,
 Gaussian 16:  ES64L-G16RevA.03 25-Dec-2016

 ------------------
 #p CCSD(T)/cc-pVTZ
 ------------------

 --------
 N2_N2_85
 --------
 Symbolic Z-matrix:
 Charge =  0 Multiplicity = 1

                         Standard orientation:
 ---------------------------------------------------------------------
 Center     Atomic      Atomic             Coordinates (Angstroms)
 Number     Number       Type             X           Y           Z
 ---------------------------------------------------------------------
      1          7           0        0.578060   -1.910560    0.000000
      2          7           0       -0.192687   -1.139813    0.000000
      3          7           0       -0.192687    0.980186   -0.000000
      4          7           0       -0.192687    2.070187   -0.000000
 ---------------------------------------------------------------------

 SCF Done:  E(RHF) =  -217.927355044     A.U. after   13 cycles
 E2 =    -0.7508810185D+00 EUMP2 =    -0.21867823606212D+03
 CCSD(T)
 CCSD(T)= -0.21871114034D+03

 The electronic state is 1-A'.
 Alpha  occ. eigenvalues --  -15.67509 -15.66497 -15.66208 -15.65779  -1.47395
 Alpha  occ. eigenvalues --   -1.46350  -0.82933  -0.74141  -0.66460  -0.62127
 Alpha  occ. eigenvalues --   -0.61887  -0.60459  -0.60044  -0.55457
 Alpha virt. eigenvalues --    0.14034   0.15758   0.19478   0.20229   0.45183
 Alpha virt. eigenvalues --    0.45838   0.52245   0.53553   0.60119   0.60147
 Alpha virt. eigenvalues --    0.63206   0.64832   0.66207   0.72818   0.80813

 Mulliken charges:
               1
     1  N   -0.011205
     2  N    0.000429
     3  N    0.007304
     4  N    0.003472
 Sum of Mulliken charges =  -0.00000

 Dipole moment (field-independent basis, Debye):
    X=             -0.1096    Y=              0.2363    Z=             -0.0000  Tot=              0.2605
 Quadrupole moment (field-independent basis, Debye-Ang):
   XX=            -21.2899   YY=            -23.4752   ZZ=            -20.4669
   XY=              0.7697   XZ=             -0.0000   YZ=              0.0000

 DQ=-218.6677763\MP4SDQ=-218.6786558\CCSD=-218.6737952\CCSD(T)=-218.711
 Normal termination of Gaussian 16 at Fri Feb  9 18:29:50 2024.
