 Gaussian 16, Revision A.03,
 Gaussian 16:  ES64L-G16RevA.03 25-Dec-2016

 ------------------
 #p CCSD(T)/cc-pVTZ
 ------------------

 --------
 N2_N2_45
 --------
 Symbolic Z-matrix:
 Charge =  0 Multiplicity = 1

                         Standard orientation:
 ---------------------------------------------------------------------
 Center     Atomic      Atomic             Coordinates (Angstroms)
 Number     Number       Type             X           Y           Z
 ---------------------------------------------------------------------
      1          7           0        0.000000    0.000000    1.890000
      2          7           0        0.000000    0.000000    0.800000
      3          7           0        0.000000    0.000000   -0.800000
      4          7           0        0.000000    0.000000   -1.890000
 ---------------------------------------------------------------------

 SCF Done:  E(RHF) =  -217.692553658     A.U. after   11 cycles
 E2 =    -0.7724019475D+00 EUMP2 =    -0.21846495560535D+03
 CCSD(T)
 CCSD(T)= -0.21849541618D+03

 The electronic state is 1-SGG.
 Alpha  occ. eigenvalues --  -15.65740 -15.65740 -15.62216 -15.62213  -1.46749
 Alpha  occ. eigenvalues --   -1.44891  -0.96596  -0.71312  -0.67513  -0.62761
 Alpha  occ. eigenvalues --   -0.62761  -0.57638  -0.57638  -0.38155
 Alpha virt. eigenvalues --    0.11435   0.11435   0.25089   0.25089   0.43687
 Alpha virt. eigenvalues --    0.45141   0.54661   0.54661   0.59576   0.61435
 Alpha virt. eigenvalues --    0.61435   0.66180   0.75140   0.75140   0.81061

 Mulliken charges:
               1
     1  N    0.062260
     2  N   -0.062260
     3  N   -0.062260
     4  N    0.062260
 Sum of Mulliken charges =  -0.00000

 Dipole moment (field-independent basis, Debye):
    X=              0.0000    Y=              0.0000    Z=             -0.0000  Tot=              0.0000
 Quadrupole moment (field-independent basis, Debye-Ang):
   XX=            -20.4450   YY=            -20.4450   ZZ=            -24.5950
   XY=              0.0000   XZ=              0.0000   YZ=             -0.0000

 SDQ=-218.4621232\CCSD=-218.4553011\CCSD(T)=-218.4954162\RMSD=9.366e-10
 Normal termination of Gaussian 16 at Fri Feb  9 18:08:15 2024.
