 Gaussian 16, Revision A.03,
 Gaussian 16:  ES64L-G16RevA.03 25-Dec-2016

 ------------------
 #p CCSD(T)/cc-pVTZ
 ------------------

 ---------
 N2_N2_158
 ---------
 Symbolic Z-matrix:
 Charge =  0 Multiplicity = 1

                         Standard orientation:
 ---------------------------------------------------------------------
 Center     Atomic      Atomic             Coordinates (Angstroms)
 Number     Number       Type             X           Y           Z
 ---------------------------------------------------------------------
      1          7           0       -0.817500   -1.812500    0.000000
      2          7           0        0.272500   -1.812500    0.000000
      3          7           0        0.272500    1.267500    0.000000
      4          7           0        0.272500    2.357500    0.000000
 ---------------------------------------------------------------------

 SCF Done:  E(RHF) =  -217.968053111     A.U. after   12 cycles
 E2 =    -0.7449818332D+00 EUMP2 =    -0.21871303494392D+03
 CCSD(T)
 CCSD(T)= -0.21874681406D+03

 The electronic state is 1-A'.
 Alpha  occ. eigenvalues --  -15.67989 -15.67608 -15.67508 -15.67134  -1.47651
 Alpha  occ. eigenvalues --   -1.47148  -0.77831  -0.77096  -0.64166  -0.62786
 Alpha  occ. eigenvalues --   -0.61705  -0.61671  -0.61149  -0.60578
 Alpha virt. eigenvalues --    0.15251   0.16225   0.17014   0.18091   0.41533
 Alpha virt. eigenvalues --    0.44161   0.51499   0.53653   0.55068   0.57121
 Alpha virt. eigenvalues --    0.58352   0.60947   0.66591   0.69494   0.72738

 Mulliken charges:
               1
     1  N   -0.005919
     2  N    0.006590
     3  N   -0.006836
     4  N    0.006165
 Sum of Mulliken charges =  -0.00000

 Dipole moment (field-independent basis, Debye):
    X=              0.0249    Y=              0.0509    Z=              0.0000  Tot=              0.0567
 Quadrupole moment (field-independent basis, Debye-Ang):
   XX=            -21.9123   YY=            -22.0245   ZZ=            -20.4948
   XY=             -0.0317   XZ=              0.0000   YZ=              0.0000

 4SDQ=-218.7145339\CCSD=-218.7102022\CCSD(T)=-218.7468141\RMSD=2.018e-0
 Normal termination of Gaussian 16 at Fri Feb  9 19:09:12 2024.
