 Gaussian 16, Revision A.03,
 Gaussian 16:  ES64L-G16RevA.03 25-Dec-2016

 ------------------
 #p CCSD(T)/cc-pVTZ
 ------------------

 ---------
 N2_N2_119
 ---------
 Symbolic Z-matrix:
 Charge =  0 Multiplicity = 1

                         Standard orientation:
 ---------------------------------------------------------------------
 Center     Atomic      Atomic             Coordinates (Angstroms)
 Number     Number       Type             X           Y           Z
 ---------------------------------------------------------------------
      1          7           0       -0.817500   -1.552500    0.000000
      2          7           0        0.272500   -1.552500    0.000000
      3          7           0        0.272500    1.007500    0.000000
      4          7           0        0.272500    2.097500    0.000000
 ---------------------------------------------------------------------

 SCF Done:  E(RHF) =  -217.958235342     A.U. after   12 cycles
 E2 =    -0.7477679920D+00 EUMP2 =    -0.21870600333352D+03
 CCSD(T)
 CCSD(T)= -0.21873934434D+03

 The electronic state is 1-A'.
 Alpha  occ. eigenvalues --  -15.67892 -15.67357 -15.67089 -15.66677  -1.47664
 Alpha  occ. eigenvalues --   -1.46837  -0.78671  -0.76669  -0.65597  -0.62490
 Alpha  occ. eigenvalues --   -0.61886  -0.61633  -0.60713  -0.58538
 Alpha virt. eigenvalues --    0.14495   0.15890   0.17446   0.19349   0.42083
 Alpha virt. eigenvalues --    0.45800   0.52784   0.55238   0.56201   0.58402
 Alpha virt. eigenvalues --    0.59691   0.61060   0.66298   0.72307   0.72979

 Mulliken charges:
               1
     1  N   -0.011024
     2  N    0.011419
     3  N    0.000130
     4  N   -0.000525
 Sum of Mulliken charges =  -0.00000

 Dipole moment (field-independent basis, Debye):
    X=              0.0616    Y=              0.0960    Z=              0.0000  Tot=              0.1141
 Quadrupole moment (field-independent basis, Debye-Ang):
   XX=            -21.9405   YY=            -22.2457   ZZ=            -20.4850
   XY=             -0.0925   XZ=              0.0000   YZ=              0.0000

 4SDQ=-218.706787\CCSD=-218.7024102\CCSD(T)=-218.7393443\RMSD=5.878e-09
 Normal termination of Gaussian 16 at Fri Feb  9 18:47:47 2024.
