 Gaussian 16, Revision A.03,
 Gaussian 16:  ES64L-G16RevA.03 25-Dec-2016

 ------------------
 #p CCSD(T)/cc-pVTZ
 ------------------

 ---------
 N2_N2_140
 ---------
 Symbolic Z-matrix:
 Charge =  0 Multiplicity = 1

                         Standard orientation:
 ---------------------------------------------------------------------
 Center     Atomic      Atomic             Coordinates (Angstroms)
 Number     Number       Type             X           Y           Z
 ---------------------------------------------------------------------
      1          7           0       -0.817500   -1.692500    0.000000
      2          7           0        0.272500   -1.692500    0.000000
      3          7           0        0.272500    1.147500    0.000000
      4          7           0        0.272500    2.237500    0.000000
 ---------------------------------------------------------------------

 SCF Done:  E(RHF) =  -217.965531220     A.U. after   12 cycles
 E2 =    -0.7459014396D+00 EUMP2 =    -0.21871143265933D+03
 CCSD(T)
 CCSD(T)= -0.21874506914D+03

 The electronic state is 1-A'.
 Alpha  occ. eigenvalues --  -15.67959 -15.67549 -15.67357 -15.66977  -1.47657
 Alpha  occ. eigenvalues --   -1.47029  -0.78071  -0.76941  -0.64689  -0.62651
 Alpha  occ. eigenvalues --   -0.61761  -0.61674  -0.60998  -0.59909
 Alpha virt. eigenvalues --    0.14917   0.16096   0.17174   0.18593   0.41983
 Alpha virt. eigenvalues --    0.45438   0.53111   0.53126   0.55272   0.57649
 Alpha virt. eigenvalues --    0.58948   0.59954   0.66413   0.70418   0.72800

 Mulliken charges:
               1
     1  N   -0.007328
     2  N    0.008168
     3  N   -0.003921
     4  N    0.003081
 Sum of Mulliken charges =  -0.00000

 Dipole moment (field-independent basis, Debye):
    X=              0.0370    Y=              0.0689    Z=              0.0000  Tot=              0.0782
 Quadrupole moment (field-independent basis, Debye-Ang):
   XX=            -21.9226   YY=            -22.1073   ZZ=            -20.4927
   XY=             -0.0517   XZ=              0.0000   YZ=              0.0000

 4SDQ=-218.7126923\CCSD=-218.7083476\CCSD(T)=-218.7450691\RMSD=2.296e-0
 Normal termination of Gaussian 16 at Fri Feb  9 18:58:37 2024.
