 Gaussian 16, Revision A.03,
 Gaussian 16:  ES64L-G16RevA.03 25-Dec-2016

 ------------------
 #p CCSD(T)/cc-pVTZ
 ------------------

 --------
 N2_N2_51
 --------
 Symbolic Z-matrix:
 Charge =  0 Multiplicity = 1

                         Standard orientation:
 ---------------------------------------------------------------------
 Center     Atomic      Atomic             Coordinates (Angstroms)
 Number     Number       Type             X           Y           Z
 ---------------------------------------------------------------------
      1          7           0        0.000000    0.000000    1.930000
      2          7           0        0.000000    0.000000    0.840000
      3          7           0        0.000000    0.000000   -0.840000
      4          7           0        0.000000    0.000000   -1.930000
 ---------------------------------------------------------------------

 SCF Done:  E(RHF) =  -217.754691511     A.U. after   10 cycles
 E2 =    -0.7664077712D+00 EUMP2 =    -0.21852109928177D+03
 CCSD(T)
 CCSD(T)= -0.21855227876D+03

 The electronic state is 1-SGG.
 Alpha  occ. eigenvalues --  -15.65873 -15.65873 -15.62739 -15.62739  -1.46612
 Alpha  occ. eigenvalues --   -1.45164  -0.93469  -0.71612  -0.67348  -0.62309
 Alpha  occ. eigenvalues --   -0.62309  -0.58126  -0.58126  -0.42294
 Alpha virt. eigenvalues --    0.11995   0.11995   0.24256   0.24256   0.43857
 Alpha virt. eigenvalues --    0.45377   0.54587   0.54587   0.60930   0.61198
 Alpha virt. eigenvalues --    0.61198   0.66551   0.74784   0.74784   0.81135

 Mulliken charges:
               1
     1  N    0.034954
     2  N   -0.034954
     3  N   -0.034954
     4  N    0.034954
 Sum of Mulliken charges =  -0.00000

 Dipole moment (field-independent basis, Debye):
    X=              0.0000    Y=             -0.0000    Z=              0.0000  Tot=              0.0000
 Quadrupole moment (field-independent basis, Debye-Ang):
   XX=            -20.4525   YY=            -20.4525   ZZ=            -24.6143
   XY=              0.0000   XZ=              0.0000   YZ=             -0.0000

 SDQ=-218.5193316\CCSD=-218.5130329\CCSD(T)=-218.5522788\RMSD=5.908e-09
 Normal termination of Gaussian 16 at Fri Feb  9 18:11:41 2024.
