 Gaussian 16, Revision A.03,
 Gaussian 16:  ES64L-G16RevA.03 25-Dec-2016

 ------------------
 #p CCSD(T)/cc-pVTZ
 ------------------

 ---------
 N2_N2_210
 ---------
 Symbolic Z-matrix:
 Charge =  0 Multiplicity = 1

                         Standard orientation:
 ---------------------------------------------------------------------
 Center     Atomic      Atomic             Coordinates (Angstroms)
 Number     Number       Type             X           Y           Z
 ---------------------------------------------------------------------
      1          7           0        0.000000    0.000000    2.990000
      2          7           0        0.000000    0.000000    1.900000
      3          7           0        0.000000    0.000000   -1.900000
      4          7           0        0.000000    0.000000   -2.990000
 ---------------------------------------------------------------------

 SCF Done:  E(RHF) =  -217.969411428     A.U. after   10 cycles
 E2 =    -0.7435685353D+00 EUMP2 =    -0.21871297996297D+03
 CCSD(T)
 CCSD(T)= -0.21874696947D+03

 The electronic state is 1-SGG.
 Alpha  occ. eigenvalues --  -15.67735 -15.67735 -15.67364 -15.67364  -1.47381
 Alpha  occ. eigenvalues --   -1.47377  -0.77483  -0.77182  -0.63379  -0.62892
 Alpha  occ. eigenvalues --   -0.61406  -0.61406  -0.61375  -0.61375
 Alpha virt. eigenvalues --    0.16385   0.16385   0.17048   0.17048   0.35907
 Alpha virt. eigenvalues --    0.47669   0.52853   0.55659   0.55659   0.56759
 Alpha virt. eigenvalues --    0.56759   0.66346   0.67271   0.71714   0.71714

 Mulliken charges:
               1
     1  N    0.007110
     2  N   -0.007110
     3  N   -0.007110
     4  N    0.007110
 Sum of Mulliken charges =  -0.00000

 Dipole moment (field-independent basis, Debye):
    X=              0.0000    Y=              0.0000    Z=             -0.0000  Tot=              0.0000
 Quadrupole moment (field-independent basis, Debye-Ang):
   XX=            -20.4993   YY=            -20.4993   ZZ=            -23.4556
   XY=              0.0000   XZ=              0.0000   YZ=             -0.0000

 Q=-218.7148844\CCSD=-218.7105343\CCSD(T)=-218.7469695\RMSD=6.726e-10\P
 Normal termination of Gaussian 16 at Fri Feb  9 19:35:50 2024.
