 Gaussian 16, Revision A.03,
 Gaussian 16:  ES64L-G16RevA.03 25-Dec-2016

 ------------------
 #p CCSD(T)/cc-pVTZ
 ------------------

 ---------
 N2_N2_154
 ---------
 Symbolic Z-matrix:
 Charge =  0 Multiplicity = 1

                         Standard orientation:
 ---------------------------------------------------------------------
 Center     Atomic      Atomic             Coordinates (Angstroms)
 Number     Number       Type             X           Y           Z
 ---------------------------------------------------------------------
      1          7           0        0.578060   -2.370560   -0.000000
      2          7           0       -0.192687   -1.599814   -0.000000
      3          7           0       -0.192687    1.440187    0.000000
      4          7           0       -0.192687    2.530186    0.000000
 ---------------------------------------------------------------------

 SCF Done:  E(RHF) =  -217.967975701     A.U. after   12 cycles
 E2 =    -0.7444077067D+00 EUMP2 =    -0.21871238340745D+03
 CCSD(T)
 CCSD(T)= -0.21874625253D+03

 The electronic state is 1-A'.
 Alpha  occ. eigenvalues --  -15.67752 -15.67524 -15.67377 -15.67153  -1.47427
 Alpha  occ. eigenvalues --   -1.47201  -0.78003  -0.76675  -0.63995  -0.62325
 Alpha  occ. eigenvalues --   -0.61479  -0.61444  -0.61188  -0.60998
 Alpha virt. eigenvalues --    0.15772   0.16275   0.17296   0.17710   0.42498
 Alpha virt. eigenvalues --    0.46061   0.52802   0.53796   0.54236   0.57896
 Alpha virt. eigenvalues --    0.58682   0.63762   0.66985   0.70492   0.71061

 Mulliken charges:
               1
     1  N    0.005776
     2  N   -0.006104
     3  N   -0.005300
     4  N    0.005628
 Sum of Mulliken charges =  -0.00000

 Dipole moment (field-independent basis, Debye):
    X=             -0.0286    Y=              0.0301    Z=              0.0000  Tot=              0.0415
 Quadrupole moment (field-independent basis, Debye-Ang):
   XX=            -21.2104   YY=            -22.8368   ZZ=            -20.4998
   XY=              0.7179   XZ=              0.0000   YZ=             -0.0000

 P4DQ=-218.7032859\MP4SDQ=-218.7141029\CCSD=-218.709704\CCSD(T)=-218.74
 Normal termination of Gaussian 16 at Fri Feb  9 19:07:08 2024.
