 Gaussian 16, Revision A.03,
 Gaussian 16:  ES64L-G16RevA.03 25-Dec-2016

 ------------------
 #p CCSD(T)/cc-pVTZ
 ------------------

 ---------
 N2_N2_259
 ---------
 Symbolic Z-matrix:
 Charge =  0 Multiplicity = 1

                         Standard orientation:
 ---------------------------------------------------------------------
 Center     Atomic      Atomic             Coordinates (Angstroms)
 Number     Number       Type             X           Y           Z
 ---------------------------------------------------------------------
      1          7           0        0.578060   -3.070560    0.000000
      2          7           0       -0.192687   -2.299813    0.000000
      3          7           0       -0.192687    2.140187   -0.000000
      4          7           0       -0.192687    3.230186   -0.000000
 ---------------------------------------------------------------------

 SCF Done:  E(RHF) =  -217.969600402     A.U. after   11 cycles
 E2 =    -0.7433548903D+00 EUMP2 =    -0.21871295529220D+03
 CCSD(T)
 CCSD(T)= -0.21874697338D+03

 The electronic state is 1-A'.
 Alpha  occ. eigenvalues --  -15.67859 -15.67787 -15.67489 -15.67416  -1.47495
 Alpha  occ. eigenvalues --   -1.47422  -0.77472  -0.77373  -0.63302  -0.63168
 Alpha  occ. eigenvalues --   -0.61505  -0.61505  -0.61433  -0.61429
 Alpha virt. eigenvalues --    0.16544   0.16560   0.16651   0.16733   0.38762
 Alpha virt. eigenvalues --    0.45483   0.54048   0.55958   0.56025   0.56335
 Alpha virt. eigenvalues --    0.56393   0.59572   0.67255   0.67635   0.72862

 Mulliken charges:
               1
     1  N    0.000011
     2  N    0.000039
     3  N   -0.001100
     4  N    0.001049
 Sum of Mulliken charges =  -0.00000

 Dipole moment (field-independent basis, Debye):
    X=             -0.0067    Y=              0.0051    Z=             -0.0000  Tot=              0.0084
 Quadrupole moment (field-independent basis, Debye-Ang):
   XX=            -21.1963   YY=            -22.6486   ZZ=            -20.4972
   XY=              0.7028   XZ=              0.0000   YZ=             -0.0000

 =-218.7040908\MP4SDQ=-218.7148925\CCSD=-218.7105685\CCSD(T)=-218.74697
 Normal termination of Gaussian 16 at Fri Feb  9 20:01:10 2024.
