 Gaussian 16, Revision A.03,
 Gaussian 16:  ES64L-G16RevA.03 25-Dec-2016

 ------------------
 #p CCSD(T)/cc-pVTZ
 ------------------

 --------
 N2_N2_74
 --------
 Symbolic Z-matrix:
 Charge =  0 Multiplicity = 1

                         Standard orientation:
 ---------------------------------------------------------------------
 Center     Atomic      Atomic             Coordinates (Angstroms)
 Number     Number       Type             X           Y           Z
 ---------------------------------------------------------------------
      1          7           0       -0.817500   -1.252500    0.000000
      2          7           0        0.272500   -1.252500    0.000000
      3          7           0        0.272500    0.707500    0.000000
      4          7           0        0.272500    1.797500    0.000000
 ---------------------------------------------------------------------

 SCF Done:  E(RHF) =  -217.886477878     A.U. after   13 cycles
 E2 =    -0.7583984297D+00 EUMP2 =    -0.21864487630736D+03
 CCSD(T)
 CCSD(T)= -0.21867687588D+03

 The electronic state is 1-A'.
 Alpha  occ. eigenvalues --  -15.67781 -15.66504 -15.66236 -15.64808  -1.48274
 Alpha  occ. eigenvalues --   -1.46174  -0.83693  -0.75772  -0.68247  -0.63095
 Alpha  occ. eigenvalues --   -0.62573  -0.60961  -0.59327  -0.51131
 Alpha virt. eigenvalues --    0.13580   0.14980   0.18543   0.21719   0.41903
 Alpha virt. eigenvalues --    0.44960   0.53322   0.53827   0.55640   0.58055
 Alpha virt. eigenvalues --    0.61256   0.66544   0.73466   0.74777   0.75915

 Mulliken charges:
               1
     1  N   -0.043102
     2  N    0.041080
     3  N   -0.001061
     4  N    0.003083
 Sum of Mulliken charges =  -0.00000

 Dipole moment (field-independent basis, Debye):
    X=              0.2394    Y=              0.2459    Z=              0.0000  Tot=              0.3432
 Quadrupole moment (field-independent basis, Debye-Ang):
   XX=            -22.0508   YY=            -22.7428   ZZ=            -20.3926
   XY=             -0.3353   XZ=              0.0000   YZ=              0.0000

 SDQ=-218.6433036\CCSD=-218.6386456\CCSD(T)=-218.6768759\RMSD=9.369e-09
 Normal termination of Gaussian 16 at Fri Feb  9 18:24:02 2024.
