 Gaussian 16, Revision A.03,
 Gaussian 16:  ES64L-G16RevA.03 25-Dec-2016

 ------------------
 #p CCSD(T)/cc-pVTZ
 ------------------

 ---------
 N2_N2_129
 ---------
 Symbolic Z-matrix:
 Charge =  0 Multiplicity = 1

                         Standard orientation:
 ---------------------------------------------------------------------
 Center     Atomic      Atomic             Coordinates (Angstroms)
 Number     Number       Type             X           Y           Z
 ---------------------------------------------------------------------
      1          7           0        0.000000    0.000000    2.450000
      2          7           0        0.000000    0.000000    1.360000
      3          7           0        0.000000    0.000000   -1.360000
      4          7           0        0.000000    0.000000   -2.450000
 ---------------------------------------------------------------------

 SCF Done:  E(RHF) =  -217.963194896     A.U. after   10 cycles
 E2 =    -0.7450725101D+00 EUMP2 =    -0.21870826740580D+03
 CCSD(T)
 CCSD(T)= -0.21874206963D+03

 The electronic state is 1-SGG.
 Alpha  occ. eigenvalues --  -15.67329 -15.67329 -15.66910 -15.66910  -1.47127
 Alpha  occ. eigenvalues --   -1.47051  -0.78668  -0.75866  -0.64553  -0.61297
 Alpha  occ. eigenvalues --   -0.61297  -0.60941  -0.60941  -0.60824
 Alpha virt. eigenvalues --    0.15301   0.15301   0.18590   0.18590   0.45505
 Alpha virt. eigenvalues --    0.46817   0.53922   0.53922   0.56518   0.58475
 Alpha virt. eigenvalues --    0.58475   0.66687   0.67080   0.70171   0.70171

 Mulliken charges:
               1
     1  N   -0.005504
     2  N    0.005504
     3  N    0.005504
     4  N   -0.005504
 Sum of Mulliken charges =  -0.00000

 Dipole moment (field-independent basis, Debye):
    X=             -0.0000    Y=             -0.0000    Z=              0.0000  Tot=              0.0000
 Quadrupole moment (field-independent basis, Debye-Ang):
   XX=            -20.5052   YY=            -20.5052   ZZ=            -23.8163
   XY=              0.0000   XZ=              0.0000   YZ=             -0.0000

 P4SDQ=-218.7099253\CCSD=-218.7054316\CCSD(T)=-218.7420696\RMSD=8.428e-
 Normal termination of Gaussian 16 at Fri Feb  9 18:53:00 2024.
