 Gaussian 16, Revision A.03,
 Gaussian 16:  ES64L-G16RevA.03 25-Dec-2016

 ------------------
 #p CCSD(T)/cc-pVTZ
 ------------------

 -------
 N2_N2_1
 -------
 Symbolic Z-matrix:
 Charge =  0 Multiplicity = 1

                         Standard orientation:
 ---------------------------------------------------------------------
 Center     Atomic      Atomic             Coordinates (Angstroms)
 Number     Number       Type             X           Y           Z
 ---------------------------------------------------------------------
      1          7           0        0.578060   -1.350560    0.000000
      2          7           0       -0.192687   -0.579813    0.000000
      3          7           0       -0.192687    0.420187   -0.000000
      4          7           0       -0.192687    1.510186   -0.000000
 ---------------------------------------------------------------------

 SCF Done:  E(RHF) =  -217.463651666     A.U. after   15 cycles
 E2 =    -0.7496583765D+00 EUMP2 =    -0.21821331004283D+03
 CCSD(T)
 CCSD(T)= -0.21824980220D+03

 The electronic state is 1-A'.
 Alpha  occ. eigenvalues --  -15.79200 -15.70171 -15.67718 -15.58836  -1.71496
 Alpha  occ. eigenvalues --   -1.47579  -1.30557  -0.87699  -0.86756  -0.70077
 Alpha  occ. eigenvalues --   -0.64458  -0.57164  -0.52554  -0.32042
 Alpha virt. eigenvalues --    0.04076   0.15861   0.31105   0.39771   0.41552
 Alpha virt. eigenvalues --    0.49483   0.50111   0.50932   0.52034   0.62589
 Alpha virt. eigenvalues --    0.64816   0.66718   0.71504   0.71613   0.77548

 Mulliken charges:
               1
     1  N   -0.432780
     2  N    0.248258
     3  N    0.369025
     4  N   -0.184503
 Sum of Mulliken charges =  -0.00000

 Dipole moment (field-independent basis, Debye):
    X=             -1.2525    Y=              1.1633    Z=             -0.0000  Tot=              1.7094
 Quadrupole moment (field-independent basis, Debye-Ang):
   XX=            -22.3438   YY=            -28.3804   ZZ=            -18.8610
   XY=              1.9358   XZ=             -0.0000   YZ=              0.0000

 =-218.1995402\MP4SDQ=-218.21107\CCSD=-218.2089804\CCSD(T)=-218.2498022
 Normal termination of Gaussian 16 at Fri Feb  9 17:40:40 2024.
