 Gaussian 16, Revision A.03,
 Gaussian 16:  ES64L-G16RevA.03 25-Dec-2016

 ------------------
 #p CCSD(T)/cc-pVTZ
 ------------------

 ---------
 N2_N2_226
 ---------
 Symbolic Z-matrix:
 Charge =  0 Multiplicity = 1

                         Standard orientation:
 ---------------------------------------------------------------------
 Center     Atomic      Atomic             Coordinates (Angstroms)
 Number     Number       Type             X           Y           Z
 ---------------------------------------------------------------------
      1          7           0        0.578060   -2.850560    0.000000
      2          7           0       -0.192687   -2.079814    0.000000
      3          7           0       -0.192687    1.920186   -0.000000
      4          7           0       -0.192687    3.010187   -0.000000
 ---------------------------------------------------------------------

 SCF Done:  E(RHF) =  -217.969573991     A.U. after   11 cycles
 E2 =    -0.7434964882D+00 EUMP2 =    -0.21871307047906D+03
 CCSD(T)
 CCSD(T)= -0.21874706512D+03

 The electronic state is 1-A'.
 Alpha  occ. eigenvalues --  -15.67850 -15.67753 -15.67480 -15.67382  -1.47487
 Alpha  occ. eigenvalues --   -1.47389  -0.77501  -0.77301  -0.63359  -0.63066
 Alpha  occ. eigenvalues --   -0.61498  -0.61497  -0.61400  -0.61391
 Alpha virt. eigenvalues --    0.16439   0.16485   0.16697   0.16873   0.37586
 Alpha virt. eigenvalues --    0.46018   0.53068   0.55603   0.55779   0.56578
 Alpha virt. eigenvalues --    0.56741   0.62125   0.67173   0.68203   0.72206

 Mulliken charges:
               1
     1  N    0.001508
     2  N   -0.001437
     3  N   -0.003848
     4  N    0.003778
 Sum of Mulliken charges =  -0.00000

 Dipole moment (field-independent basis, Debye):
    X=             -0.0101    Y=              0.0079    Z=             -0.0000  Tot=              0.0128
 Quadrupole moment (field-independent basis, Debye-Ang):
   XX=            -21.1977   YY=            -22.6709   ZZ=            -20.4978
   XY=              0.7055   XZ=              0.0000   YZ=              0.0000

 4DQ=-218.70417\MP4SDQ=-218.7149755\CCSD=-218.7106415\CCSD(T)=-218.7470
 Normal termination of Gaussian 16 at Fri Feb  9 19:44:05 2024.
