 Gaussian 16, Revision A.03,
 Gaussian 16:  ES64L-G16RevA.03 25-Dec-2016

 ------------------
 #p CCSD(T)/cc-pVTZ
 ------------------

 ---------
 N2_N2_272
 ---------
 Symbolic Z-matrix:
 Charge =  0 Multiplicity = 1

                         Standard orientation:
 ---------------------------------------------------------------------
 Center     Atomic      Atomic             Coordinates (Angstroms)
 Number     Number       Type             X           Y           Z
 ---------------------------------------------------------------------
      1          7           0       -0.817500   -2.572500    0.000000
      2          7           0        0.272500   -2.572500    0.000000
      3          7           0        0.272500    2.027500    0.000000
      4          7           0        0.272500    3.117500    0.000000
 ---------------------------------------------------------------------

 SCF Done:  E(RHF) =  -217.969665654     A.U. after    9 cycles
 E2 =    -0.7433533703D+00 EUMP2 =    -0.21871301902450D+03
 CCSD(T)
 CCSD(T)= -0.21874704114D+03

 The electronic state is 1-A'.
 Alpha  occ. eigenvalues --  -15.67949 -15.67784 -15.67578 -15.67414  -1.47580
 Alpha  occ. eigenvalues --   -1.47414  -0.77554  -0.77387  -0.63374  -0.63197
 Alpha  occ. eigenvalues --   -0.61591  -0.61590  -0.61428  -0.61414
 Alpha virt. eigenvalues --    0.16443   0.16512   0.16676   0.16751   0.41496
 Alpha virt. eigenvalues --    0.42784   0.53995   0.55969   0.56016   0.56219
 Alpha virt. eigenvalues --    0.56321   0.59090   0.67182   0.67774   0.72610

 Mulliken charges:
               1
     1  N   -0.000562
     2  N    0.000689
     3  N   -0.000506
     4  N    0.000379
 Sum of Mulliken charges =   0.00000

 Dipole moment (field-independent basis, Debye):
    X=              0.0035    Y=              0.0099    Z=              0.0000  Tot=              0.0105
 Quadrupole moment (field-independent basis, Debye-Ang):
   XX=            -21.8943   YY=            -21.8882   ZZ=            -20.4964
   XY=             -0.0038   XZ=              0.0000   YZ=              0.0000

 =-218.7149489\CCSD=-218.7106365\CCSD(T)=-218.7470411\RMSD=9.332e-09\PG
 Normal termination of Gaussian 16 at Fri Feb  9 20:08:52 2024.
