 Gaussian 16, Revision A.03,
 Gaussian 16:  ES64L-G16RevA.03 25-Dec-2016

 ------------------
 #p CCSD(T)/cc-pVTZ
 ------------------

 ---------
 N2_N2_111
 ---------
 Symbolic Z-matrix:
 Charge =  0 Multiplicity = 1

                         Standard orientation:
 ---------------------------------------------------------------------
 Center     Atomic      Atomic             Coordinates (Angstroms)
 Number     Number       Type             X           Y           Z
 ---------------------------------------------------------------------
      1          7           0        0.000000    0.000000    2.330000
      2          7           0        0.000000    0.000000    1.240000
      3          7           0        0.000000    0.000000   -1.240000
      4          7           0        0.000000    0.000000   -2.330000
 ---------------------------------------------------------------------

 SCF Done:  E(RHF) =  -217.954852315     A.U. after   10 cycles
 E2 =    -0.7462693568D+00 EUMP2 =    -0.21870112167202D+03
 CCSD(T)
 CCSD(T)= -0.21873478525D+03

 The electronic state is 1-SGG.
 Alpha  occ. eigenvalues --  -15.67102 -15.67102 -15.66538 -15.66538  -1.46996
 Alpha  occ. eigenvalues --   -1.46847  -0.79701  -0.75149  -0.65167  -0.61279
 Alpha  occ. eigenvalues --   -0.61279  -0.60663  -0.60663  -0.59406
 Alpha virt. eigenvalues --    0.14865   0.14865   0.19314   0.19314   0.45068
 Alpha virt. eigenvalues --    0.47028   0.53765   0.53765   0.59015   0.59015
 Alpha virt. eigenvalues --    0.62708   0.66775   0.66987   0.70660   0.70660

 Mulliken charges:
               1
     1  N   -0.010028
     2  N    0.010028
     3  N    0.010028
     4  N   -0.010028
 Sum of Mulliken charges =  -0.00000

 Dipole moment (field-independent basis, Debye):
    X=             -0.0000    Y=              0.0000    Z=              0.0000  Tot=              0.0000
 Quadrupole moment (field-independent basis, Debye-Ang):
   XX=            -20.5046   YY=            -20.5046   ZZ=            -23.9931
   XY=              0.0000   XZ=              0.0000   YZ=             -0.0000

 4SDQ=-218.7025944\CCSD=-218.6980014\CCSD(T)=-218.7347852\RMSD=8.617e-1
 Normal termination of Gaussian 16 at Fri Feb  9 18:43:36 2024.
