 Gaussian 16, Revision A.03,
 Gaussian 16:  ES64L-G16RevA.03 25-Dec-2016

 ------------------
 #p CCSD(T)/cc-pVTZ
 ------------------

 --------
 N2_N2_88
 --------
 Symbolic Z-matrix:
 Charge =  0 Multiplicity = 1

                         Standard orientation:
 ---------------------------------------------------------------------
 Center     Atomic      Atomic             Coordinates (Angstroms)
 Number     Number       Type             X           Y           Z
 ---------------------------------------------------------------------
      1          7           0        0.578060   -1.930560   -0.000000
      2          7           0       -0.192687   -1.159814   -0.000000
      3          7           0       -0.192687    1.000187    0.000000
      4          7           0       -0.192687    2.090186    0.000000
 ---------------------------------------------------------------------

 SCF Done:  E(RHF) =  -217.932626928     A.U. after   13 cycles
 E2 =    -0.7501842337D+00 EUMP2 =    -0.21868281116139D+03
 CCSD(T)
 CCSD(T)= -0.21871581761D+03

 The electronic state is 1-A'.
 Alpha  occ. eigenvalues --  -15.67497 -15.66564 -15.66330 -15.65902  -1.47371
 Alpha  occ. eigenvalues --   -1.46422  -0.82403  -0.74310  -0.66323  -0.62064
 Alpha  occ. eigenvalues --   -0.61820  -0.60549  -0.60144  -0.56032
 Alpha virt. eigenvalues --    0.14160   0.15806   0.19308   0.20050   0.45251
 Alpha virt. eigenvalues --    0.45775   0.52236   0.53523   0.60004   0.60041
 Alpha virt. eigenvalues --    0.63189   0.64706   0.66169   0.72611   0.80621

 Mulliken charges:
               1
     1  N   -0.008828
     2  N   -0.000496
     3  N    0.006924
     4  N    0.002400
 Sum of Mulliken charges =  -0.00000

 Dipole moment (field-independent basis, Debye):
    X=             -0.1026    Y=              0.2101    Z=              0.0000  Tot=              0.2338
 Quadrupole moment (field-independent basis, Debye-Ang):
   XX=            -21.2808   YY=            -23.4311   ZZ=            -20.4721
   XY=              0.7659   XZ=              0.0000   YZ=             -0.0000

 4DQ=-218.6724994\MP4SDQ=-218.6833667\CCSD=-218.6785583\CCSD(T)=-218.71
 Normal termination of Gaussian 16 at Fri Feb  9 18:31:29 2024.
