 Gaussian 16, Revision A.03,
 Gaussian 16:  ES64L-G16RevA.03 25-Dec-2016

 ------------------
 #p CCSD(T)/cc-pVTZ
 ------------------

 ---------
 N2_N2_177
 ---------
 Symbolic Z-matrix:
 Charge =  0 Multiplicity = 1

                         Standard orientation:
 ---------------------------------------------------------------------
 Center     Atomic      Atomic             Coordinates (Angstroms)
 Number     Number       Type             X           Y           Z
 ---------------------------------------------------------------------
      1          7           0        0.000000    0.000000    2.770000
      2          7           0        0.000000    0.000000    1.680000
      3          7           0        0.000000    0.000000   -1.680000
      4          7           0        0.000000    0.000000   -2.770000
 ---------------------------------------------------------------------

 SCF Done:  E(RHF) =  -217.968865516     A.U. after   10 cycles
 E2 =    -0.7438696727D+00 EUMP2 =    -0.21871273518892D+03
 CCSD(T)
 CCSD(T)= -0.21874668882D+03

 The electronic state is 1-SGG.
 Alpha  occ. eigenvalues --  -15.67650 -15.67650 -15.67280 -15.67280  -1.47320
 Alpha  occ. eigenvalues --   -1.47307  -0.77657  -0.76898  -0.63620  -0.62485
 Alpha  occ. eigenvalues --   -0.61368  -0.61368  -0.61284  -0.61284
 Alpha virt. eigenvalues --    0.16087   0.16087   0.17447   0.17447   0.39524
 Alpha virt. eigenvalues --    0.46881   0.52404   0.55029   0.55029   0.57300
 Alpha virt. eigenvalues --    0.57300   0.66593   0.67229   0.70660   0.70660

 Mulliken charges:
               1
     1  N    0.006683
     2  N   -0.006683
     3  N   -0.006683
     4  N    0.006683
 Sum of Mulliken charges =  -0.00000

 Dipole moment (field-independent basis, Debye):
    X=              0.0000    Y=             -0.0000    Z=             -0.0000  Tot=              0.0000
 Quadrupole moment (field-independent basis, Debye-Ang):
   XX=            -20.5009   YY=            -20.5009   ZZ=            -23.5447
   XY=              0.0000   XZ=              0.0000   YZ=             -0.0000

 SDQ=-218.7145914\CCSD=-218.7102111\CCSD(T)=-218.7466888\RMSD=7.347e-10
 Normal termination of Gaussian 16 at Fri Feb  9 19:18:51 2024.
