 Gaussian 16, Revision A.03,
 Gaussian 16:  ES64L-G16RevA.03 25-Dec-2016

 ------------------
 #p CCSD(T)/cc-pVTZ
 ------------------

 ---------
 N2_N2_291
 ---------
 Symbolic Z-matrix:
 Charge =  0 Multiplicity = 1

                         Standard orientation:
 ---------------------------------------------------------------------
 Center     Atomic      Atomic             Coordinates (Angstroms)
 Number     Number       Type             X           Y           Z
 ---------------------------------------------------------------------
      1          7           0        0.000000    0.000000    3.530000
      2          7           0        0.000000    0.000000    2.440000
      3          7           0        0.000000    0.000000   -2.440000
      4          7           0        0.000000    0.000000   -3.530000
 ---------------------------------------------------------------------

 SCF Done:  E(RHF) =  -217.969568323     A.U. after    9 cycles
 E2 =    -0.7432778715D+00 EUMP2 =    -0.21871284619424D+03
 CCSD(T)
 CCSD(T)= -0.21874687961D+03

 The electronic state is 1-SGG.
 Alpha  occ. eigenvalues --  -15.67811 -15.67811 -15.67440 -15.67440  -1.47448
 Alpha  occ. eigenvalues --   -1.47447  -0.77424  -0.77396  -0.63248  -0.63195
 Alpha  occ. eigenvalues --   -0.61459  -0.61459  -0.61457  -0.61457
 Alpha virt. eigenvalues --    0.16619   0.16619   0.16686   0.16686   0.39163
 Alpha virt. eigenvalues --    0.45650   0.54915   0.56147   0.56147   0.56243
 Alpha virt. eigenvalues --    0.56243   0.58211   0.67356   0.67456   0.73207

 Mulliken charges:
               1
     1  N    0.000145
     2  N   -0.000145
     3  N   -0.000145
     4  N    0.000145
 Sum of Mulliken charges =  -0.00000

 Dipole moment (field-independent basis, Debye):
    X=              0.0000    Y=              0.0000    Z=              0.0000  Tot=              0.0000
 Quadrupole moment (field-independent basis, Debye-Ang):
   XX=            -20.4973   YY=            -20.4973   ZZ=            -23.3712
   XY=              0.0000   XZ=              0.0000   YZ=             -0.0000

 P4SDQ=-218.7148059\CCSD=-218.710484\CCSD(T)=-218.7468796\RMSD=9.773e-0
 Normal termination of Gaussian 16 at Fri Feb  9 20:18:35 2024.
