 Gaussian 16, Revision A.03,
 Gaussian 16:  ES64L-G16RevA.03 25-Dec-2016

 ------------------
 #p CCSD(T)/cc-pVTZ
 ------------------

 ---------
 N2_N2_198
 ---------
 Symbolic Z-matrix:
 Charge =  0 Multiplicity = 1

                         Standard orientation:
 ---------------------------------------------------------------------
 Center     Atomic      Atomic             Coordinates (Angstroms)
 Number     Number       Type             X           Y           Z
 ---------------------------------------------------------------------
      1          7           0        0.000000    0.000000    2.910000
      2          7           0        0.000000    0.000000    1.820000
      3          7           0        0.000000    0.000000   -1.820000
      4          7           0        0.000000    0.000000   -2.910000
 ---------------------------------------------------------------------

 SCF Done:  E(RHF) =  -217.969295333     A.U. after   10 cycles
 E2 =    -0.7436560405D+00 EUMP2 =    -0.21871295137398D+03
 CCSD(T)
 CCSD(T)= -0.21874693054D+03

 The electronic state is 1-SGG.
 Alpha  occ. eigenvalues --  -15.67711 -15.67711 -15.67340 -15.67340  -1.47363
 Alpha  occ. eigenvalues --   -1.47357  -0.77525  -0.77102  -0.63443  -0.62779
 Alpha  occ. eigenvalues --   -0.61394  -0.61394  -0.61349  -0.61349
 Alpha virt. eigenvalues --    0.16296   0.16296   0.17168   0.17168   0.36825
 Alpha virt. eigenvalues --    0.47457   0.52645   0.55467   0.55467   0.56929
 Alpha virt. eigenvalues --    0.56929   0.66500   0.67257   0.71324   0.71324

 Mulliken charges:
               1
     1  N    0.007597
     2  N   -0.007597
     3  N   -0.007597
     4  N    0.007597
 Sum of Mulliken charges =  -0.00000

 Dipole moment (field-independent basis, Debye):
    X=              0.0000    Y=             -0.0000    Z=             -0.0000  Tot=              0.0000
 Quadrupole moment (field-independent basis, Debye-Ang):
   XX=            -20.4998   YY=            -20.4998   ZZ=            -23.4823
   XY=              0.0000   XZ=              0.0000   YZ=             -0.0000

 P4SDQ=-218.7148418\CCSD=-218.7104829\CCSD(T)=-218.7469305\RMSD=6.928e-
 Normal termination of Gaussian 16 at Fri Feb  9 19:29:40 2024.
