 Gaussian 16, Revision A.03,
 Gaussian 16:  ES64L-G16RevA.03 25-Dec-2016

 ------------------
 #p CCSD(T)/cc-pVTZ
 ------------------

 --------
 N2_N2_84
 --------
 Symbolic Z-matrix:
 Charge =  0 Multiplicity = 1

                         Standard orientation:
 ---------------------------------------------------------------------
 Center     Atomic      Atomic             Coordinates (Angstroms)
 Number     Number       Type             X           Y           Z
 ---------------------------------------------------------------------
      1          7           0        0.000000    0.000000    2.150000
      2          7           0        0.000000    0.000000    1.060000
      3          7           0        0.000000    0.000000   -1.060000
      4          7           0        0.000000    0.000000   -2.150000
 ---------------------------------------------------------------------

 SCF Done:  E(RHF) =  -217.919096232     A.U. after   10 cycles
 E2 =    -0.7503801522D+00 EUMP2 =    -0.21866947638417D+03
 CCSD(T)
 CCSD(T)= -0.21870266865D+03

 The electronic state is 1-SGG.
 Alpha  occ. eigenvalues --  -15.66632 -15.66632 -15.65395 -15.65393  -1.46728
 Alpha  occ. eigenvalues --   -1.46324  -0.83041  -0.73660  -0.66252  -0.61360
 Alpha  occ. eigenvalues --   -0.61360  -0.59929  -0.59929  -0.55261
 Alpha virt. eigenvalues --    0.13964   0.13964   0.20921   0.20921   0.44483
 Alpha virt. eigenvalues --    0.46501   0.53986   0.53986   0.59925   0.59925
 Alpha virt. eigenvalues --    0.65435   0.66948   0.72199   0.72199   0.74961

 Mulliken charges:
               1
     1  N   -0.008112
     2  N    0.008112
     3  N    0.008112
     4  N   -0.008112
 Sum of Mulliken charges =  -0.00000

 Dipole moment (field-independent basis, Debye):
    X=             -0.0000    Y=             -0.0000    Z=              0.0000  Tot=              0.0000
 Quadrupole moment (field-independent basis, Debye-Ang):
   XX=            -20.4925   YY=            -20.4925   ZZ=            -24.3326
   XY=              0.0000   XZ=              0.0000   YZ=             -0.0000

 4SDQ=-218.6703354\CCSD=-218.6654118\CCSD(T)=-218.7026687\RMSD=8.572e-1
 Normal termination of Gaussian 16 at Fri Feb  9 18:29:17 2024.
