 Gaussian 16, Revision A.03,
 Gaussian 16:  ES64L-G16RevA.03 25-Dec-2016

 ------------------
 #p CCSD(T)/cc-pVTZ
 ------------------

 ---------
 N2_N2_122
 ---------
 Symbolic Z-matrix:
 Charge =  0 Multiplicity = 1

                         Standard orientation:
 ---------------------------------------------------------------------
 Center     Atomic      Atomic             Coordinates (Angstroms)
 Number     Number       Type             X           Y           Z
 ---------------------------------------------------------------------
      1          7           0       -0.817500   -1.572500    0.000000
      2          7           0        0.272500   -1.572500    0.000000
      3          7           0        0.272500    1.027500    0.000000
      4          7           0        0.272500    2.117500    0.000000
 ---------------------------------------------------------------------

 SCF Done:  E(RHF) =  -217.959739731     A.U. after   12 cycles
 E2 =    -0.7474263037D+00 EUMP2 =    -0.21870716603493D+03
 CCSD(T)
 CCSD(T)= -0.21874056088D+03

 The electronic state is 1-A'.
 Alpha  occ. eigenvalues --  -15.67903 -15.67396 -15.67134 -15.66730  -1.47662
 Alpha  occ. eigenvalues --   -1.46869  -0.78552  -0.76714  -0.65447  -0.62512
 Alpha  occ. eigenvalues --   -0.61862  -0.61644  -0.60763  -0.58786
 Alpha virt. eigenvalues --    0.14557   0.15924   0.17400   0.19228   0.42079
 Alpha virt. eigenvalues --    0.45814   0.52808   0.55098   0.56051   0.58584
 Alpha virt. eigenvalues --    0.59582   0.60293   0.66303   0.71987   0.72946

 Mulliken charges:
               1
     1  N   -0.010231
     2  N    0.010749
     3  N   -0.000277
     4  N   -0.000241
 Sum of Mulliken charges =   0.00000

 Dipole moment (field-independent basis, Debye):
    X=              0.0570    Y=              0.0917    Z=              0.0000  Tot=              0.1080
 Quadrupole moment (field-independent basis, Debye-Ang):
   XX=            -21.9374   YY=            -22.2228   ZZ=            -20.4867
   XY=             -0.0851   XZ=              0.0000   YZ=              0.0000

 Q=-218.7080355\CCSD=-218.7036652\CCSD(T)=-218.7405609\RMSD=4.952e-09\P
 Normal termination of Gaussian 16 at Fri Feb  9 18:49:23 2024.
