 Gaussian 16, Revision A.03,
 Gaussian 16:  ES64L-G16RevA.03 25-Dec-2016

 ------------------
 #p CCSD(T)/cc-pVTZ
 ------------------

 ---------
 N2_N2_100
 ---------
 Symbolic Z-matrix:
 Charge =  0 Multiplicity = 1

                         Standard orientation:
 ---------------------------------------------------------------------
 Center     Atomic      Atomic             Coordinates (Angstroms)
 Number     Number       Type             X           Y           Z
 ---------------------------------------------------------------------
      1          7           0        0.578060   -2.010560    0.000000
      2          7           0       -0.192687   -1.239813   -0.000000
      3          7           0       -0.192687    1.080187   -0.000000
      4          7           0       -0.192687    2.170186   -0.000000
 ---------------------------------------------------------------------

 SCF Done:  E(RHF) =  -217.948099160     A.U. after   13 cycles
 E2 =    -0.7480266987D+00 EUMP2 =    -0.21869612585828D+03
 CCSD(T)
 CCSD(T)= -0.21872945160D+03

 The electronic state is 1-A'.
 Alpha  occ. eigenvalues --  -15.67504 -15.66824 -15.66726 -15.66318  -1.47332
 Alpha  occ. eigenvalues --   -1.46667  -0.80750  -0.74940  -0.65771  -0.61903
 Alpha  occ. eigenvalues --   -0.61643  -0.60863  -0.60481  -0.57879
 Alpha virt. eigenvalues --    0.14593   0.15955   0.18728   0.19416   0.45294
 Alpha virt. eigenvalues --    0.45696   0.52262   0.53439   0.59444   0.59563
 Alpha virt. eigenvalues --    0.62795   0.63909   0.66397   0.71851   0.79309

 Mulliken charges:
               1
     1  N   -0.001671
     2  N   -0.003471
     3  N    0.006267
     4  N   -0.001126
 Sum of Mulliken charges =  -0.00000

 Dipole moment (field-independent basis, Debye):
    X=             -0.0794    Y=              0.1353    Z=             -0.0000  Tot=              0.1569
 Quadrupole moment (field-independent basis, Debye-Ang):
   XX=            -21.2545   YY=            -23.2693   ZZ=            -20.4871
   XY=              0.7518   XZ=             -0.0000   YZ=              0.0000

 4DQ=-218.686267\MP4SDQ=-218.6971057\CCSD=-218.6924542\CCSD(T)=-218.729
 Normal termination of Gaussian 16 at Fri Feb  9 18:37:51 2024.
