 Gaussian 16, Revision A.03,
 Gaussian 16:  ES64L-G16RevA.03 25-Dec-2016

 ------------------
 #p CCSD(T)/cc-pVTZ
 ------------------

 ---------
 N2_N2_121
 ---------
 Symbolic Z-matrix:
 Charge =  0 Multiplicity = 1

                         Standard orientation:
 ---------------------------------------------------------------------
 Center     Atomic      Atomic             Coordinates (Angstroms)
 Number     Number       Type             X           Y           Z
 ---------------------------------------------------------------------
      1          7           0        0.578060   -2.150560    0.000000
      2          7           0       -0.192687   -1.379814    0.000000
      3          7           0       -0.192687    1.220187   -0.000000
      4          7           0       -0.192687    2.310186   -0.000000
 ---------------------------------------------------------------------

 SCF Done:  E(RHF) =  -217.961527058     A.U. after   12 cycles
 E2 =    -0.7458595668D+00 EUMP2 =    -0.21870738662514D+03
 CCSD(T)
 CCSD(T)= -0.21874103677D+03

 The electronic state is 1-A'.
 Alpha  occ. eigenvalues --  -15.67604 -15.67174 -15.67154 -15.66797  -1.47360
 Alpha  occ. eigenvalues --   -1.46958  -0.79085  -0.75824  -0.64901  -0.61874
 Alpha  occ. eigenvalues --   -0.61517  -0.61240  -0.60875  -0.59832
 Alpha virt. eigenvalues --    0.15158   0.16117   0.18001   0.18569   0.44639
 Alpha virt. eigenvalues --    0.46066   0.52548   0.53524   0.57339   0.58856
 Alpha virt. eigenvalues --    0.60610   0.63683   0.66783   0.70895   0.74841

 Mulliken charges:
               1
     1  N    0.004140
     2  N   -0.005560
     3  N    0.003832
     4  N   -0.002413
 Sum of Mulliken charges =  -0.00000

 Dipole moment (field-independent basis, Debye):
    X=             -0.0518    Y=              0.0694    Z=             -0.0000  Tot=              0.0866
 Quadrupole moment (field-independent basis, Debye-Ang):
   XX=            -21.2296   YY=            -23.0465   ZZ=            -20.4983
   XY=              0.7333   XZ=             -0.0000   YZ=              0.0000

 P4DQ=-218.6979804\MP4SDQ=-218.7088034\CCSD=-218.7043027\CCSD(T)=-218.7
 Normal termination of Gaussian 16 at Fri Feb  9 18:48:50 2024.
