 Gaussian 16, Revision A.03,
 Gaussian 16:  ES64L-G16RevA.03 25-Dec-2016

 ------------------
 #p CCSD(T)/cc-pVTZ
 ------------------

 ---------
 N2_N2_116
 ---------
 Symbolic Z-matrix:
 Charge =  0 Multiplicity = 1

                         Standard orientation:
 ---------------------------------------------------------------------
 Center     Atomic      Atomic             Coordinates (Angstroms)
 Number     Number       Type             X           Y           Z
 ---------------------------------------------------------------------
      1          7           0       -0.817500   -1.532500    0.000000
      2          7           0        0.272500   -1.532500    0.000000
      3          7           0        0.272500    0.987500    0.000000
      4          7           0        0.272500    2.077500    0.000000
 ---------------------------------------------------------------------

 SCF Done:  E(RHF) =  -217.956519082     A.U. after   12 cycles
 E2 =    -0.7481413197D+00 EUMP2 =    -0.21870466040200D+03
 CCSD(T)
 CCSD(T)= -0.21873794290D+03

 The electronic state is 1-A'.
 Alpha  occ. eigenvalues --  -15.67880 -15.67312 -15.67042 -15.66619  -1.47667
 Alpha  occ. eigenvalues --   -1.46804  -0.78804  -0.76621  -0.65754  -0.62470
 Alpha  occ. eigenvalues --   -0.61914  -0.61619  -0.60659  -0.58270
 Alpha virt. eigenvalues --    0.14432   0.15854   0.17494   0.19474   0.42084
 Alpha virt. eigenvalues --    0.45774   0.52769   0.55347   0.56331   0.58195
 Alpha virt. eigenvalues --    0.59800   0.61937   0.66300   0.72642   0.73015

 Mulliken charges:
               1
     1  N   -0.011928
     2  N    0.012189
     3  N    0.000422
     4  N   -0.000683
 Sum of Mulliken charges =  -0.00000

 Dipole moment (field-independent basis, Debye):
    X=              0.0666    Y=              0.1006    Z=              0.0000  Tot=              0.1207
 Quadrupole moment (field-independent basis, Debye-Ang):
   XX=            -21.9437   YY=            -22.2697   ZZ=            -20.4829
   XY=             -0.1007   XZ=              0.0000   YZ=              0.0000

 DQ=-218.705351\CCSD=-218.700967\CCSD(T)=-218.7379429\RMSD=6.963e-09\PG
 Normal termination of Gaussian 16 at Fri Feb  9 18:46:14 2024.
