 Gaussian 16, Revision A.03,
 Gaussian 16:  ES64L-G16RevA.03 25-Dec-2016

 ------------------
 #p CCSD(T)/cc-pVTZ
 ------------------

 ---------
 N2_N2_213
 ---------
 Symbolic Z-matrix:
 Charge =  0 Multiplicity = 1

                         Standard orientation:
 ---------------------------------------------------------------------
 Center     Atomic      Atomic             Coordinates (Angstroms)
 Number     Number       Type             X           Y           Z
 ---------------------------------------------------------------------
      1          7           0        0.000000    0.000000    3.010000
      2          7           0        0.000000    0.000000    1.920000
      3          7           0        0.000000    0.000000   -1.920000
      4          7           0        0.000000    0.000000   -3.010000
 ---------------------------------------------------------------------

 SCF Done:  E(RHF) =  -217.969432245     A.U. after   10 cycles
 E2 =    -0.7435494965D+00 EUMP2 =    -0.21871298174139D+03
 CCSD(T)
 CCSD(T)= -0.21874697354D+03

 The electronic state is 1-SGG.
 Alpha  occ. eigenvalues --  -15.67740 -15.67740 -15.67369 -15.67369  -1.47386
 Alpha  occ. eigenvalues --   -1.47382  -0.77476  -0.77198  -0.63366  -0.62916
 Alpha  occ. eigenvalues --   -0.61409  -0.61409  -0.61380  -0.61380
 Alpha virt. eigenvalues --    0.16404   0.16404   0.17021   0.17021   0.35751
 Alpha virt. eigenvalues --    0.47704   0.52911   0.55700   0.55700   0.56721
 Alpha virt. eigenvalues --    0.56721   0.66282   0.67274   0.71808   0.71808

 Mulliken charges:
               1
     1  N    0.006888
     2  N   -0.006888
     3  N   -0.006888
     4  N    0.006888
 Sum of Mulliken charges =  -0.00000

 Dipole moment (field-independent basis, Debye):
    X=              0.0000    Y=             -0.0000    Z=              0.0000  Tot=              0.0000
 Quadrupole moment (field-independent basis, Debye-Ang):
   XX=            -20.4992   YY=            -20.4992   ZZ=            -23.4498
   XY=              0.0000   XZ=              0.0000   YZ=             -0.0000

 4SDQ=-218.7148893\CCSD=-218.710541\CCSD(T)=-218.7469735\RMSD=6.678e-10
 Normal termination of Gaussian 16 at Fri Feb  9 19:37:24 2024.
