 Gaussian 16, Revision A.03,
 Gaussian 16:  ES64L-G16RevA.03 25-Dec-2016

 ------------------
 #p CCSD(T)/cc-pVTZ
 ------------------

 --------
 N2_N2_57
 --------
 Symbolic Z-matrix:
 Charge =  0 Multiplicity = 1

                         Standard orientation:
 ---------------------------------------------------------------------
 Center     Atomic      Atomic             Coordinates (Angstroms)
 Number     Number       Type             X           Y           Z
 ---------------------------------------------------------------------
      1          7           0        0.000000    0.000000    1.970000
      2          7           0        0.000000    0.000000    0.880000
      3          7           0        0.000000    0.000000   -0.880000
      4          7           0        0.000000    0.000000   -1.970000
 ---------------------------------------------------------------------

 SCF Done:  E(RHF) =  -217.803460090     A.U. after   10 cycles
 E2 =    -0.7617439121D+00 EUMP2 =    -0.21856520400210D+03
 CCSD(T)
 CCSD(T)= -0.21859697076D+03

 The electronic state is 1-SGG.
 Alpha  occ. eigenvalues --  -15.66015 -15.66015 -15.63292 -15.63291  -1.46558
 Alpha  occ. eigenvalues --   -1.45422  -0.90791  -0.71951  -0.67180  -0.61983
 Alpha  occ. eigenvalues --   -0.61983  -0.58557  -0.58557  -0.45739
 Alpha virt. eigenvalues --    0.12473   0.12473   0.23501   0.23501   0.43993
 Alpha virt. eigenvalues --    0.45608   0.54490   0.54490   0.60958   0.60958
 Alpha virt. eigenvalues --    0.62105   0.66776   0.74351   0.74351   0.81051

 Mulliken charges:
               1
     1  N    0.017596
     2  N   -0.017596
     3  N   -0.017596
     4  N    0.017596
 Sum of Mulliken charges =  -0.00000

 Dipole moment (field-independent basis, Debye):
    X=              0.0000    Y=              0.0000    Z=              0.0000  Tot=              0.0000
 Quadrupole moment (field-independent basis, Debye-Ang):
   XX=            -20.4610   YY=            -20.4610   ZZ=            -24.6027
   XY=              0.0000   XZ=              0.0000   YZ=             -0.0000

 SDQ=-218.5642378\CCSD=-218.558347\CCSD(T)=-218.5969708\RMSD=4.014e-09\
 Normal termination of Gaussian 16 at Fri Feb  9 18:15:00 2024.
