 Gaussian 16, Revision A.03,
 Gaussian 16:  ES64L-G16RevA.03 25-Dec-2016

 ------------------
 #p CCSD(T)/cc-pVTZ
 ------------------

 ---------
 N2_N2_225
 ---------
 Symbolic Z-matrix:
 Charge =  0 Multiplicity = 1

                         Standard orientation:
 ---------------------------------------------------------------------
 Center     Atomic      Atomic             Coordinates (Angstroms)
 Number     Number       Type             X           Y           Z
 ---------------------------------------------------------------------
      1          7           0        0.000000    0.000000    3.090000
      2          7           0        0.000000    0.000000    2.000000
      3          7           0        0.000000    0.000000   -2.000000
      4          7           0        0.000000    0.000000   -3.090000
 ---------------------------------------------------------------------

 SCF Done:  E(RHF) =  -217.969493360     A.U. after   10 cycles
 E2 =    -0.7434823170D+00 EUMP2 =    -0.21871297567665D+03
 CCSD(T)
 CCSD(T)= -0.21874697585D+03

 The electronic state is 1-SGG.
 Alpha  occ. eigenvalues --  -15.67758 -15.67758 -15.67387 -15.67387  -1.47400
 Alpha  occ. eigenvalues --   -1.47398  -0.77451  -0.77254  -0.63324  -0.62996
 Alpha  occ. eigenvalues --   -0.61420  -0.61420  -0.61399  -0.61399
 Alpha virt. eigenvalues --    0.16470   0.16470   0.16930   0.16930   0.35422
 Alpha virt. eigenvalues --    0.47759   0.53162   0.55841   0.55841   0.56589
 Alpha virt. eigenvalues --    0.56589   0.65801   0.67288   0.70623   0.72159

 Mulliken charges:
               1
     1  N    0.005705
     2  N   -0.005705
     3  N   -0.005705
     4  N    0.005705
 Sum of Mulliken charges =  -0.00000

 Dipole moment (field-independent basis, Debye):
    X=              0.0000    Y=              0.0000    Z=             -0.0000  Tot=              0.0000
 Quadrupole moment (field-independent basis, Debye-Ang):
   XX=            -20.4988   YY=            -20.4988   ZZ=            -23.4293
   XY=              0.0000   XZ=              0.0000   YZ=             -0.0000

 SDQ=-218.7148945\CCSD=-218.7105528\CCSD(T)=-218.7469758\RMSD=6.499e-10
 Normal termination of Gaussian 16 at Fri Feb  9 19:43:34 2024.
