 Gaussian 16, Revision A.03,
 Gaussian 16:  ES64L-G16RevA.03 25-Dec-2016

 ------------------
 #p CCSD(T)/cc-pVTZ
 ------------------

 ---------
 N2_N2_207
 ---------
 Symbolic Z-matrix:
 Charge =  0 Multiplicity = 1

                         Standard orientation:
 ---------------------------------------------------------------------
 Center     Atomic      Atomic             Coordinates (Angstroms)
 Number     Number       Type             X           Y           Z
 ---------------------------------------------------------------------
      1          7           0        0.000000    0.000000    2.970000
      2          7           0        0.000000    0.000000    1.880000
      3          7           0        0.000000    0.000000   -1.880000
      4          7           0        0.000000    0.000000   -2.970000
 ---------------------------------------------------------------------

 SCF Done:  E(RHF) =  -217.969387764     A.U. after   10 cycles
 E2 =    -0.7435886191D+00 EUMP2 =    -0.21871297638341D+03
 CCSD(T)
 CCSD(T)= -0.21874696350D+03

 The electronic state is 1-SGG.
 Alpha  occ. eigenvalues --  -15.67729 -15.67729 -15.67359 -15.67359  -1.47377
 Alpha  occ. eigenvalues --   -1.47373  -0.77492  -0.77164  -0.63393  -0.62867
 Alpha  occ. eigenvalues --   -0.61403  -0.61403  -0.61369  -0.61369
 Alpha virt. eigenvalues --    0.16364   0.16364   0.17075   0.17075   0.36092
 Alpha virt. eigenvalues --    0.47627   0.52798   0.55615   0.55615   0.56799
 Alpha virt. eigenvalues --    0.56799   0.66398   0.67267   0.71618   0.71618

 Mulliken charges:
               1
     1  N    0.007294
     2  N   -0.007294
     3  N   -0.007294
     4  N    0.007294
 Sum of Mulliken charges =  -0.00000

 Dipole moment (field-independent basis, Debye):
    X=              0.0000    Y=             -0.0000    Z=             -0.0000  Tot=              0.0000
 Quadrupole moment (field-independent basis, Debye-Ang):
   XX=            -20.4994   YY=            -20.4994   ZZ=            -23.4618
   XY=              0.0000   XZ=              0.0000   YZ=             -0.0000

 P4SDQ=-218.7148776\CCSD=-218.7105254\CCSD(T)=-218.7469635\RMSD=6.775e-
 Normal termination of Gaussian 16 at Fri Feb  9 19:34:15 2024.
