 Gaussian 16, Revision A.03,
 Gaussian 16:  ES64L-G16RevA.03 25-Dec-2016

 ------------------
 #p CCSD(T)/cc-pVTZ
 ------------------

 --------
 N2_N2_70
 --------
 Symbolic Z-matrix:
 Charge =  0 Multiplicity = 1

                         Standard orientation:
 ---------------------------------------------------------------------
 Center     Atomic      Atomic             Coordinates (Angstroms)
 Number     Number       Type             X           Y           Z
 ---------------------------------------------------------------------
      1          7           0        0.578060   -1.810560    0.000000
      2          7           0       -0.192687   -1.039813    0.000000
      3          7           0       -0.192687    0.880187    0.000000
      4          7           0       -0.192687    1.970186    0.000000
 ---------------------------------------------------------------------

 SCF Done:  E(RHF) =  -217.888679225     A.U. after   14 cycles
 E2 =    -0.7556807644D+00 EUMP2 =    -0.21864435998903D+03
 CCSD(T)
 CCSD(T)= -0.21867658844D+03

 The electronic state is 1-A'.
 Alpha  occ. eigenvalues --  -15.67748 -15.66288 -15.65409 -15.65034  -1.47707
 Alpha  occ. eigenvalues --   -1.45903  -0.86538  -0.73284  -0.67092  -0.62678
 Alpha  occ. eigenvalues --   -0.62461  -0.59928  -0.59416  -0.51671
 Alpha virt. eigenvalues --    0.13239   0.15399   0.20552   0.21262   0.44694
 Alpha virt. eigenvalues --    0.46188   0.52342   0.53698   0.60413   0.60725
 Alpha virt. eigenvalues --    0.63129   0.64441   0.67258   0.73881   0.81466

 Mulliken charges:
               1
     1  N   -0.028154
     2  N    0.004553
     3  N    0.012945
     4  N    0.010656
 Sum of Mulliken charges =  -0.00000

 Dipole moment (field-independent basis, Debye):
    X=             -0.1541    Y=              0.4488    Z=             -0.0000  Tot=              0.4745
 Quadrupole moment (field-independent basis, Debye-Ang):
   XX=            -21.3650   YY=            -23.7179   ZZ=            -20.4273
   XY=              0.7895   XZ=             -0.0000   YZ=              0.0000

 =-218.6328527\MP4SDQ=-218.6438602\CCSD=-218.6386199\CCSD(T)=-218.67658
 Normal termination of Gaussian 16 at Fri Feb  9 18:21:50 2024.
