 Gaussian 16, Revision A.03,
 Gaussian 16:  ES64L-G16RevA.03 25-Dec-2016

 ------------------
 #p CCSD(T)/cc-pVTZ
 ------------------

 ---------
 N2_N2_236
 ---------
 Symbolic Z-matrix:
 Charge =  0 Multiplicity = 1

                         Standard orientation:
 ---------------------------------------------------------------------
 Center     Atomic      Atomic             Coordinates (Angstroms)
 Number     Number       Type             X           Y           Z
 ---------------------------------------------------------------------
      1          7           0       -0.817500   -2.332500    0.000000
      2          7           0        0.272500   -2.332500    0.000000
      3          7           0        0.272500    1.787500    0.000000
      4          7           0        0.272500    2.877500    0.000000
 ---------------------------------------------------------------------

 SCF Done:  E(RHF) =  -217.969705360     A.U. after   11 cycles
 E2 =    -0.7435246472D+00 EUMP2 =    -0.21871323000747D+03
 CCSD(T)
 CCSD(T)= -0.21874722233D+03

 The electronic state is 1-A'.
 Alpha  occ. eigenvalues --  -15.67968 -15.67753 -15.67598 -15.67382  -1.47598
 Alpha  occ. eigenvalues --   -1.47378  -0.77577  -0.77353  -0.63426  -0.63145
 Alpha  occ. eigenvalues --   -0.61610  -0.61608  -0.61394  -0.61360
 Alpha virt. eigenvalues --    0.16253   0.16481   0.16715   0.16936   0.39770
 Alpha virt. eigenvalues --    0.42849   0.52659   0.55662   0.55830   0.56359
 Alpha virt. eigenvalues --    0.56610   0.61698   0.67068   0.69277   0.72263

 Mulliken charges:
               1
     1  N   -0.001265
     2  N    0.001607
     3  N   -0.002291
     4  N    0.001949
 Sum of Mulliken charges =  -0.00000

 Dipole moment (field-independent basis, Debye):
    X=              0.0058    Y=              0.0133    Z=              0.0000  Tot=              0.0145
 Quadrupole moment (field-independent basis, Debye-Ang):
   XX=            -21.8959   YY=            -21.8880   ZZ=            -20.4965
   XY=             -0.0056   XZ=              0.0000   YZ=              0.0000

 DQ=-218.7151107\CCSD=-218.7107959\CCSD(T)=-218.7472223\RMSD=7.935e-09\
 Normal termination of Gaussian 16 at Fri Feb  9 19:49:10 2024.
