 Gaussian 16, Revision A.03,
 Gaussian 16:  ES64L-G16RevA.03 25-Dec-2016

 ------------------
 #p CCSD(T)/cc-pVTZ
 ------------------

 ---------
 N2_N2_194
 ---------
 Symbolic Z-matrix:
 Charge =  0 Multiplicity = 1

                         Standard orientation:
 ---------------------------------------------------------------------
 Center     Atomic      Atomic             Coordinates (Angstroms)
 Number     Number       Type             X           Y           Z
 ---------------------------------------------------------------------
      1          7           0       -0.817500   -2.052500    0.000000
      2          7           0        0.272500   -2.052500    0.000000
      3          7           0        0.272500    1.507500    0.000000
      4          7           0        0.272500    2.597500    0.000000
 ---------------------------------------------------------------------

 SCF Done:  E(RHF) =  -217.969529014     A.U. after   12 cycles
 E2 =    -0.7440150503D+00 EUMP2 =    -0.21871354406453D+03
 CCSD(T)
 CCSD(T)= -0.21874746380D+03

 The electronic state is 1-A'.
 Alpha  occ. eigenvalues --  -15.67994 -15.67673 -15.67623 -15.67302  -1.47628
 Alpha  occ. eigenvalues --   -1.47295  -0.77642  -0.77268  -0.63630  -0.63003
 Alpha  occ. eigenvalues --   -0.61647  -0.61642  -0.61311  -0.61169
 Alpha virt. eigenvalues --    0.15816   0.16390   0.16819   0.17389   0.39278
 Alpha virt. eigenvalues --    0.43017   0.51516   0.54803   0.55353   0.56670
 Alpha virt. eigenvalues --    0.57347   0.62296   0.66900   0.69348   0.72817

 Mulliken charges:
               1
     1  N   -0.003227
     2  N    0.003705
     3  N   -0.006573
     4  N    0.006095
 Sum of Mulliken charges =  -0.00000

 Dipole moment (field-independent basis, Debye):
    X=              0.0121    Y=              0.0267    Z=              0.0000  Tot=              0.0293
 Quadrupole moment (field-independent basis, Debye-Ang):
   XX=            -21.9010   YY=            -21.9275   ZZ=            -20.4962
   XY=             -0.0127   XZ=              0.0000   YZ=              0.0000

 DQ=-218.7152944\CCSD=-218.7109739\CCSD(T)=-218.7474638\RMSD=1.881e-09\
 Normal termination of Gaussian 16 at Fri Feb  9 19:27:38 2024.
