 Gaussian 16, Revision A.03,
 Gaussian 16:  ES64L-G16RevA.03 25-Dec-2016

 ------------------
 #p CCSD(T)/cc-pVTZ
 ------------------

 --------
 N2_N2_92
 --------
 Symbolic Z-matrix:
 Charge =  0 Multiplicity = 1

                         Standard orientation:
 ---------------------------------------------------------------------
 Center     Atomic      Atomic             Coordinates (Angstroms)
 Number     Number       Type             X           Y           Z
 ---------------------------------------------------------------------
      1          7           0       -0.817500   -1.372500    0.000000
      2          7           0        0.272500   -1.372500    0.000000
      3          7           0        0.272500    0.827500    0.000000
      4          7           0        0.272500    1.917500    0.000000
 ---------------------------------------------------------------------

 SCF Done:  E(RHF) =  -217.930965803     A.U. after   13 cycles
 E2 =    -0.7526450763D+00 EUMP2 =    -0.21868361087888D+03
 CCSD(T)
 CCSD(T)= -0.21871622939D+03

 The electronic state is 1-A'.
 Alpha  occ. eigenvalues --  -15.67776 -15.66761 -15.66634 -15.65908  -1.47789
 Alpha  occ. eigenvalues --   -1.46481  -0.80676  -0.76155  -0.67163  -0.62407
 Alpha  occ. eigenvalues --   -0.62321  -0.61363  -0.60050  -0.55150
 Alpha virt. eigenvalues --    0.13924   0.15471   0.17999   0.20649   0.42027
 Alpha virt. eigenvalues --    0.45377   0.52963   0.55509   0.56061   0.57356
 Alpha virt. eigenvalues --    0.60676   0.66338   0.70344   0.73349   0.75587

 Mulliken charges:
               1
     1  N   -0.024003
     2  N    0.023490
     3  N   -0.001458
     4  N    0.001971
 Sum of Mulliken charges =  -0.00000

 Dipole moment (field-independent basis, Debye):
    X=              0.1311    Y=              0.1521    Z=              0.0000  Tot=              0.2008
 Quadrupole moment (field-independent basis, Debye-Ang):
   XX=            -21.9820   YY=            -22.5045   ZZ=            -20.4503
   XY=             -0.1983   XZ=              0.0000   YZ=              0.0000

 DQ=-218.6832318\CCSD=-218.6787419\CCSD(T)=-218.7162294\RMSD=4.422e-09\
 Normal termination of Gaussian 16 at Fri Feb  9 18:33:37 2024.
