 Gaussian 16, Revision A.03,
 Gaussian 16:  ES64L-G16RevA.03 25-Dec-2016

 ------------------
 #p CCSD(T)/cc-pVTZ
 ------------------

 --------
 N2_N2_27
 --------
 Symbolic Z-matrix:
 Charge =  0 Multiplicity = 1

                         Standard orientation:
 ---------------------------------------------------------------------
 Center     Atomic      Atomic             Coordinates (Angstroms)
 Number     Number       Type             X           Y           Z
 ---------------------------------------------------------------------
      1          7           0        0.000000    0.000000    1.770000
      2          7           0        0.000000    0.000000    0.680000
      3          7           0        0.000000    0.000000   -0.680000
      4          7           0        0.000000    0.000000   -1.770000
 ---------------------------------------------------------------------

 SCF Done:  E(RHF) =  -217.542272409     A.U. after   11 cycles
 E2 =    -0.7881388943D+00 EUMP2 =    -0.21833041130337D+03
 CCSD(T)
 CCSD(T)= -0.21836820021D+03

 Unable to determine electronic state:  an orbital has unidentified symmetry.
 Alpha  occ. eigenvalues --  -15.78598 -15.78531 -15.65781 -15.65781  -1.54413
 Alpha  occ. eigenvalues --   -1.48122  -1.15314  -0.76372  -0.73694  -0.69126
 Alpha  occ. eigenvalues --   -0.66408  -0.63112  -0.59673  -0.25927
 Alpha virt. eigenvalues --    0.07111   0.16885   0.18036   0.24257   0.44551
 Alpha virt. eigenvalues --    0.45325   0.49774   0.50772   0.51932   0.61125
 Alpha virt. eigenvalues --    0.62260   0.62473   0.72019   0.73052   0.79353

 Mulliken charges:
               1
     1  N   -0.096101
     2  N    0.096101
     3  N    0.096101
     4  N   -0.096101
 Sum of Mulliken charges =  -0.00000

 Dipole moment (field-independent basis, Debye):
    X=             -0.0000    Y=              0.0000    Z=             -0.0000  Tot=              0.0000
 Quadrupole moment (field-independent basis, Debye-Ang):
   XX=            -22.3256   YY=            -19.4551   ZZ=            -29.5088
   XY=              0.0000   XZ=              0.0000   YZ=             -0.0000

 24264\CCSD=-218.3198596\CCSD(T)=-218.3682002\RMSD=1.569e-09\PG=D*H [C*
 Normal termination of Gaussian 16 at Fri Feb  9 17:55:36 2024.
