 Gaussian 16, Revision A.03,
 Gaussian 16:  ES64L-G16RevA.03 25-Dec-2016

 ------------------
 #p CCSD(T)/cc-pVTZ
 ------------------

 ---------
 N2_N2_285
 ---------
 Symbolic Z-matrix:
 Charge =  0 Multiplicity = 1

                         Standard orientation:
 ---------------------------------------------------------------------
 Center     Atomic      Atomic             Coordinates (Angstroms)
 Number     Number       Type             X           Y           Z
 ---------------------------------------------------------------------
      1          7           0        0.000000    0.000000    3.490000
      2          7           0        0.000000    0.000000    2.400000
      3          7           0        0.000000    0.000000   -2.400000
      4          7           0        0.000000    0.000000   -3.490000
 ---------------------------------------------------------------------

 SCF Done:  E(RHF) =  -217.969567882     A.U. after    9 cycles
 E2 =    -0.7432877557D+00 EUMP2 =    -0.21871285563773D+03
 CCSD(T)
 CCSD(T)= -0.21874688698D+03

 The electronic state is 1-SGG.
 Alpha  occ. eigenvalues --  -15.67807 -15.67807 -15.67437 -15.67437  -1.47445
 Alpha  occ. eigenvalues --   -1.47444  -0.77423  -0.77389  -0.63249  -0.63186
 Alpha  occ. eigenvalues --   -0.61456  -0.61456  -0.61453  -0.61453
 Alpha virt. eigenvalues --    0.16615   0.16615   0.16696   0.16696   0.38703
 Alpha virt. eigenvalues --    0.45954   0.54756   0.56138   0.56138   0.56256
 Alpha virt. eigenvalues --    0.56256   0.58640   0.67352   0.67478   0.73165

 Mulliken charges:
               1
     1  N    0.000317
     2  N   -0.000317
     3  N   -0.000317
     4  N    0.000317
 Sum of Mulliken charges =  -0.00000

 Dipole moment (field-independent basis, Debye):
    X=              0.0000    Y=              0.0000    Z=             -0.0000  Tot=              0.0000
 Quadrupole moment (field-independent basis, Debye-Ang):
   XX=            -20.4974   YY=            -20.4974   ZZ=            -23.3742
   XY=              0.0000   XZ=              0.0000   YZ=             -0.0000

 4SDQ=-218.714813\CCSD=-218.7104901\CCSD(T)=-218.746887\RMSD=9.781e-09\
 Normal termination of Gaussian 16 at Fri Feb  9 20:15:28 2024.
