 Gaussian 16, Revision A.03,
 Gaussian 16:  ES64L-G16RevA.03 25-Dec-2016

 ------------------
 #p CCSD(T)/cc-pVTZ
 ------------------

 ---------
 N2_N2_190
 ---------
 Symbolic Z-matrix:
 Charge =  0 Multiplicity = 1

                         Standard orientation:
 ---------------------------------------------------------------------
 Center     Atomic      Atomic             Coordinates (Angstroms)
 Number     Number       Type             X           Y           Z
 ---------------------------------------------------------------------
      1          7           0        0.578060   -2.610560    0.000000
      2          7           0       -0.192687   -1.839813    0.000000
      3          7           0       -0.192687    1.680187   -0.000000
      4          7           0       -0.192687    2.770186   -0.000000
 ---------------------------------------------------------------------

 SCF Done:  E(RHF) =  -217.969342721     A.U. after   12 cycles
 E2 =    -0.7437875579D+00 EUMP2 =    -0.21871313027888D+03
 CCSD(T)
 CCSD(T)= -0.21874708561D+03

 The electronic state is 1-A'.
 Alpha  occ. eigenvalues --  -15.67825 -15.67682 -15.67455 -15.67311  -1.47469
 Alpha  occ. eigenvalues --   -1.47325  -0.77618  -0.77114  -0.63536  -0.62820
 Alpha  occ. eigenvalues --   -0.61488  -0.61483  -0.61333  -0.61299
 Alpha virt. eigenvalues --    0.16199   0.16393   0.16872   0.17170   0.38829
 Alpha virt. eigenvalues --    0.45988   0.52353   0.54796   0.55183   0.57089
 Alpha virt. eigenvalues --    0.57478   0.63576   0.67083   0.69348   0.71191

 Mulliken charges:
               1
     1  N    0.004020
     2  N   -0.004112
     3  N   -0.007403
     4  N    0.007495
 Sum of Mulliken charges =  -0.00000

 Dipole moment (field-independent basis, Debye):
    X=             -0.0164    Y=              0.0148    Z=             -0.0000  Tot=              0.0221
 Quadrupole moment (field-independent basis, Debye-Ang):
   XX=            -21.2014   YY=            -22.7248   ZZ=            -20.4985
   XY=              0.7099   XZ=             -0.0000   YZ=              0.0000

 P4DQ=-218.7041648\MP4SDQ=-218.7149761\CCSD=-218.7106219\CCSD(T)=-218.7
 Normal termination of Gaussian 16 at Fri Feb  9 19:25:32 2024.
