 Gaussian 16, Revision A.03,
 Gaussian 16:  ES64L-G16RevA.03 25-Dec-2016

 ------------------
 #p CCSD(T)/cc-pVTZ
 ------------------

 ---------
 N2_N2_197
 ---------
 Symbolic Z-matrix:
 Charge =  0 Multiplicity = 1

                         Standard orientation:
 ---------------------------------------------------------------------
 Center     Atomic      Atomic             Coordinates (Angstroms)
 Number     Number       Type             X           Y           Z
 ---------------------------------------------------------------------
      1          7           0       -0.817500   -2.072500    0.000000
      2          7           0        0.272500   -2.072500    0.000000
      3          7           0        0.272500    1.527500    0.000000
      4          7           0        0.272500    2.617500    0.000000
 ---------------------------------------------------------------------

 SCF Done:  E(RHF) =  -217.969566302     A.U. after   12 cycles
 E2 =    -0.7439639524D+00 EUMP2 =    -0.21871353025397D+03
 CCSD(T)
 CCSD(T)= -0.21874745723D+03

 The electronic state is 1-A'.
 Alpha  occ. eigenvalues --  -15.67993 -15.67682 -15.67622 -15.67311  -1.47625
 Alpha  occ. eigenvalues --   -1.47303  -0.77635  -0.77277  -0.63605  -0.63017
 Alpha  occ. eigenvalues --   -0.61644  -0.61639  -0.61320  -0.61193
 Alpha virt. eigenvalues --    0.15855   0.16400   0.16809   0.17346   0.39173
 Alpha virt. eigenvalues --    0.42995   0.51578   0.54886   0.55393   0.56642
 Alpha virt. eigenvalues --    0.57278   0.62350   0.66916   0.69405   0.72832

 Mulliken charges:
               1
     1  N   -0.003030
     2  N    0.003507
     3  N   -0.006296
     4  N    0.005819
 Sum of Mulliken charges =  -0.00000

 Dipole moment (field-independent basis, Debye):
    X=              0.0114    Y=              0.0253    Z=              0.0000  Tot=              0.0277
 Quadrupole moment (field-independent basis, Debye-Ang):
   XX=            -21.9004   YY=            -21.9224   ZZ=            -20.4962
   XY=             -0.0119   XZ=              0.0000   YZ=              0.0000

 DQ=-218.7152939\CCSD=-218.710974\CCSD(T)=-218.7474572\RMSD=1.858e-09\P
 Normal termination of Gaussian 16 at Fri Feb  9 19:29:11 2024.
