 Gaussian 16, Revision A.03,
 Gaussian 16:  ES64L-G16RevA.03 25-Dec-2016

 ------------------
 #p CCSD(T)/cc-pVTZ
 ------------------

 ---------
 N2_N2_144
 ---------
 Symbolic Z-matrix:
 Charge =  0 Multiplicity = 1

                         Standard orientation:
 ---------------------------------------------------------------------
 Center     Atomic      Atomic             Coordinates (Angstroms)
 Number     Number       Type             X           Y           Z
 ---------------------------------------------------------------------
      1          7           0        0.000000    0.000000    2.550000
      2          7           0        0.000000    0.000000    1.460000
      3          7           0        0.000000    0.000000   -1.460000
      4          7           0        0.000000    0.000000   -2.550000
 ---------------------------------------------------------------------

 SCF Done:  E(RHF) =  -217.966397878     A.U. after   10 cycles
 E2 =    -0.7445072402D+00 EUMP2 =    -0.21871090511847D+03
 CCSD(T)
 CCSD(T)= -0.21874477781D+03

 The electronic state is 1-SGG.
 Alpha  occ. eigenvalues --  -15.67469 -15.67469 -15.67086 -15.67086  -1.47207
 Alpha  occ. eigenvalues --   -1.47164  -0.78173  -0.76305  -0.64158  -0.61574
 Alpha  occ. eigenvalues --   -0.61320  -0.61320  -0.61093  -0.61093
 Alpha virt. eigenvalues --    0.15598   0.15598   0.18134   0.18134   0.45350
 Alpha virt. eigenvalues --    0.45891   0.53529   0.54212   0.54212   0.58064
 Alpha virt. eigenvalues --    0.58064   0.66644   0.67150   0.70081   0.70081

 Mulliken charges:
               1
     1  N   -0.000272
     2  N    0.000272
     3  N    0.000272
     4  N   -0.000272
 Sum of Mulliken charges =  -0.00000

 Dipole moment (field-independent basis, Debye):
    X=              0.0000    Y=              0.0000    Z=             -0.0000  Tot=              0.0000
 Quadrupole moment (field-independent basis, Debye-Ang):
   XX=            -20.5039   YY=            -20.5039   ZZ=            -23.7051
   XY=              0.0000   XZ=              0.0000   YZ=             -0.0000

 4SDQ=-218.7126555\CCSD=-218.7082128\CCSD(T)=-218.7447778\RMSD=8.099e-1
 Normal termination of Gaussian 16 at Fri Feb  9 19:00:47 2024.
