 Gaussian 16, Revision A.03,
 Gaussian 16:  ES64L-G16RevA.03 25-Dec-2016

 ------------------
 #p CCSD(T)/cc-pVTZ
 ------------------

 ---------
 N2_N2_180
 ---------
 Symbolic Z-matrix:
 Charge =  0 Multiplicity = 1

                         Standard orientation:
 ---------------------------------------------------------------------
 Center     Atomic      Atomic             Coordinates (Angstroms)
 Number     Number       Type             X           Y           Z
 ---------------------------------------------------------------------
      1          7           0        0.000000    0.000000    2.790000
      2          7           0        0.000000    0.000000    1.700000
      3          7           0        0.000000    0.000000   -1.700000
      4          7           0        0.000000    0.000000   -2.790000
 ---------------------------------------------------------------------

 SCF Done:  E(RHF) =  -217.968954182     A.U. after   10 cycles
 E2 =    -0.7438331017D+00 EUMP2 =    -0.21871278728374D+03
 CCSD(T)
 CCSD(T)= -0.21874674536D+03

 The electronic state is 1-SGG.
 Alpha  occ. eigenvalues --  -15.67661 -15.67661 -15.67290 -15.67290  -1.47327
 Alpha  occ. eigenvalues --   -1.47315  -0.77632  -0.76934  -0.63589  -0.62537
 Alpha  occ. eigenvalues --   -0.61372  -0.61372  -0.61295  -0.61295
 Alpha virt. eigenvalues --    0.16121   0.16121   0.17401   0.17401   0.39060
 Alpha virt. eigenvalues --    0.46973   0.52424   0.55098   0.55098   0.57241
 Alpha virt. eigenvalues --    0.57241   0.66586   0.67234   0.70748   0.70748

 Mulliken charges:
               1
     1  N    0.006958
     2  N   -0.006958
     3  N   -0.006958
     4  N    0.006958
 Sum of Mulliken charges =   0.00000

 Dipole moment (field-independent basis, Debye):
    X=              0.0000    Y=             -0.0000    Z=              0.0000  Tot=              0.0000
 Quadrupole moment (field-independent basis, Debye-Ang):
   XX=            -20.5007   YY=            -20.5007   ZZ=            -23.5343
   XY=              0.0000   XZ=              0.0000   YZ=             -0.0000

 4SDQ=-218.7146494\CCSD=-218.7102728\CCSD(T)=-218.7467454\RMSD=7.281e-1
 Normal termination of Gaussian 16 at Fri Feb  9 19:20:24 2024.
