 Gaussian 16, Revision A.03,
 Gaussian 16:  ES64L-G16RevA.03 25-Dec-2016

 ------------------
 #p CCSD(T)/cc-pVTZ
 ------------------

 --------
 N2_N2_21
 --------
 Symbolic Z-matrix:
 Charge =  0 Multiplicity = 1

                         Standard orientation:
 ---------------------------------------------------------------------
 Center     Atomic      Atomic             Coordinates (Angstroms)
 Number     Number       Type             X           Y           Z
 ---------------------------------------------------------------------
      1          7           0        0.000000    0.000000    1.730000
      2          7           0        0.000000    0.000000    0.640000
      3          7           0        0.000000    0.000000   -0.640000
      4          7           0        0.000000    0.000000   -1.730000
 ---------------------------------------------------------------------

 SCF Done:  E(RHF) =  -217.574424731     A.U. after   11 cycles
 E2 =    -0.7750051622D+00 EUMP2 =    -0.21834942989362D+03
 CCSD(T)
 CCSD(T)= -0.21838784351D+03

 Unable to determine electronic state:  an orbital has unidentified symmetry.
 Alpha  occ. eigenvalues --  -15.77944 -15.77847 -15.65139 -15.65138  -1.55984
 Alpha  occ. eigenvalues --   -1.47717  -1.20126  -0.78059  -0.75509  -0.68611
 Alpha  occ. eigenvalues --   -0.66340  -0.62316  -0.58403  -0.27086
 Alpha virt. eigenvalues --    0.06571   0.19104   0.25309   0.25795   0.44677
 Alpha virt. eigenvalues --    0.45255   0.47955   0.50685   0.51739   0.61029
 Alpha virt. eigenvalues --    0.61393   0.62724   0.71982   0.73024   0.79492

 Mulliken charges:
               1
     1  N   -0.096179
     2  N    0.096179
     3  N    0.096179
     4  N   -0.096179
 Sum of Mulliken charges =  -0.00000

 Dipole moment (field-independent basis, Debye):
    X=             -0.0000    Y=             -0.0000    Z=              0.0000  Tot=              0.0000
 Quadrupole moment (field-independent basis, Debye-Ang):
   XX=            -22.1179   YY=            -19.3201   ZZ=            -29.7545
   XY=              0.0000   XZ=              0.0000   YZ=             -0.0000

 48586\CCSD=-218.342343\CCSD(T)=-218.3878435\RMSD=3.138e-09\PG=D*H [C*(
 Normal termination of Gaussian 16 at Fri Feb  9 17:51:54 2024.
