 Gaussian 16, Revision A.03,
 Gaussian 16:  ES64L-G16RevA.03 25-Dec-2016

 ------------------
 #p CCSD(T)/cc-pVTZ
 ------------------

 --------
 N2_N2_17
 --------
 Symbolic Z-matrix:
 Charge =  0 Multiplicity = 1

                         Standard orientation:
 ---------------------------------------------------------------------
 Center     Atomic      Atomic             Coordinates (Angstroms)
 Number     Number       Type             X           Y           Z
 ---------------------------------------------------------------------
      1          7           0       -0.817500   -0.872500    0.000000
      2          7           0        0.272500   -0.872500    0.000000
      3          7           0        0.272500    0.327500    0.000000
      4          7           0        0.272500    1.417500    0.000000
 ---------------------------------------------------------------------

 SCF Done:  E(RHF) =  -217.553616355     A.U. after   15 cycles
 E2 =    -0.7615589397D+00 EUMP2 =    -0.21831517529454D+03
 CCSD(T)
 CCSD(T)= -0.21835203574D+03

 The electronic state is 1-A'.
 Alpha  occ. eigenvalues --  -15.81287 -15.69768 -15.68544 -15.59251  -1.68904
 Alpha  occ. eigenvalues --   -1.49096  -1.10741  -0.83575  -0.80316  -0.71413
 Alpha  occ. eigenvalues --   -0.64712  -0.59564  -0.55201  -0.32878
 Alpha virt. eigenvalues --    0.08690   0.15619   0.21599   0.35514   0.40926
 Alpha virt. eigenvalues --    0.42310   0.48567   0.50659   0.55191   0.59687
 Alpha virt. eigenvalues --    0.60200   0.65680   0.71118   0.71288   0.75729

 Mulliken charges:
               1
     1  N   -0.329037
     2  N    0.052640
     3  N    0.354032
     4  N   -0.077635
 Sum of Mulliken charges =  -0.00000

 Dipole moment (field-independent basis, Debye):
    X=              1.3169    Y=              1.1347    Z=              0.0000  Tot=              1.7383
 Quadrupole moment (field-independent basis, Debye-Ang):
   XX=            -23.4040   YY=            -25.3873   ZZ=            -19.3281
   XY=             -0.8580   XZ=              0.0000   YZ=              0.0000

 Q=-218.3117009\CCSD=-218.3095804\CCSD(T)=-218.3520357\RMSD=5.296e-09\P
 Normal termination of Gaussian 16 at Fri Feb  9 17:49:29 2024.
