 Gaussian 16, Revision A.03,
 Gaussian 16:  ES64L-G16RevA.03 25-Dec-2016

 ------------------
 #p CCSD(T)/cc-pVTZ
 ------------------

 ---------
 N2_N2_115
 ---------
 Symbolic Z-matrix:
 Charge =  0 Multiplicity = 1

                         Standard orientation:
 ---------------------------------------------------------------------
 Center     Atomic      Atomic             Coordinates (Angstroms)
 Number     Number       Type             X           Y           Z
 ---------------------------------------------------------------------
      1          7           0        0.578060   -2.110560    0.000000
      2          7           0       -0.192687   -1.339813    0.000000
      3          7           0       -0.192687    1.180187    0.000000
      4          7           0       -0.192687    2.270186    0.000000
 ---------------------------------------------------------------------

 SCF Done:  E(RHF) =  -217.958879245     A.U. after   12 cycles
 E2 =    -0.7463305457D+00 EUMP2 =    -0.21870520979028D+03
 CCSD(T)
 CCSD(T)= -0.21873878914D+03

 The electronic state is 1-A'.
 Alpha  occ. eigenvalues --  -15.67572 -15.67079 -15.67070 -15.66687  -1.47347
 Alpha  occ. eigenvalues --   -1.46889  -0.79445  -0.75601  -0.65129  -0.61854
 Alpha  occ. eigenvalues --   -0.61539  -0.61154  -0.60783  -0.59405
 Alpha virt. eigenvalues --    0.15015   0.16079   0.18180   0.18781   0.44861
 Alpha virt. eigenvalues --    0.45964   0.52438   0.53465   0.58127   0.59050
 Alpha virt. eigenvalues --    0.61210   0.63680   0.66704   0.71113   0.76003

 Mulliken charges:
               1
     1  N    0.003120
     2  N   -0.005247
     3  N    0.004975
     4  N   -0.002848
 Sum of Mulliken charges =  -0.00000

 Dipole moment (field-independent basis, Debye):
    X=             -0.0583    Y=              0.0830    Z=              0.0000  Tot=              0.1014
 Quadrupole moment (field-independent basis, Debye-Ang):
   XX=            -21.2351   YY=            -23.1022   ZZ=            -20.4965
   XY=              0.7377   XZ=              0.0000   YZ=             -0.0000

 DQ=-218.6957047\MP4SDQ=-218.7065302\CCSD=-218.7019971\CCSD(T)=-218.738
 Normal termination of Gaussian 16 at Fri Feb  9 18:45:43 2024.
