 Gaussian 16, Revision A.03,
 Gaussian 16:  ES64L-G16RevA.03 25-Dec-2016

 ------------------
 #p CCSD(T)/cc-pVTZ
 ------------------

 ---------
 N2_N2_278
 ---------
 Symbolic Z-matrix:
 Charge =  0 Multiplicity = 1

                         Standard orientation:
 ---------------------------------------------------------------------
 Center     Atomic      Atomic             Coordinates (Angstroms)
 Number     Number       Type             X           Y           Z
 ---------------------------------------------------------------------
      1          7           0       -0.817500   -2.612500    0.000000
      2          7           0        0.272500   -2.612500    0.000000
      3          7           0        0.272500    2.067500    0.000000
      4          7           0        0.272500    3.157500    0.000000
 ---------------------------------------------------------------------

 SCF Done:  E(RHF) =  -217.969658328     A.U. after    9 cycles
 E2 =    -0.7433370474D+00 EUMP2 =    -0.21871299537517D+03
 CCSD(T)
 CCSD(T)= -0.21874702061D+03

 The electronic state is 1-A'.
 Alpha  occ. eigenvalues --  -15.67946 -15.67788 -15.67575 -15.67417  -1.47578
 Alpha  occ. eigenvalues --   -1.47418  -0.77551  -0.77391  -0.63369  -0.63202
 Alpha  occ. eigenvalues --   -0.61588  -0.61587  -0.61432  -0.61420
 Alpha virt. eigenvalues --    0.16461   0.16516   0.16672   0.16733   0.41707
 Alpha virt. eigenvalues --    0.42775   0.54221   0.55995   0.56031   0.56205
 Alpha virt. eigenvalues --    0.56295   0.58683   0.67199   0.67675   0.72711

 Mulliken charges:
               1
     1  N   -0.000499
     2  N    0.000601
     3  N   -0.000391
     4  N    0.000288
 Sum of Mulliken charges =  -0.00000

 Dipole moment (field-independent basis, Debye):
    X=              0.0033    Y=              0.0096    Z=              0.0000  Tot=              0.0101
 Quadrupole moment (field-independent basis, Debye-Ang):
   XX=            -21.8941   YY=            -21.8890   ZZ=            -20.4964
   XY=             -0.0036   XZ=              0.0000   YZ=              0.0000

 4SDQ=-218.7149302\CCSD=-218.7106181\CCSD(T)=-218.7470206\RMSD=9.317e-0
 Normal termination of Gaussian 16 at Fri Feb  9 20:11:58 2024.
