 Gaussian 16, Revision A.03,
 Gaussian 16:  ES64L-G16RevA.03 25-Dec-2016

 ------------------
 #p CCSD(T)/cc-pVTZ
 ------------------

 ---------
 N2_N2_248
 ---------
 Symbolic Z-matrix:
 Charge =  0 Multiplicity = 1

                         Standard orientation:
 ---------------------------------------------------------------------
 Center     Atomic      Atomic             Coordinates (Angstroms)
 Number     Number       Type             X           Y           Z
 ---------------------------------------------------------------------
      1          7           0       -0.817500   -2.412500    0.000000
      2          7           0        0.272500   -2.412500    0.000000
      3          7           0        0.272500    1.867500    0.000000
      4          7           0        0.272500    2.957500    0.000000
 ---------------------------------------------------------------------

 SCF Done:  E(RHF) =  -217.969695711     A.U. after   10 cycles
 E2 =    -0.7434500872D+00 EUMP2 =    -0.21871314579865D+03
 CCSD(T)
 CCSD(T)= -0.21874715054D+03

 The electronic state is 1-A'.
 Alpha  occ. eigenvalues --  -15.67961 -15.67765 -15.67591 -15.67395  -1.47591
 Alpha  occ. eigenvalues --   -1.47392  -0.77568  -0.77366  -0.63402  -0.63167
 Alpha  occ. eigenvalues --   -0.61603  -0.61601  -0.61407  -0.61383
 Alpha virt. eigenvalues --    0.16333   0.16494   0.16699   0.16858   0.40380
 Alpha virt. eigenvalues --    0.42824   0.53080   0.55799   0.55913   0.56301
 Alpha virt. eigenvalues --    0.56485   0.60909   0.67107   0.68590   0.72208

 Mulliken charges:
               1
     1  N   -0.000956
     2  N    0.001220
     3  N   -0.001442
     4  N    0.001178
 Sum of Mulliken charges =   0.00000

 Dipole moment (field-independent basis, Debye):
    X=              0.0048    Y=              0.0117    Z=              0.0000  Tot=              0.0126
 Quadrupole moment (field-independent basis, Debye-Ang):
   XX=            -21.8952   YY=            -21.8863   ZZ=            -20.4965
   XY=             -0.0048   XZ=              0.0000   YZ=              0.0000

 4SDQ=-218.7150474\CCSD=-218.7107336\CCSD(T)=-218.7471505\RMSD=8.314e-0
 Normal termination of Gaussian 16 at Fri Feb  9 19:55:21 2024.
