 Gaussian 16, Revision A.03,
 Gaussian 16:  ES64L-G16RevA.03 25-Dec-2016

 ------------------
 #p CCSD(T)/cc-pVTZ
 ------------------

 ---------
 N2_N2_301
 ---------
 Symbolic Z-matrix:
 Charge =  0 Multiplicity = 1

                         Standard orientation:
 ---------------------------------------------------------------------
 Center     Atomic      Atomic             Coordinates (Angstroms)
 Number     Number       Type             X           Y           Z
 ---------------------------------------------------------------------
      1          7           0        0.578060   -3.350560    0.000000
      2          7           0       -0.192687   -2.579813    0.000000
      3          7           0       -0.192687    2.420187   -0.000000
      4          7           0       -0.192687    3.510186   -0.000000
 ---------------------------------------------------------------------

 SCF Done:  E(RHF) =  -217.969592743     A.U. after   10 cycles
 E2 =    -0.7432700233D+00 EUMP2 =    -0.21871286276623D+03
 CCSD(T)
 CCSD(T)= -0.21874689857D+03

 The electronic state is 1-A'.
 Alpha  occ. eigenvalues --  -15.67866 -15.67812 -15.67496 -15.67442  -1.47501
 Alpha  occ. eigenvalues --   -1.47447  -0.77470  -0.77412  -0.63285  -0.63222
 Alpha  occ. eigenvalues --   -0.61512  -0.61511  -0.61458  -0.61456
 Alpha virt. eigenvalues --    0.16588   0.16593   0.16643   0.16658   0.40916
 Alpha virt. eigenvalues --    0.44194   0.55239   0.56110   0.56125   0.56214
 Alpha virt. eigenvalues --    0.56220   0.57252   0.67322   0.67423   0.73236

 Mulliken charges:
               1
     1  N   -0.000498
     2  N    0.000508
     3  N   -0.000021
     4  N    0.000011
 Sum of Mulliken charges =  -0.00000

 Dipole moment (field-independent basis, Debye):
    X=             -0.0044    Y=              0.0035    Z=             -0.0000  Tot=              0.0056
 Quadrupole moment (field-independent basis, Debye-Ang):
   XX=            -21.1953   YY=            -22.6352   ZZ=            -20.4968
   XY=              0.7010   XZ=             -0.0000   YZ=              0.0000

 DQ=-218.7040218\MP4SDQ=-218.7148218\CCSD=-218.7105042\CCSD(T)=-218.746
 Normal termination of Gaussian 16 at Fri Feb  9 20:23:48 2024.
