 Gaussian 16, Revision A.03,
 Gaussian 16:  ES64L-G16RevA.03 25-Dec-2016

 ------------------
 #p CCSD(T)/cc-pVTZ
 ------------------

 ---------
 N2_N2_257
 ---------
 Symbolic Z-matrix:
 Charge =  0 Multiplicity = 1

                         Standard orientation:
 ---------------------------------------------------------------------
 Center     Atomic      Atomic             Coordinates (Angstroms)
 Number     Number       Type             X           Y           Z
 ---------------------------------------------------------------------
      1          7           0       -0.817500   -2.472500    0.000000
      2          7           0        0.272500   -2.472500    0.000000
      3          7           0        0.272500    1.927500    0.000000
      4          7           0        0.272500    3.017500    0.000000
 ---------------------------------------------------------------------

 SCF Done:  E(RHF) =  -217.969684968     A.U. after    9 cycles
 E2 =    -0.7434068504D+00 EUMP2 =    -0.21871309181827D+03
 CCSD(T)
 CCSD(T)= -0.21874710412D+03

 The electronic state is 1-A'.
 Alpha  occ. eigenvalues --  -15.67956 -15.67773 -15.67586 -15.67403  -1.47587
 Alpha  occ. eigenvalues --   -1.47401  -0.77562  -0.77375  -0.63389  -0.63180
 Alpha  occ. eigenvalues --   -0.61598  -0.61596  -0.61416  -0.61397
 Alpha virt. eigenvalues --    0.16382   0.16502   0.16689   0.16811   0.40838
 Alpha virt. eigenvalues --    0.42808   0.53418   0.55876   0.55960   0.56265
 Alpha virt. eigenvalues --    0.56411   0.60221   0.67136   0.68186   0.72339

 Mulliken charges:
               1
     1  N   -0.000777
     2  N    0.000984
     3  N   -0.000985
     4  N    0.000777
 Sum of Mulliken charges =  -0.00000

 Dipole moment (field-independent basis, Debye):
    X=              0.0043    Y=              0.0109    Z=              0.0000  Tot=              0.0117
 Quadrupole moment (field-independent basis, Debye-Ang):
   XX=            -21.8948   YY=            -21.8865   ZZ=            -20.4965
   XY=             -0.0044   XZ=              0.0000   YZ=              0.0000

 DQ=-218.7150059\CCSD=-218.7106927\CCSD(T)=-218.7471041\RMSD=9.677e-09\
 Normal termination of Gaussian 16 at Fri Feb  9 19:59:58 2024.
