 Gaussian 16, Revision A.03,
 Gaussian 16:  ES64L-G16RevA.03 25-Dec-2016

 ------------------
 #p CCSD(T)/cc-pVTZ
 ------------------

 --------
 N2_N2_11
 --------
 Symbolic Z-matrix:
 Charge =  0 Multiplicity = 1

                         Standard orientation:
 ---------------------------------------------------------------------
 Center     Atomic      Atomic             Coordinates (Angstroms)
 Number     Number       Type             X           Y           Z
 ---------------------------------------------------------------------
      1          7           0       -0.817500   -0.832500    0.000000
      2          7           0        0.272500   -0.832500    0.000000
      3          7           0        0.272500    0.287500    0.000000
      4          7           0        0.272500    1.377500    0.000000
 ---------------------------------------------------------------------

 SCF Done:  E(RHF) =  -217.500794609     A.U. after   15 cycles
 E2 =    -0.7606705525D+00 EUMP2 =    -0.21826146516172D+03
 CCSD(T)
 CCSD(T)= -0.21829633431D+03

 The electronic state is 1-A'.
 Alpha  occ. eigenvalues --  -15.81921 -15.68130 -15.68085 -15.60569  -1.74556
 Alpha  occ. eigenvalues --   -1.48786  -1.14639  -0.85626  -0.83714  -0.70487
 Alpha  occ. eigenvalues --   -0.65228  -0.58805  -0.53883  -0.33314
 Alpha virt. eigenvalues --    0.07713   0.17068   0.22786   0.37268   0.41514
 Alpha virt. eigenvalues --    0.43196   0.48988   0.50132   0.54538   0.59910
 Alpha virt. eigenvalues --    0.60186   0.65412   0.70074   0.73771   0.75069

 Mulliken charges:
               1
     1  N   -0.316226
     2  N    0.047774
     3  N    0.385033
     4  N   -0.116581
 Sum of Mulliken charges =  -0.00000

 Dipole moment (field-independent basis, Debye):
    X=              1.2083    Y=              0.7315    Z=              0.0000  Tot=              1.4125
 Quadrupole moment (field-independent basis, Debye-Ang):
   XX=            -23.2600   YY=            -25.6036   ZZ=            -19.1503
   XY=             -0.8663   XZ=              0.0000   YZ=              0.0000

 DQ=-218.2567053\CCSD=-218.2545919\CCSD(T)=-218.2963343\RMSD=3.957e-09\
 Normal termination of Gaussian 16 at Fri Feb  9 17:46:04 2024.
