 Gaussian 16, Revision A.03,
 Gaussian 16:  ES64L-G16RevA.03 25-Dec-2016

 ------------------
 #p CCSD(T)/cc-pVTZ
 ------------------

 ---------
 N2_N2_149
 ---------
 Symbolic Z-matrix:
 Charge =  0 Multiplicity = 1

                         Standard orientation:
 ---------------------------------------------------------------------
 Center     Atomic      Atomic             Coordinates (Angstroms)
 Number     Number       Type             X           Y           Z
 ---------------------------------------------------------------------
      1          7           0       -0.817500   -1.752500    0.000000
      2          7           0        0.272500   -1.752500    0.000000
      3          7           0        0.272500    1.207500    0.000000
      4          7           0        0.272500    2.297500    0.000000
 ---------------------------------------------------------------------

 SCF Done:  E(RHF) =  -217.967056894     A.U. after   12 cycles
 E2 =    -0.7453863193D+00 EUMP2 =    -0.21871244321297D+03
 CCSD(T)
 CCSD(T)= -0.21874616033D+03

 The electronic state is 1-A'.
 Alpha  occ. eigenvalues --  -15.67977 -15.67586 -15.67440 -15.67064  -1.47654
 Alpha  occ. eigenvalues --   -1.47093  -0.77930  -0.77026  -0.64400  -0.62720
 Alpha  occ. eigenvalues --   -0.61729  -0.61675  -0.61081  -0.60288
 Alpha virt. eigenvalues --    0.15087   0.16165   0.17087   0.18327   0.41835
 Alpha virt. eigenvalues --    0.44859   0.52079   0.53372   0.55124   0.57318
 Alpha virt. eigenvalues --    0.58644   0.60466   0.66498   0.69876   0.72759

 Mulliken charges:
               1
     1  N   -0.006567
     2  N    0.007348
     3  N   -0.005629
     4  N    0.004849
 Sum of Mulliken charges =  -0.00000

 Dipole moment (field-independent basis, Debye):
    X=              0.0302    Y=              0.0593    Z=              0.0000  Tot=              0.0666
 Quadrupole moment (field-independent basis, Debye-Ang):
   XX=            -21.9169   YY=            -22.0622   ZZ=            -20.4940
   XY=             -0.0404   XZ=              0.0000   YZ=              0.0000

 4SDQ=-218.7138368\CCSD=-218.7094996\CCSD(T)=-218.7461603\RMSD=2.058e-0
 Normal termination of Gaussian 16 at Fri Feb  9 19:04:35 2024.
