 Gaussian 16, Revision A.03,
 Gaussian 16:  ES64L-G16RevA.03 25-Dec-2016

 ------------------
 #p CCSD(T)/cc-pVTZ
 ------------------

 ---------
 N2_N2_299
 ---------
 Symbolic Z-matrix:
 Charge =  0 Multiplicity = 1

                         Standard orientation:
 ---------------------------------------------------------------------
 Center     Atomic      Atomic             Coordinates (Angstroms)
 Number     Number       Type             X           Y           Z
 ---------------------------------------------------------------------
      1          7           0       -0.817500   -2.752500    0.000000
      2          7           0        0.272500   -2.752500    0.000000
      3          7           0        0.272500    2.207500    0.000000
      4          7           0        0.272500    3.297500    0.000000
 ---------------------------------------------------------------------

 SCF Done:  E(RHF) =  -217.969637120     A.U. after    9 cycles
 E2 =    -0.7432955256D+00 EUMP2 =    -0.21871293264543D+03
 CCSD(T)
 CCSD(T)= -0.21874696615D+03

 The electronic state is 1-A'.
 Alpha  occ. eigenvalues --  -15.67938 -15.67800 -15.67567 -15.67430  -1.47570
 Alpha  occ. eigenvalues --   -1.47432  -0.77542  -0.77405  -0.63357  -0.63217
 Alpha  occ. eigenvalues --   -0.61580  -0.61580  -0.61445  -0.61437
 Alpha virt. eigenvalues --    0.16505   0.16525   0.16659   0.16687   0.42209
 Alpha virt. eigenvalues --    0.42745   0.54930   0.56053   0.56067   0.56170
 Alpha virt. eigenvalues --    0.56234   0.57559   0.67246   0.67488   0.72994

 Mulliken charges:
               1
     1  N   -0.000349
     2  N    0.000391
     3  N   -0.000187
     4  N    0.000145
 Sum of Mulliken charges =  -0.00000

 Dipole moment (field-independent basis, Debye):
    X=              0.0026    Y=              0.0085    Z=              0.0000  Tot=              0.0089
 Quadrupole moment (field-independent basis, Debye-Ang):
   XX=            -21.8935   YY=            -21.8913   ZZ=            -20.4963
   XY=             -0.0031   XZ=              0.0000   YZ=              0.0000

 SDQ=-218.7148804\CCSD=-218.7105688\CCSD(T)=-218.7469661\RMSD=9.444e-09
 Normal termination of Gaussian 16 at Fri Feb  9 20:22:46 2024.
