 Gaussian 16, Revision A.03,
 Gaussian 16:  ES64L-G16RevA.03 25-Dec-2016

 ------------------
 #p CCSD(T)/cc-pVTZ
 ------------------

 --------
 N2_N2_97
 --------
 Symbolic Z-matrix:
 Charge =  0 Multiplicity = 1

                         Standard orientation:
 ---------------------------------------------------------------------
 Center     Atomic      Atomic             Coordinates (Angstroms)
 Number     Number       Type             X           Y           Z
 ---------------------------------------------------------------------
      1          7           0        0.578060   -1.990560    0.000000
      2          7           0       -0.192687   -1.219813    0.000000
      3          7           0       -0.192687    1.060186   -0.000000
      4          7           0       -0.192687    2.150187   -0.000000
 ---------------------------------------------------------------------

 SCF Done:  E(RHF) =  -217.944946884     A.U. after   13 cycles
 E2 =    -0.7484848952D+00 EUMP2 =    -0.21869343177950D+03
 CCSD(T)
 CCSD(T)= -0.21872668941D+03

 The electronic state is 1-A'.
 Alpha  occ. eigenvalues --  -15.67497 -15.66762 -15.66639 -15.66225  -1.47335
 Alpha  occ. eigenvalues --   -1.46612  -0.81102  -0.74790  -0.65908  -0.61931
 Alpha  occ. eigenvalues --   -0.61676  -0.60792  -0.60406  -0.57478
 Alpha virt. eigenvalues --    0.14494   0.15923   0.18859   0.19563   0.45334
 Alpha virt. eigenvalues --    0.45673   0.52246   0.53453   0.59621   0.59670
 Alpha virt. eigenvalues --    0.62979   0.64076   0.66322   0.72029   0.79815

 Mulliken charges:
               1
     1  N   -0.003139
     2  N   -0.002862
     3  N    0.006378
     4  N   -0.000377
 Sum of Mulliken charges =   0.00000

 Dipole moment (field-independent basis, Debye):
    X=             -0.0846    Y=              0.1504    Z=             -0.0000  Tot=              0.1725
 Quadrupole moment (field-independent basis, Debye-Ang):
   XX=            -21.2599   YY=            -23.3075   ZZ=            -20.4841
   XY=              0.7551   XZ=             -0.0000   YZ=              0.0000

 Q=-218.6834772\MP4SDQ=-218.6943209\CCSD=-218.6896367\CCSD(T)=-218.7266
 Normal termination of Gaussian 16 at Fri Feb  9 18:36:17 2024.
