 Gaussian 16, Revision A.03,
 Gaussian 16:  ES64L-G16RevA.03 25-Dec-2016

 ------------------
 #p CCSD(T)/cc-pVTZ
 ------------------

 ---------
 N2_N2_142
 ---------
 Symbolic Z-matrix:
 Charge =  0 Multiplicity = 1

                         Standard orientation:
 ---------------------------------------------------------------------
 Center     Atomic      Atomic             Coordinates (Angstroms)
 Number     Number       Type             X           Y           Z
 ---------------------------------------------------------------------
      1          7           0        0.578060   -2.290560    0.000000
      2          7           0       -0.192687   -1.519814    0.000000
      3          7           0       -0.192687    1.360187   -0.000000
      4          7           0       -0.192687    2.450187   -0.000000
 ---------------------------------------------------------------------

 SCF Done:  E(RHF) =  -217.966669049     A.U. after   12 cycles
 E2 =    -0.7447775141D+00 EUMP2 =    -0.21871144656285D+03
 CCSD(T)
 CCSD(T)= -0.21874526060D+03

 The electronic state is 1-A'.
 Alpha  occ. eigenvalues --  -15.67708 -15.67430 -15.67323 -15.67060  -1.47405
 Alpha  occ. eigenvalues --   -1.47133  -0.78270  -0.76430  -0.64258  -0.62120
 Alpha  occ. eigenvalues --   -0.61483  -0.61408  -0.61103  -0.60748
 Alpha virt. eigenvalues --    0.15578   0.16225   0.17508   0.17971   0.43530
 Alpha virt. eigenvalues --    0.46168   0.52985   0.53921   0.54364   0.58224
 Alpha virt. eigenvalues --    0.59222   0.63737   0.66939   0.70491   0.72027

 Mulliken charges:
               1
     1  N    0.005678
     2  N   -0.006100
     3  N   -0.002186
     4  N    0.002607
 Sum of Mulliken charges =  -0.00000

 Dipole moment (field-independent basis, Debye):
    X=             -0.0351    Y=              0.0397    Z=              0.0000  Tot=              0.0530
 Quadrupole moment (field-independent basis, Debye-Ang):
   XX=            -21.2158   YY=            -22.8968   ZZ=            -20.5001
   XY=              0.7221   XZ=             -0.0000   YZ=              0.0000

 4DQ=-218.7022699\MP4SDQ=-218.7130886\CCSD=-218.7086633\CCSD(T)=-218.74
 Normal termination of Gaussian 16 at Fri Feb  9 18:59:39 2024.
