 Gaussian 16, Revision A.03,
 Gaussian 16:  ES64L-G16RevA.03 25-Dec-2016

 ------------------
 #p CCSD(T)/cc-pVTZ
 ------------------

 --------
 N2_N2_80
 --------
 Symbolic Z-matrix:
 Charge =  0 Multiplicity = 1

                         Standard orientation:
 ---------------------------------------------------------------------
 Center     Atomic      Atomic             Coordinates (Angstroms)
 Number     Number       Type             X           Y           Z
 ---------------------------------------------------------------------
      1          7           0       -0.817500   -1.292500    0.000000
      2          7           0        0.272500   -1.292500    0.000000
      3          7           0        0.272500    0.747500    0.000000
      4          7           0        0.272500    1.837500    0.000000
 ---------------------------------------------------------------------

 SCF Done:  E(RHF) =  -217.904901473     A.U. after   13 cycles
 E2 =    -0.7562375199D+00 EUMP2 =    -0.21866113899247D+03
 CCSD(T)
 CCSD(T)= -0.21869332226D+03

 The electronic state is 1-A'.
 Alpha  occ. eigenvalues --  -15.67755 -15.66504 -15.66394 -15.65264  -1.48038
 Alpha  occ. eigenvalues --   -1.46279  -0.82472  -0.75894  -0.67892  -0.62761
 Alpha  occ. eigenvalues --   -0.62492  -0.61113  -0.59598  -0.52682
 Alpha virt. eigenvalues --    0.13684   0.15174   0.18345   0.21349   0.41952
 Alpha virt. eigenvalues --    0.45119   0.53202   0.54494   0.55722   0.57814
 Alpha virt. eigenvalues --    0.61079   0.66484   0.73457   0.73650   0.75771

 Mulliken charges:
               1
     1  N   -0.034976
     2  N    0.034089
     3  N   -0.002263
     4  N    0.003149
 Sum of Mulliken charges =  -0.00000

 Dipole moment (field-independent basis, Debye):
    X=              0.1933    Y=              0.2036    Z=              0.0000  Tot=              0.2808
 Quadrupole moment (field-independent basis, Debye-Ang):
   XX=            -22.0200   YY=            -22.6553   ZZ=            -20.4167
   XY=             -0.2805   XZ=              0.0000   YZ=              0.0000

 DQ=-218.659983\CCSD=-218.6553904\CCSD(T)=-218.6933223\RMSD=6.812e-09\P
 Normal termination of Gaussian 16 at Fri Feb  9 18:27:13 2024.
