 Gaussian 16, Revision A.03,
 Gaussian 16:  ES64L-G16RevA.03 25-Dec-2016

 ------------------
 #p CCSD(T)/cc-pVTZ
 ------------------

 ---------
 N2_N2_302
 ---------
 Symbolic Z-matrix:
 Charge =  0 Multiplicity = 1

                         Standard orientation:
 ---------------------------------------------------------------------
 Center     Atomic      Atomic             Coordinates (Angstroms)
 Number     Number       Type             X           Y           Z
 ---------------------------------------------------------------------
      1          7           0       -0.817500   -2.772500    0.000000
      2          7           0        0.272500   -2.772500    0.000000
      3          7           0        0.272500    2.227500    0.000000
      4          7           0        0.272500    3.317500    0.000000
 ---------------------------------------------------------------------

 SCF Done:  E(RHF) =  -217.969634730     A.U. after    9 cycles
 E2 =    -0.7432910749D+00 EUMP2 =    -0.21871292580455D+03
 CCSD(T)
 CCSD(T)= -0.21874696022D+03

 The electronic state is 1-A'.
 Alpha  occ. eigenvalues --  -15.67937 -15.67802 -15.67566 -15.67432  -1.47569
 Alpha  occ. eigenvalues --   -1.47434  -0.77541  -0.77406  -0.63356  -0.63219
 Alpha  occ. eigenvalues --   -0.61579  -0.61579  -0.61447  -0.61439
 Alpha virt. eigenvalues --    0.16509   0.16526   0.16657   0.16682   0.42256
 Alpha virt. eigenvalues --    0.42741   0.55016   0.56059   0.56070   0.56167
 Alpha virt. eigenvalues --    0.56228   0.57436   0.67251   0.67474   0.73024

 Mulliken charges:
               1
     1  N   -0.000334
     2  N    0.000370
     3  N   -0.000174
     4  N    0.000138
 Sum of Mulliken charges =  -0.00000

 Dipole moment (field-independent basis, Debye):
    X=              0.0025    Y=              0.0083    Z=              0.0000  Tot=              0.0087
 Quadrupole moment (field-independent basis, Debye-Ang):
   XX=            -21.8935   YY=            -21.8916   ZZ=            -20.4963
   XY=             -0.0031   XZ=              0.0000   YZ=              0.0000

 Q=-218.7148749\CCSD=-218.7105635\CCSD(T)=-218.7469602\RMSD=9.469e-09\P
 Normal termination of Gaussian 16 at Fri Feb  9 20:24:20 2024.
