 Gaussian 16, Revision A.03,
 Gaussian 16:  ES64L-G16RevA.03 25-Dec-2016

 ------------------
 #p CCSD(T)/cc-pVTZ
 ------------------

 ---------
 N2_N2_296
 ---------
 Symbolic Z-matrix:
 Charge =  0 Multiplicity = 1

                         Standard orientation:
 ---------------------------------------------------------------------
 Center     Atomic      Atomic             Coordinates (Angstroms)
 Number     Number       Type             X           Y           Z
 ---------------------------------------------------------------------
      1          7           0       -0.817500   -2.732500    0.000000
      2          7           0        0.272500   -2.732500    0.000000
      3          7           0        0.272500    2.187500    0.000000
      4          7           0        0.272500    3.277500    0.000000
 ---------------------------------------------------------------------

 SCF Done:  E(RHF) =  -217.969639672     A.U. after    9 cycles
 E2 =    -0.7433002831D+00 EUMP2 =    -0.21871293995466D+03
 CCSD(T)
 CCSD(T)= -0.21874697248D+03

 The electronic state is 1-A'.
 Alpha  occ. eigenvalues --  -15.67939 -15.67799 -15.67568 -15.67428  -1.47571
 Alpha  occ. eigenvalues --   -1.47430  -0.77544  -0.77403  -0.63359  -0.63215
 Alpha  occ. eigenvalues --   -0.61581  -0.61581  -0.61443  -0.61435
 Alpha virt. eigenvalues --    0.16500   0.16524   0.16660   0.16692   0.42158
 Alpha virt. eigenvalues --    0.42749   0.54839   0.56048   0.56063   0.56174
 Alpha virt. eigenvalues --    0.56240   0.57690   0.67241   0.67505   0.72961

 Mulliken charges:
               1
     1  N   -0.000366
     2  N    0.000413
     3  N   -0.000203
     4  N    0.000155
 Sum of Mulliken charges =  -0.00000

 Dipole moment (field-independent basis, Debye):
    X=              0.0027    Y=              0.0086    Z=              0.0000  Tot=              0.0090
 Quadrupole moment (field-independent basis, Debye-Ang):
   XX=            -21.8936   YY=            -21.8911   ZZ=            -20.4963
   XY=             -0.0032   XZ=              0.0000   YZ=              0.0000

 Q=-218.7148862\CCSD=-218.7105746\CCSD(T)=-218.7469725\RMSD=9.419e-09\P
 Normal termination of Gaussian 16 at Fri Feb  9 20:21:13 2024.
