 Gaussian 16, Revision A.03,
 Gaussian 16:  ES64L-G16RevA.03 25-Dec-2016

 ------------------
 #p CCSD(T)/cc-pVTZ
 ------------------

 ---------
 N2_N2_172
 ---------
 Symbolic Z-matrix:
 Charge =  0 Multiplicity = 1

                         Standard orientation:
 ---------------------------------------------------------------------
 Center     Atomic      Atomic             Coordinates (Angstroms)
 Number     Number       Type             X           Y           Z
 ---------------------------------------------------------------------
      1          7           0        0.578060   -2.490560    0.000000
      2          7           0       -0.192687   -1.719813   -0.000000
      3          7           0       -0.192687    1.560186   -0.000000
      4          7           0       -0.192687    2.650187   -0.000000
 ---------------------------------------------------------------------

 SCF Done:  E(RHF) =  -217.968940321     A.U. after   12 cycles
 E2 =    -0.7440341720D+00 EUMP2 =    -0.21871297449318D+03
 CCSD(T)
 CCSD(T)= -0.21874689680D+03

 The electronic state is 1-A'.
 Alpha  occ. eigenvalues --  -15.67798 -15.67619 -15.67427 -15.67248  -1.47452
 Alpha  occ. eigenvalues --   -1.47274  -0.77756  -0.76939  -0.63715  -0.62608
 Alpha  occ. eigenvalues --   -0.61482  -0.61470  -0.61276  -0.61198
 Alpha virt. eigenvalues --    0.16012   0.16340   0.17048   0.17402   0.40556
 Alpha virt. eigenvalues --    0.45953   0.52313   0.54247   0.54735   0.57457
 Alpha virt. eigenvalues --    0.58017   0.63746   0.67037   0.70070   0.70742

 Mulliken charges:
               1
     1  N    0.005188
     2  N   -0.005422
     3  N   -0.007615
     4  N    0.007850
 Sum of Mulliken charges =  -0.00000

 Dipole moment (field-independent basis, Debye):
    X=             -0.0215    Y=              0.0207    Z=             -0.0000  Tot=              0.0298
 Quadrupole moment (field-independent basis, Debye-Ang):
   XX=            -21.2049   YY=            -22.7708   ZZ=            -20.4991
   XY=              0.7132   XZ=             -0.0000   YZ=              0.0000

 DQ=-218.7039565\MP4SDQ=-218.7147709\CCSD=-218.710399\CCSD(T)=-218.7468
 Normal termination of Gaussian 16 at Fri Feb  9 19:16:24 2024.
