 Gaussian 16, Revision A.03,
 Gaussian 16:  ES64L-G16RevA.03 25-Dec-2016

 ------------------
 #p CCSD(T)/cc-pVTZ
 ------------------

 ---------
 N2_N2_293
 ---------
 Symbolic Z-matrix:
 Charge =  0 Multiplicity = 1

                         Standard orientation:
 ---------------------------------------------------------------------
 Center     Atomic      Atomic             Coordinates (Angstroms)
 Number     Number       Type             X           Y           Z
 ---------------------------------------------------------------------
      1          7           0       -0.817500   -2.712500    0.000000
      2          7           0        0.272500   -2.712500    0.000000
      3          7           0        0.272500    2.167500    0.000000
      4          7           0        0.272500    3.257500    0.000000
 ---------------------------------------------------------------------

 SCF Done:  E(RHF) =  -217.969642387     A.U. after    9 cycles
 E2 =    -0.7433053756D+00 EUMP2 =    -0.21871294776223D+03
 CCSD(T)
 CCSD(T)= -0.21874697926D+03

 The electronic state is 1-A'.
 Alpha  occ. eigenvalues --  -15.67940 -15.67797 -15.67569 -15.67427  -1.47572
 Alpha  occ. eigenvalues --   -1.47428  -0.77545  -0.77401  -0.63360  -0.63213
 Alpha  occ. eigenvalues --   -0.61582  -0.61582  -0.61441  -0.61433
 Alpha virt. eigenvalues --    0.16495   0.16522   0.16662   0.16698   0.42100
 Alpha virt. eigenvalues --    0.42754   0.54745   0.56041   0.56059   0.56178
 Alpha virt. eigenvalues --    0.56247   0.57831   0.67235   0.67524   0.72925

 Mulliken charges:
               1
     1  N   -0.000383
     2  N    0.000438
     3  N   -0.000222
     4  N    0.000168
 Sum of Mulliken charges =  -0.00000

 Dipole moment (field-independent basis, Debye):
    X=              0.0028    Y=              0.0088    Z=              0.0000  Tot=              0.0092
 Quadrupole moment (field-independent basis, Debye-Ang):
   XX=            -21.8937   YY=            -21.8908   ZZ=            -20.4963
   XY=             -0.0033   XZ=              0.0000   YZ=              0.0000

 4SDQ=-218.7148924\CCSD=-218.7105807\CCSD(T)=-218.7469793\RMSD=9.395e-0
 Normal termination of Gaussian 16 at Fri Feb  9 20:19:40 2024.
