 Gaussian 16, Revision A.03,
 Gaussian 16:  ES64L-G16RevA.03 25-Dec-2016

 ------------------
 #p CCSD(T)/cc-pVTZ
 ------------------

 --------
 N2_N2_50
 --------
 Symbolic Z-matrix:
 Charge =  0 Multiplicity = 1

                         Standard orientation:
 ---------------------------------------------------------------------
 Center     Atomic      Atomic             Coordinates (Angstroms)
 Number     Number       Type             X           Y           Z
 ---------------------------------------------------------------------
      1          7           0       -0.817500   -1.092500    0.000000
      2          7           0        0.272500   -1.092500    0.000000
      3          7           0        0.272500    0.547500    0.000000
      4          7           0        0.272500    1.637500    0.000000
 ---------------------------------------------------------------------

 SCF Done:  E(RHF) =  -217.760712599     A.U. after   15 cycles
 E2 =    -0.7650608802D+00 EUMP2 =    -0.21852577347914D+03
 CCSD(T)
 CCSD(T)= -0.21856018837D+03

 The electronic state is 1-A'.
 Alpha  occ. eigenvalues --  -15.68924 -15.67654 -15.67555 -15.60955  -1.51116
 Alpha  occ. eigenvalues --   -1.46118  -0.91614  -0.75808  -0.70023  -0.66210
 Alpha  occ. eigenvalues --   -0.63143  -0.60308  -0.58024  -0.42251
 Alpha virt. eigenvalues --    0.13505   0.13567   0.19488   0.23294   0.41616
 Alpha virt. eigenvalues --    0.43862   0.51136   0.53279   0.55673   0.58701
 Alpha virt. eigenvalues --    0.61567   0.66402   0.73449   0.74783   0.76408

 Mulliken charges:
               1
     1  N   -0.131359
     2  N    0.078962
     3  N    0.045713
     4  N    0.006684
 Sum of Mulliken charges =  -0.00000

 Dipole moment (field-independent basis, Debye):
    X=              0.6788    Y=              0.7692    Z=              0.0000  Tot=              1.0259
 Quadrupole moment (field-independent basis, Debye-Ang):
   XX=            -22.4410   YY=            -23.2901   ZZ=            -20.1916
   XY=             -0.7223   XZ=              0.0000   YZ=              0.0000

 SDQ=-218.5245932\CCSD=-218.5200277\CCSD(T)=-218.5601884\RMSD=6.350e-09
 Normal termination of Gaussian 16 at Fri Feb  9 18:11:11 2024.
