 Gaussian 16, Revision A.03,
 Gaussian 16:  ES64L-G16RevA.03 25-Dec-2016

 ------------------
 #p CCSD(T)/cc-pVTZ
 ------------------

 ---------
 N2_N2_206
 ---------
 Symbolic Z-matrix:
 Charge =  0 Multiplicity = 1

                         Standard orientation:
 ---------------------------------------------------------------------
 Center     Atomic      Atomic             Coordinates (Angstroms)
 Number     Number       Type             X           Y           Z
 ---------------------------------------------------------------------
      1          7           0       -0.817500   -2.132500    0.000000
      2          7           0        0.272500   -2.132500    0.000000
      3          7           0        0.272500    1.587500    0.000000
      4          7           0        0.272500    2.677500    0.000000
 ---------------------------------------------------------------------

 SCF Done:  E(RHF) =  -217.969643975     A.U. after   12 cycles
 E2 =    -0.7438284366D+00 EUMP2 =    -0.21871347241170D+03
 CCSD(T)
 CCSD(T)= -0.21874741878D+03

 The electronic state is 1-A'.
 Alpha  occ. eigenvalues --  -15.67988 -15.67704 -15.67617 -15.67333  -1.47619
 Alpha  occ. eigenvalues --   -1.47325  -0.77616  -0.77300  -0.63544  -0.63055
 Alpha  occ. eigenvalues --   -0.61634  -0.61631  -0.61343  -0.61252
 Alpha virt. eigenvalues --    0.15967   0.16425   0.16780   0.17226   0.39003
 Alpha virt. eigenvalues --    0.42944   0.51787   0.55115   0.55512   0.56563
 Alpha virt. eigenvalues --    0.57086   0.62441   0.66960   0.69592   0.72883

 Mulliken charges:
               1
     1  N   -0.002496
     2  N    0.002964
     3  N   -0.005365
     4  N    0.004897
 Sum of Mulliken charges =  -0.00000

 Dipole moment (field-independent basis, Debye):
    X=              0.0096    Y=              0.0214    Z=              0.0000  Tot=              0.0235
 Quadrupole moment (field-independent basis, Debye-Ang):
   XX=            -21.8990   YY=            -21.9095   ZZ=            -20.4963
   XY=             -0.0097   XZ=              0.0000   YZ=              0.0000

 DQ=-218.7152715\CCSD=-218.7109531\CCSD(T)=-218.7474188\RMSD=1.786e-09\
 Normal termination of Gaussian 16 at Fri Feb  9 19:33:46 2024.
