 Gaussian 16, Revision A.03,
 Gaussian 16:  ES64L-G16RevA.03 25-Dec-2016

 ------------------
 #p CCSD(T)/cc-pVTZ
 ------------------

 ---------
 N2_N2_243
 ---------
 Symbolic Z-matrix:
 Charge =  0 Multiplicity = 1

                         Standard orientation:
 ---------------------------------------------------------------------
 Center     Atomic      Atomic             Coordinates (Angstroms)
 Number     Number       Type             X           Y           Z
 ---------------------------------------------------------------------
      1          7           0        0.000000    0.000000    3.210000
      2          7           0        0.000000    0.000000    2.120000
      3          7           0        0.000000    0.000000   -2.120000
      4          7           0        0.000000    0.000000   -3.210000
 ---------------------------------------------------------------------

 SCF Done:  E(RHF) =  -217.969541608     A.U. after    9 cycles
 E2 =    -0.7434026365D+00 EUMP2 =    -0.21871294424468D+03
 CCSD(T)
 CCSD(T)= -0.21874695547D+03

 The electronic state is 1-SGG.
 Alpha  occ. eigenvalues --  -15.67778 -15.67778 -15.67407 -15.67407  -1.47417
 Alpha  occ. eigenvalues --   -1.47416  -0.77432  -0.77314  -0.63284  -0.63080
 Alpha  occ. eigenvalues --   -0.61433  -0.61433  -0.61421  -0.61421
 Alpha virt. eigenvalues --    0.16540   0.16540   0.16827   0.16827   0.35746
 Alpha virt. eigenvalues --    0.47570   0.53596   0.55987   0.55987   0.56439
 Alpha virt. eigenvalues --    0.56439   0.63800   0.67310   0.68262   0.72594

 Mulliken charges:
               1
     1  N    0.003544
     2  N   -0.003544
     3  N   -0.003544
     4  N    0.003544
 Sum of Mulliken charges =  -0.00000

 Dipole moment (field-independent basis, Debye):
    X=              0.0000    Y=              0.0000    Z=              0.0000  Tot=              0.0000
 Quadrupole moment (field-independent basis, Debye-Ang):
   XX=            -20.4983   YY=            -20.4983   ZZ=            -23.4059
   XY=              0.0000   XZ=              0.0000   YZ=             -0.0000

 4SDQ=-218.7148775\CCSD=-218.7105435\CCSD(T)=-218.7469555\RMSD=9.947e-0
 Normal termination of Gaussian 16 at Fri Feb  9 19:52:46 2024.
