 Gaussian 16, Revision A.03,
 Gaussian 16:  ES64L-G16RevA.03 25-Dec-2016

 ------------------
 #p CCSD(T)/cc-pVTZ
 ------------------

 ---------
 N2_N2_249
 ---------
 Symbolic Z-matrix:
 Charge =  0 Multiplicity = 1

                         Standard orientation:
 ---------------------------------------------------------------------
 Center     Atomic      Atomic             Coordinates (Angstroms)
 Number     Number       Type             X           Y           Z
 ---------------------------------------------------------------------
      1          7           0        0.000000    0.000000    3.250000
      2          7           0        0.000000    0.000000    2.160000
      3          7           0        0.000000    0.000000   -2.160000
      4          7           0        0.000000    0.000000   -3.250000
 ---------------------------------------------------------------------

 SCF Done:  E(RHF) =  -217.969550428     A.U. after    9 cycles
 E2 =    -0.7433806223D+00 EUMP2 =    -0.21871293105078D+03
 CCSD(T)
 CCSD(T)= -0.21874694567D+03

 The electronic state is 1-SGG.
 Alpha  occ. eigenvalues --  -15.67783 -15.67783 -15.67413 -15.67413  -1.47422
 Alpha  occ. eigenvalues --   -1.47421  -0.77428  -0.77330  -0.63275  -0.63102
 Alpha  occ. eigenvalues --   -0.61437  -0.61437  -0.61427  -0.61427
 Alpha virt. eigenvalues --    0.16557   0.16557   0.16800   0.16800   0.36037
 Alpha virt. eigenvalues --    0.47432   0.53754   0.56022   0.56022   0.56401
 Alpha virt. eigenvalues --    0.56401   0.62890   0.67317   0.67973   0.72712

 Mulliken charges:
               1
     1  N    0.002860
     2  N   -0.002860
     3  N   -0.002860
     4  N    0.002860
 Sum of Mulliken charges =  -0.00000

 Dipole moment (field-independent basis, Debye):
    X=              0.0000    Y=              0.0000    Z=             -0.0000  Tot=              0.0000
 Quadrupole moment (field-independent basis, Debye-Ang):
   XX=            -20.4981   YY=            -20.4981   ZZ=            -23.3998
   XY=              0.0000   XZ=              0.0000   YZ=             -0.0000

 4SDQ=-218.7148686\CCSD=-218.7105367\CCSD(T)=-218.7469457\RMSD=9.910e-0
 Normal termination of Gaussian 16 at Fri Feb  9 19:55:51 2024.
