 Gaussian 16, Revision A.03,
 Gaussian 16:  ES64L-G16RevA.03 25-Dec-2016

 ------------------
 #p CCSD(T)/cc-pVTZ
 ------------------

 ---------
 N2_N2_263
 ---------
 Symbolic Z-matrix:
 Charge =  0 Multiplicity = 1

                         Standard orientation:
 ---------------------------------------------------------------------
 Center     Atomic      Atomic             Coordinates (Angstroms)
 Number     Number       Type             X           Y           Z
 ---------------------------------------------------------------------
      1          7           0       -0.817500   -2.512500    0.000000
      2          7           0        0.272500   -2.512500    0.000000
      3          7           0        0.272500    1.967500    0.000000
      4          7           0        0.272500    3.057500    0.000000
 ---------------------------------------------------------------------

 SCF Done:  E(RHF) =  -217.969677224     A.U. after    9 cycles
 E2 =    -0.7433829956D+00 EUMP2 =    -0.21871306021995D+03
 CCSD(T)
 CCSD(T)= -0.21874707682D+03

 The electronic state is 1-A'.
 Alpha  occ. eigenvalues --  -15.67953 -15.67778 -15.67582 -15.67407  -1.47584
 Alpha  occ. eigenvalues --   -1.47407  -0.77559  -0.77380  -0.63382  -0.63188
 Alpha  occ. eigenvalues --   -0.61595  -0.61594  -0.61421  -0.61404
 Alpha virt. eigenvalues --    0.16409   0.16507   0.16684   0.16785   0.41121
 Alpha virt. eigenvalues --    0.42798   0.53648   0.55918   0.55985   0.56245
 Alpha virt. eigenvalues --    0.56371   0.59755   0.67155   0.67987   0.72447

 Mulliken charges:
               1
     1  N   -0.000680
     2  N    0.000852
     3  N   -0.000755
     4  N    0.000583
 Sum of Mulliken charges =  -0.00000

 Dipole moment (field-independent basis, Debye):
    X=              0.0039    Y=              0.0104    Z=              0.0000  Tot=              0.0111
 Quadrupole moment (field-independent basis, Debye-Ang):
   XX=            -21.8946   YY=            -21.8871   ZZ=            -20.4965
   XY=             -0.0041   XZ=              0.0000   YZ=              0.0000

 SDQ=-218.7149813\CCSD=-218.7106685\CCSD(T)=-218.7470768\RMSD=9.468e-09
 Normal termination of Gaussian 16 at Fri Feb  9 20:04:16 2024.
