 Gaussian 16, Revision A.03,
 Gaussian 16:  ES64L-G16RevA.03 25-Dec-2016

 ------------------
 #p CCSD(T)/cc-pVTZ
 ------------------

 ---------
 N2_N2_256
 ---------
 Symbolic Z-matrix:
 Charge =  0 Multiplicity = 1

                         Standard orientation:
 ---------------------------------------------------------------------
 Center     Atomic      Atomic             Coordinates (Angstroms)
 Number     Number       Type             X           Y           Z
 ---------------------------------------------------------------------
      1          7           0        0.578060   -3.050560    0.000000
      2          7           0       -0.192687   -2.279813    0.000000
      3          7           0       -0.192687    2.120187   -0.000000
      4          7           0       -0.192687    3.210186   -0.000000
 ---------------------------------------------------------------------

 SCF Done:  E(RHF) =  -217.969600267     A.U. after   11 cycles
 E2 =    -0.7433643846D+00 EUMP2 =    -0.21871296465129D+03
 CCSD(T)
 CCSD(T)= -0.21874698097D+03

 The electronic state is 1-A'.
 Alpha  occ. eigenvalues --  -15.67859 -15.67784 -15.67488 -15.67414  -1.47494
 Alpha  occ. eigenvalues --   -1.47420  -0.77473  -0.77368  -0.63305  -0.63161
 Alpha  occ. eigenvalues --   -0.61505  -0.61504  -0.61431  -0.61426
 Alpha virt. eigenvalues --    0.16538   0.16554   0.16653   0.16742   0.38605
 Alpha virt. eigenvalues --    0.45557   0.53953   0.55937   0.56011   0.56351
 Alpha virt. eigenvalues --    0.56415   0.59803   0.67248   0.67666   0.72817

 Mulliken charges:
               1
     1  N    0.000102
     2  N   -0.000048
     3  N   -0.001271
     4  N    0.001216
 Sum of Mulliken charges =  -0.00000

 Dipole moment (field-independent basis, Debye):
    X=             -0.0069    Y=              0.0052    Z=             -0.0000  Tot=              0.0087
 Quadrupole moment (field-independent basis, Debye-Ang):
   XX=            -21.1964   YY=            -22.6500   ZZ=            -20.4973
   XY=              0.7030   XZ=             -0.0000   YZ=              0.0000

 DQ=-218.7040976\MP4SDQ=-218.7148996\CCSD=-218.7105749\CCSD(T)=-218.746
 Normal termination of Gaussian 16 at Fri Feb  9 19:59:27 2024.
