 Gaussian 16, Revision A.03,
 Gaussian 16:  ES64L-G16RevA.03 25-Dec-2016

 ------------------
 #p CCSD(T)/cc-pVTZ
 ------------------

 ---------
 N2_N2_284
 ---------
 Symbolic Z-matrix:
 Charge =  0 Multiplicity = 1

                         Standard orientation:
 ---------------------------------------------------------------------
 Center     Atomic      Atomic             Coordinates (Angstroms)
 Number     Number       Type             X           Y           Z
 ---------------------------------------------------------------------
      1          7           0       -0.817500   -2.652500    0.000000
      2          7           0        0.272500   -2.652500    0.000000
      3          7           0        0.272500    2.107500    0.000000
      4          7           0        0.272500    3.197500    0.000000
 ---------------------------------------------------------------------

 SCF Done:  E(RHF) =  -217.969651500     A.U. after    9 cycles
 E2 =    -0.7433229869D+00 EUMP2 =    -0.21871297448654D+03
 CCSD(T)
 CCSD(T)= -0.21874700246D+03

 The electronic state is 1-A'.
 Alpha  occ. eigenvalues --  -15.67943 -15.67792 -15.67573 -15.67421  -1.47575
 Alpha  occ. eigenvalues --   -1.47422  -0.77548  -0.77395  -0.63365  -0.63207
 Alpha  occ. eigenvalues --   -0.61586  -0.61585  -0.61436  -0.61426
 Alpha virt. eigenvalues --    0.16477   0.16519   0.16668   0.16717   0.41887
 Alpha virt. eigenvalues --    0.42766   0.54440   0.56017   0.56044   0.56193
 Alpha virt. eigenvalues --    0.56273   0.58313   0.67214   0.67601   0.72804

 Mulliken charges:
               1
     1  N   -0.000447
     2  N    0.000527
     3  N   -0.000306
     4  N    0.000226
 Sum of Mulliken charges =  -0.00000

 Dipole moment (field-independent basis, Debye):
    X=              0.0031    Y=              0.0092    Z=              0.0000  Tot=              0.0097
 Quadrupole moment (field-independent basis, Debye-Ang):
   XX=            -21.8939   YY=            -21.8897   ZZ=            -20.4964
   XY=             -0.0035   XZ=              0.0000   YZ=              0.0000

 4SDQ=-218.7149136\CCSD=-218.7106017\CCSD(T)=-218.7470025\RMSD=9.335e-0
 Normal termination of Gaussian 16 at Fri Feb  9 20:14:59 2024.
