 Gaussian 16, Revision A.03,
 Gaussian 16:  ES64L-G16RevA.03 25-Dec-2016

 ------------------
 #p CCSD(T)/cc-pVTZ
 ------------------

 -------
 N2_N2_6
 -------
 Symbolic Z-matrix:
 Charge =  0 Multiplicity = 1

                         Standard orientation:
 ---------------------------------------------------------------------
 Center     Atomic      Atomic             Coordinates (Angstroms)
 Number     Number       Type             X           Y           Z
 ---------------------------------------------------------------------
      1          7           0        0.000000    0.000000    1.630000
      2          7           0        0.000000    0.000000    0.540000
      3          7           0        0.000000    0.000000   -0.540000
      4          7           0        0.000000    0.000000   -1.630000
 ---------------------------------------------------------------------

 SCF Done:  E(RHF) =  -217.575265318     A.U. after   11 cycles
 E2 =    -0.7479663453D+00 EUMP2 =    -0.21832323166299D+03
 CCSD(T)
 CCSD(T)= -0.21836259912D+03

 Unable to determine electronic state:  an orbital has unidentified symmetry.
 Alpha  occ. eigenvalues --  -15.76186 -15.75864 -15.63350 -15.63350  -1.63931
 Alpha  occ. eigenvalues --   -1.46641  -1.31104  -0.84520  -0.82358  -0.67237
 Alpha  occ. eigenvalues --   -0.65945  -0.60032  -0.54384  -0.30302
 Alpha virt. eigenvalues --    0.04801   0.26179   0.30758   0.36312   0.43315
 Alpha virt. eigenvalues --    0.45260   0.49591   0.49985   0.50659   0.59631
 Alpha virt. eigenvalues --    0.62051   0.63914   0.71381   0.72432   0.80029

 Mulliken charges:
               1
     1  N   -0.156867
     2  N    0.156867
     3  N    0.156867
     4  N   -0.156867
 Sum of Mulliken charges =  -0.00000

 Dipole moment (field-independent basis, Debye):
    X=             -0.0000    Y=              0.0000    Z=              0.0000  Tot=              0.0000
 Quadrupole moment (field-independent basis, Debye-Ang):
   XX=            -18.9277   YY=            -21.5595   ZZ=            -30.4002
   XY=              0.0000   XZ=              0.0000   YZ=             -0.0000

 5691\CCSD=-218.3222401\CCSD(T)=-218.3625991\RMSD=8.068e-09\PG=D*H [C*(
 Normal termination of Gaussian 16 at Fri Feb  9 17:43:15 2024.
