 Gaussian 16, Revision A.03,
 Gaussian 16:  ES64L-G16RevA.03 25-Dec-2016

 ------------------
 #p CCSD(T)/cc-pVTZ
 ------------------

 --------
 N2_N2_79
 --------
 Symbolic Z-matrix:
 Charge =  0 Multiplicity = 1

                         Standard orientation:
 ---------------------------------------------------------------------
 Center     Atomic      Atomic             Coordinates (Angstroms)
 Number     Number       Type             X           Y           Z
 ---------------------------------------------------------------------
      1          7           0        0.578060   -1.870560    0.000000
      2          7           0       -0.192687   -1.099813    0.000000
      3          7           0       -0.192687    0.940187   -0.000000
      4          7           0       -0.192687    2.030186   -0.000000
 ---------------------------------------------------------------------

 SCF Done:  E(RHF) =  -217.914617283     A.U. after   13 cycles
 E2 =    -0.7525120578D+00 EUMP2 =    -0.21866712934068D+03
 CCSD(T)
 CCSD(T)= -0.21869979736D+03

 The electronic state is 1-A'.
 Alpha  occ. eigenvalues --  -15.67561 -15.66378 -15.65929 -15.65510  -1.47474
 Alpha  occ. eigenvalues --   -1.46190  -0.84167  -0.73796  -0.66728  -0.62294
 Alpha  occ. eigenvalues --   -0.62060  -0.60262  -0.59819  -0.54139
 Alpha virt. eigenvalues --    0.13753   0.15642   0.19858   0.20614   0.45017
 Alpha virt. eigenvalues --    0.45971   0.52277   0.53617   0.60310   0.60355
 Alpha virt. eigenvalues --    0.63209   0.64819   0.66509   0.73243   0.81142

 Mulliken charges:
               1
     1  N   -0.016824
     2  N    0.002323
     3  N    0.008629
     4  N    0.005872
 Sum of Mulliken charges =  -0.00000

 Dipole moment (field-independent basis, Debye):
    X=             -0.1252    Y=              0.3020    Z=             -0.0000  Tot=              0.3270
 Quadrupole moment (field-independent basis, Debye-Ang):
   XX=            -21.3129   YY=            -23.5677   ZZ=            -20.4542
   XY=              0.7776   XZ=             -0.0000   YZ=              0.0000

 4DQ=-218.6563193\MP4SDQ=-218.6672333\CCSD=-218.6622473\CCSD(T)=-218.69
 Normal termination of Gaussian 16 at Fri Feb  9 18:26:41 2024.
