 Gaussian 16, Revision A.03,
 Gaussian 16:  ES64L-G16RevA.03 25-Dec-2016

 ------------------
 #p CCSD(T)/cc-pVTZ
 ------------------

 ---------
 N2_N2_185
 ---------
 Symbolic Z-matrix:
 Charge =  0 Multiplicity = 1

                         Standard orientation:
 ---------------------------------------------------------------------
 Center     Atomic      Atomic             Coordinates (Angstroms)
 Number     Number       Type             X           Y           Z
 ---------------------------------------------------------------------
      1          7           0       -0.817500   -1.992500    0.000000
      2          7           0        0.272500   -1.992500    0.000000
      3          7           0        0.272500    1.447500    0.000000
      4          7           0        0.272500    2.537500    0.000000
 ---------------------------------------------------------------------

 SCF Done:  E(RHF) =  -217.969369440     A.U. after   12 cycles
 E2 =    -0.7441892003D+00 EUMP2 =    -0.21871355864010D+03
 CCSD(T)
 CCSD(T)= -0.21874745374D+03

 The electronic state is 1-A'.
 Alpha  occ. eigenvalues --  -15.67997 -15.67644 -15.67626 -15.67272  -1.47634
 Alpha  occ. eigenvalues --   -1.47266  -0.77670  -0.77237  -0.63718  -0.62957
 Alpha  occ. eigenvalues --   -0.61658  -0.61650  -0.61282  -0.61080
 Alpha virt. eigenvalues --    0.15689   0.16358   0.16856   0.17533   0.39734
 Alpha virt. eigenvalues --    0.43111   0.51355   0.54537   0.55238   0.56760
 Alpha virt. eigenvalues --    0.57569   0.62069   0.66841   0.69218   0.72777

 Mulliken charges:
               1
     1  N   -0.003868
     2  N    0.004353
     3  N   -0.007242
     4  N    0.006756
 Sum of Mulliken charges =   0.00000

 Dipole moment (field-independent basis, Debye):
    X=              0.0144    Y=              0.0316    Z=              0.0000  Tot=              0.0347
 Quadrupole moment (field-independent basis, Debye-Ang):
   XX=            -21.9030   YY=            -21.9452   ZZ=            -20.4960
   XY=             -0.0158   XZ=              0.0000   YZ=              0.0000

 4SDQ=-218.7152637\CCSD=-218.7109413\CCSD(T)=-218.7474537\RMSD=1.945e-0
 Normal termination of Gaussian 16 at Fri Feb  9 19:22:59 2024.
