 Gaussian 16, Revision A.03,
 Gaussian 16:  ES64L-G16RevA.03 25-Dec-2016

 ------------------
 #p CCSD(T)/cc-pVTZ
 ------------------

 --------
 N2_N2_90
 --------
 Symbolic Z-matrix:
 Charge =  0 Multiplicity = 1

                         Standard orientation:
 ---------------------------------------------------------------------
 Center     Atomic      Atomic             Coordinates (Angstroms)
 Number     Number       Type             X           Y           Z
 ---------------------------------------------------------------------
      1          7           0        0.000000    0.000000    2.190000
      2          7           0        0.000000    0.000000    1.100000
      3          7           0        0.000000    0.000000   -1.100000
      4          7           0        0.000000    0.000000   -2.190000
 ---------------------------------------------------------------------

 SCF Done:  E(RHF) =  -217.931069243     A.U. after   10 cycles
 E2 =    -0.7490894400D+00 EUMP2 =    -0.21868015868296D+03
 CCSD(T)
 CCSD(T)= -0.21871350242D+03

 The electronic state is 1-SGG.
 Alpha  occ. eigenvalues --  -15.66751 -15.66751 -15.65727 -15.65726  -1.46792
 Alpha  occ. eigenvalues --   -1.46469  -0.82026  -0.74028  -0.66010  -0.61319
 Alpha  occ. eigenvalues --   -0.61319  -0.60135  -0.60135  -0.56492
 Alpha virt. eigenvalues --    0.14200   0.14200   0.20496   0.20496   0.44600
 Alpha virt. eigenvalues --    0.46648   0.53897   0.53897   0.59712   0.59712
 Alpha virt. eigenvalues --    0.65790   0.66913   0.71780   0.71780   0.72388

 Mulliken charges:
               1
     1  N   -0.009530
     2  N    0.009530
     3  N    0.009530
     4  N   -0.009530
 Sum of Mulliken charges =  -0.00000

 Dipole moment (field-independent basis, Debye):
    X=             -0.0000    Y=             -0.0000    Z=              0.0000  Tot=              0.0000
 Quadrupole moment (field-independent basis, Debye-Ang):
   XX=            -20.4967   YY=            -20.4967   ZZ=            -24.2537
   XY=              0.0000   XZ=              0.0000   YZ=             -0.0000

 SDQ=-218.6812116\CCSD=-218.6763926\CCSD(T)=-218.7135024\RMSD=8.206e-10
 Normal termination of Gaussian 16 at Fri Feb  9 18:32:31 2024.
