 Gaussian 16, Revision A.03,
 Gaussian 16:  ES64L-G16RevA.03 25-Dec-2016

 ------------------
 #p CCSD(T)/cc-pVTZ
 ------------------

 ---------
 N2_N2_264
 ---------
 Symbolic Z-matrix:
 Charge =  0 Multiplicity = 1

                         Standard orientation:
 ---------------------------------------------------------------------
 Center     Atomic      Atomic             Coordinates (Angstroms)
 Number     Number       Type             X           Y           Z
 ---------------------------------------------------------------------
      1          7           0        0.000000    0.000000    3.350000
      2          7           0        0.000000    0.000000    2.260000
      3          7           0        0.000000    0.000000   -2.260000
      4          7           0        0.000000    0.000000   -3.350000
 ---------------------------------------------------------------------

 SCF Done:  E(RHF) =  -217.969562854     A.U. after    9 cycles
 E2 =    -0.7433342312D+00 EUMP2 =    -0.21871289708503D+03
 CCSD(T)
 CCSD(T)= -0.21874691950D+03

 The electronic state is 1-SGG.
 Alpha  occ. eigenvalues --  -15.67795 -15.67795 -15.67424 -15.67424  -1.47433
 Alpha  occ. eigenvalues --   -1.47432  -0.77423  -0.77360  -0.63260  -0.63145
 Alpha  occ. eigenvalues --   -0.61446  -0.61446  -0.61440  -0.61440
 Alpha virt. eigenvalues --    0.16589   0.16589   0.16747   0.16747   0.37036
 Alpha virt. eigenvalues --    0.46929   0.54169   0.56087   0.56087   0.56325
 Alpha virt. eigenvalues --    0.56325   0.60768   0.67333   0.67638   0.72949

 Mulliken charges:
               1
     1  N    0.001450
     2  N   -0.001450
     3  N   -0.001450
     4  N    0.001450
 Sum of Mulliken charges =   0.00000

 Dipole moment (field-independent basis, Debye):
    X=              0.0000    Y=             -0.0000    Z=             -0.0000  Tot=              0.0000
 Quadrupole moment (field-independent basis, Debye-Ang):
   XX=            -20.4978   YY=            -20.4978   ZZ=            -23.3872
   XY=              0.0000   XZ=              0.0000   YZ=             -0.0000

 P4SDQ=-218.7148442\CCSD=-218.7105167\CCSD(T)=-218.7469195\RMSD=9.838e-
 Normal termination of Gaussian 16 at Fri Feb  9 20:04:45 2024.
