 Gaussian 16, Revision A.03,
 Gaussian 16:  ES64L-G16RevA.03 25-Dec-2016

 ------------------
 #p CCSD(T)/cc-pVTZ
 ------------------

 ---------
 N2_N2_162
 ---------
 Symbolic Z-matrix:
 Charge =  0 Multiplicity = 1

                         Standard orientation:
 ---------------------------------------------------------------------
 Center     Atomic      Atomic             Coordinates (Angstroms)
 Number     Number       Type             X           Y           Z
 ---------------------------------------------------------------------
      1          7           0        0.000000    0.000000    2.670000
      2          7           0        0.000000    0.000000    1.580000
      3          7           0        0.000000    0.000000   -1.580000
      4          7           0        0.000000    0.000000   -2.670000
 ---------------------------------------------------------------------

 SCF Done:  E(RHF) =  -217.968183063     A.U. after   10 cycles
 E2 =    -0.7440947353D+00 EUMP2 =    -0.21871227779796D+03
 CCSD(T)
 CCSD(T)= -0.21874620339D+03

 The electronic state is 1-SGG.
 Alpha  occ. eigenvalues --  -15.67585 -15.67585 -15.67213 -15.67213  -1.47277
 Alpha  occ. eigenvalues --   -1.47255  -0.77825  -0.76680  -0.63816  -0.62161
 Alpha  occ. eigenvalues --   -0.61347  -0.61347  -0.61216  -0.61216
 Alpha virt. eigenvalues --    0.15891   0.15891   0.17715   0.17715   0.42150
 Alpha virt. eigenvalues --    0.46411   0.52467   0.54656   0.54656   0.57621
 Alpha virt. eigenvalues --    0.57621   0.66616   0.67202   0.70291   0.70291

 Mulliken charges:
               1
     1  N    0.004495
     2  N   -0.004495
     3  N   -0.004495
     4  N    0.004495
 Sum of Mulliken charges =  -0.00000

 Dipole moment (field-independent basis, Debye):
    X=              0.0000    Y=              0.0000    Z=              0.0000  Tot=              0.0000
 Quadrupole moment (field-independent basis, Debye-Ang):
   XX=            -20.5021   YY=            -20.5021   ZZ=            -23.6061
   XY=              0.0000   XZ=              0.0000   YZ=             -0.0000

 P4SDQ=-218.7140971\CCSD=-218.7096943\CCSD(T)=-218.7462034\RMSD=7.688e-
 Normal termination of Gaussian 16 at Fri Feb  9 19:11:17 2024.
