 Gaussian 16, Revision A.03,
 Gaussian 16:  ES64L-G16RevA.03 25-Dec-2016

 ------------------
 #p CCSD(T)/cc-pVTZ
 ------------------

 --------
 N2_N2_95
 --------
 Symbolic Z-matrix:
 Charge =  0 Multiplicity = 1

                         Standard orientation:
 ---------------------------------------------------------------------
 Center     Atomic      Atomic             Coordinates (Angstroms)
 Number     Number       Type             X           Y           Z
 ---------------------------------------------------------------------
      1          7           0       -0.817500   -1.392500    0.000000
      2          7           0        0.272500   -1.392500    0.000000
      3          7           0        0.272500    0.847500    0.000000
      4          7           0        0.272500    1.937500    0.000000
 ---------------------------------------------------------------------

 SCF Done:  E(RHF) =  -217.935729697     A.U. after   13 cycles
 E2 =    -0.7519030631D+00 EUMP2 =    -0.21868763276009D+03
 CCSD(T)
 CCSD(T)= -0.21872035395D+03

 The electronic state is 1-A'.
 Alpha  occ. eigenvalues --  -15.67787 -15.66848 -15.66682 -15.66029  -1.47756
 Alpha  occ. eigenvalues --   -1.46527  -0.80338  -0.76219  -0.66978  -0.62400
 Alpha  occ. eigenvalues --   -0.62244  -0.61413  -0.60146  -0.55655
 Alpha virt. eigenvalues --    0.13987   0.15532   0.17923   0.20486   0.42040
 Alpha virt. eigenvalues --    0.45435   0.52912   0.55594   0.56258   0.57265
 Alpha virt. eigenvalues --    0.60569   0.66297   0.69355   0.73309   0.75228

 Mulliken charges:
               1
     1  N   -0.021935
     2  N    0.021447
     3  N   -0.000983
     4  N    0.001471
 Sum of Mulliken charges =   0.00000

 Dipole moment (field-independent basis, Debye):
    X=              0.1197    Y=              0.1433    Z=              0.0000  Tot=              0.1867
 Quadrupole moment (field-independent basis, Debye-Ang):
   XX=            -21.9753   YY=            -22.4706   ZZ=            -20.4565
   XY=             -0.1820   XZ=              0.0000   YZ=              0.0000

 DQ=-218.6874234\CCSD=-218.682953\CCSD(T)=-218.720354\RMSD=4.093e-09\PG
 Normal termination of Gaussian 16 at Fri Feb  9 18:35:14 2024.
