 Gaussian 16, Revision A.03,
 Gaussian 16:  ES64L-G16RevA.03 25-Dec-2016

 ------------------
 #p CCSD(T)/cc-pVTZ
 ------------------

 ---------
 N2_N2_211
 ---------
 Symbolic Z-matrix:
 Charge =  0 Multiplicity = 1

                         Standard orientation:
 ---------------------------------------------------------------------
 Center     Atomic      Atomic             Coordinates (Angstroms)
 Number     Number       Type             X           Y           Z
 ---------------------------------------------------------------------
      1          7           0        0.578060   -2.750560   -0.000000
      2          7           0       -0.192687   -1.979813   -0.000000
      3          7           0       -0.192687    1.820187    0.000000
      4          7           0       -0.192687    2.910186    0.000000
 ---------------------------------------------------------------------

 SCF Done:  E(RHF) =  -217.969524373     A.U. after   11 cycles
 E2 =    -0.7435943127D+00 EUMP2 =    -0.21871311868582D+03
 CCSD(T)
 CCSD(T)= -0.21874709950D+03

 The electronic state is 1-A'.
 Alpha  occ. eigenvalues --  -15.67843 -15.67729 -15.67472 -15.67358  -1.47481
 Alpha  occ. eigenvalues --   -1.47367  -0.77533  -0.77242  -0.63412  -0.62987
 Alpha  occ. eigenvalues --   -0.61495  -0.61493  -0.61378  -0.61363
 Alpha virt. eigenvalues --    0.16358   0.16447   0.16746   0.16974   0.37713
 Alpha virt. eigenvalues --    0.46056   0.52707   0.55326   0.55580   0.56756
 Alpha virt. eigenvalues --    0.56996   0.62962   0.67135   0.68635   0.71800

 Mulliken charges:
               1
     1  N    0.002492
     2  N   -0.002457
     3  N   -0.005500
     4  N    0.005465
 Sum of Mulliken charges =   0.00000

 Dipole moment (field-independent basis, Debye):
    X=             -0.0123    Y=              0.0102    Z=              0.0000  Tot=              0.0160
 Quadrupole moment (field-independent basis, Debye-Ang):
   XX=            -21.1989   YY=            -22.6885   ZZ=            -20.4980
   XY=              0.7071   XZ=              0.0000   YZ=             -0.0000

 P4DQ=-218.7041955\MP4SDQ=-218.7150033\CCSD=-218.7106625\CCSD(T)=-218.7
 Normal termination of Gaussian 16 at Fri Feb  9 19:36:21 2024.
