 Gaussian 16, Revision A.03,
 Gaussian 16:  ES64L-G16RevA.03 25-Dec-2016

 ------------------
 #p CCSD(T)/cc-pVTZ
 ------------------

 ---------
 N2_N2_282
 ---------
 Symbolic Z-matrix:
 Charge =  0 Multiplicity = 1

                         Standard orientation:
 ---------------------------------------------------------------------
 Center     Atomic      Atomic             Coordinates (Angstroms)
 Number     Number       Type             X           Y           Z
 ---------------------------------------------------------------------
      1          7           0        0.000000    0.000000    3.470000
      2          7           0        0.000000    0.000000    2.380000
      3          7           0        0.000000    0.000000   -2.380000
      4          7           0        0.000000    0.000000   -3.470000
 ---------------------------------------------------------------------

 SCF Done:  E(RHF) =  -217.969567583     A.U. after    9 cycles
 E2 =    -0.7432932170D+00 EUMP2 =    -0.21871286080026D+03
 CCSD(T)
 CCSD(T)= -0.21874689102D+03

 The electronic state is 1-SGG.
 Alpha  occ. eigenvalues --  -15.67806 -15.67806 -15.67435 -15.67435  -1.47443
 Alpha  occ. eigenvalues --   -1.47443  -0.77423  -0.77386  -0.63250  -0.63181
 Alpha  occ. eigenvalues --   -0.61455  -0.61455  -0.61451  -0.61451
 Alpha virt. eigenvalues --    0.16612   0.16612   0.16702   0.16702   0.38466
 Alpha virt. eigenvalues --    0.46104   0.54675   0.56133   0.56133   0.56264
 Alpha virt. eigenvalues --    0.56264   0.58882   0.67350   0.67492   0.73141

 Mulliken charges:
               1
     1  N    0.000424
     2  N   -0.000424
     3  N   -0.000424
     4  N    0.000424
 Sum of Mulliken charges =  -0.00000

 Dipole moment (field-independent basis, Debye):
    X=              0.0000    Y=             -0.0000    Z=             -0.0000  Tot=              0.0000
 Quadrupole moment (field-independent basis, Debye-Ang):
   XX=            -20.4974   YY=            -20.4974   ZZ=            -23.3759
   XY=              0.0000   XZ=              0.0000   YZ=             -0.0000

 4SDQ=-218.7148169\CCSD=-218.7104935\CCSD(T)=-218.746891\RMSD=9.786e-09
 Normal termination of Gaussian 16 at Fri Feb  9 20:13:59 2024.
