 Gaussian 16, Revision A.03,
 Gaussian 16:  ES64L-G16RevA.03 25-Dec-2016

 ------------------
 #p CCSD(T)/cc-pVTZ
 ------------------

 ---------
 N2_N2_253
 ---------
 Symbolic Z-matrix:
 Charge =  0 Multiplicity = 1

                         Standard orientation:
 ---------------------------------------------------------------------
 Center     Atomic      Atomic             Coordinates (Angstroms)
 Number     Number       Type             X           Y           Z
 ---------------------------------------------------------------------
      1          7           0        0.578060   -3.030560    0.000000
      2          7           0       -0.192687   -2.259814    0.000000
      3          7           0       -0.192687    2.100187   -0.000000
      4          7           0       -0.192687    3.190186   -0.000000
 ---------------------------------------------------------------------

 SCF Done:  E(RHF) =  -217.969599868     A.U. after   11 cycles
 E2 =    -0.7433744641D+00 EUMP2 =    -0.21871297433235D+03
 CCSD(T)
 CCSD(T)= -0.21874698881D+03

 The electronic state is 1-A'.
 Alpha  occ. eigenvalues --  -15.67858 -15.67782 -15.67488 -15.67411  -1.47493
 Alpha  occ. eigenvalues --   -1.47417  -0.77475  -0.77364  -0.63308  -0.63155
 Alpha  occ. eigenvalues --   -0.61504  -0.61504  -0.61428  -0.61423
 Alpha virt. eigenvalues --    0.16531   0.16548   0.16655   0.16752   0.38454
 Alpha virt. eigenvalues --    0.45627   0.53859   0.55915   0.55995   0.56367
 Alpha virt. eigenvalues --    0.56438   0.60039   0.67241   0.67700   0.72770

 Mulliken charges:
               1
     1  N    0.000203
     2  N   -0.000144
     3  N   -0.001458
     4  N    0.001400
 Sum of Mulliken charges =  -0.00000

 Dipole moment (field-independent basis, Debye):
    X=             -0.0072    Y=              0.0054    Z=             -0.0000  Tot=              0.0090
 Quadrupole moment (field-independent basis, Debye-Ang):
   XX=            -21.1965   YY=            -22.6515   ZZ=            -20.4973
   XY=              0.7032   XZ=              0.0000   YZ=             -0.0000

 P4DQ=-218.7041046\MP4SDQ=-218.7149069\CCSD=-218.7105814\CCSD(T)=-218.7
 Normal termination of Gaussian 16 at Fri Feb  9 19:57:54 2024.
