 Gaussian 16, Revision A.03,
 Gaussian 16:  ES64L-G16RevA.03 25-Dec-2016

 ------------------
 #p CCSD(T)/cc-pVTZ
 ------------------

 --------
 N2_N2_64
 --------
 Symbolic Z-matrix:
 Charge =  0 Multiplicity = 1

                         Standard orientation:
 ---------------------------------------------------------------------
 Center     Atomic      Atomic             Coordinates (Angstroms)
 Number     Number       Type             X           Y           Z
 ---------------------------------------------------------------------
      1          7           0        0.578060   -1.770560    0.000000
      2          7           0       -0.192687   -0.999813    0.000000
      3          7           0       -0.192687    0.840186   -0.000000
      4          7           0       -0.192687    1.930187   -0.000000
 ---------------------------------------------------------------------

 SCF Done:  E(RHF) =  -217.865671839     A.U. after   14 cycles
 E2 =    -0.7583655646D+00 EUMP2 =    -0.21862403740372D+03
 CCSD(T)
 CCSD(T)= -0.21865592830D+03

 The electronic state is 1-A'.
 Alpha  occ. eigenvalues --  -15.67997 -15.66365 -15.65022 -15.64615  -1.47992
 Alpha  occ. eigenvalues --   -1.45675  -0.88543  -0.72980  -0.67290  -0.63065
 Alpha  occ. eigenvalues --   -0.62875  -0.59681  -0.59092  -0.49634
 Alpha virt. eigenvalues --    0.12811   0.15167   0.21125   0.21747   0.44416
 Alpha virt. eigenvalues --    0.46358   0.52376   0.53719   0.60382   0.60984
 Alpha virt. eigenvalues --    0.62928   0.64213   0.67800   0.74280   0.81514

 Mulliken charges:
               1
     1  N   -0.038741
     2  N    0.004810
     3  N    0.018445
     4  N    0.015486
 Sum of Mulliken charges =  -0.00000

 Dipole moment (field-independent basis, Debye):
    X=             -0.1787    Y=              0.5966    Z=             -0.0000  Tot=              0.6228
 Quadrupole moment (field-independent basis, Debye-Ang):
   XX=            -21.4184   YY=            -23.8285   ZZ=            -20.4022
   XY=              0.7975   XZ=             -0.0000   YZ=              0.0000

 4DQ=-218.6119228\MP4SDQ=-218.6230419\CCSD=-218.6175769\CCSD(T)=-218.65
 Normal termination of Gaussian 16 at Fri Feb  9 18:18:45 2024.
