 Gaussian 16, Revision A.03,
 Gaussian 16:  ES64L-G16RevA.03 25-Dec-2016

 ------------------
 #p CCSD(T)/cc-pVTZ
 ------------------

 --------
 N2_N2_78
 --------
 Symbolic Z-matrix:
 Charge =  0 Multiplicity = 1

                         Standard orientation:
 ---------------------------------------------------------------------
 Center     Atomic      Atomic             Coordinates (Angstroms)
 Number     Number       Type             X           Y           Z
 ---------------------------------------------------------------------
      1          7           0        0.000000    0.000000    2.110000
      2          7           0        0.000000    0.000000    1.020000
      3          7           0        0.000000    0.000000   -1.020000
      4          7           0        0.000000    0.000000   -2.110000
 ---------------------------------------------------------------------

 SCF Done:  E(RHF) =  -217.903532359     A.U. after   10 cycles
 E2 =    -0.7519944735D+00 EUMP2 =    -0.21865552683250D+03
 CCSD(T)
 CCSD(T)= -0.21868852478D+03

 The electronic state is 1-SGG.
 Alpha  occ. eigenvalues --  -15.66505 -15.66505 -15.65012 -15.65010  -1.46666
 Alpha  occ. eigenvalues --   -1.46161  -0.84269  -0.73279  -0.66485  -0.61424
 Alpha  occ. eigenvalues --   -0.61424  -0.59691  -0.59691  -0.53780
 Alpha virt. eigenvalues --    0.13701   0.13701   0.21394   0.21394   0.44374
 Alpha virt. eigenvalues --    0.46336   0.54091   0.54091   0.60145   0.60145
 Alpha virt. eigenvalues --    0.64947   0.66970   0.72654   0.72654   0.77288

 Mulliken charges:
               1
     1  N   -0.005894
     2  N    0.005894
     3  N    0.005894
     4  N   -0.005894
 Sum of Mulliken charges =  -0.00000

 Dipole moment (field-independent basis, Debye):
    X=              0.0000    Y=             -0.0000    Z=             -0.0000  Tot=              0.0000
 Quadrupole moment (field-independent basis, Debye-Ang):
   XX=            -20.4872   YY=            -20.4872   ZZ=            -24.4092
   XY=              0.0000   XZ=              0.0000   YZ=             -0.0000

 4SDQ=-218.6561395\CCSD=-218.6510831\CCSD(T)=-218.6885248\RMSD=1.019e-0
 Normal termination of Gaussian 16 at Fri Feb  9 18:26:08 2024.
