 Gaussian 16, Revision A.03,
 Gaussian 16:  ES64L-G16RevA.03 25-Dec-2016

 ------------------
 #p CCSD(T)/cc-pVTZ
 ------------------

 ---------
 N2_N2_171
 ---------
 Symbolic Z-matrix:
 Charge =  0 Multiplicity = 1

                         Standard orientation:
 ---------------------------------------------------------------------
 Center     Atomic      Atomic             Coordinates (Angstroms)
 Number     Number       Type             X           Y           Z
 ---------------------------------------------------------------------
      1          7           0        0.000000    0.000000    2.730000
      2          7           0        0.000000    0.000000    1.640000
      3          7           0        0.000000    0.000000   -1.640000
      4          7           0        0.000000    0.000000   -2.730000
 ---------------------------------------------------------------------

 SCF Done:  E(RHF) =  -217.968647318     A.U. after   10 cycles
 E2 =    -0.7439504801D+00 EUMP2 =    -0.21871259779841D+03
 CCSD(T)
 CCSD(T)= -0.21874654150D+03

 The electronic state is 1-SGG.
 Alpha  occ. eigenvalues --  -15.67627 -15.67627 -15.67256 -15.67256  -1.47304
 Alpha  occ. eigenvalues --   -1.47288  -0.77714  -0.76820  -0.63690  -0.62369
 Alpha  occ. eigenvalues --   -0.61360  -0.61360  -0.61260  -0.61260
 Alpha virt. eigenvalues --    0.16014   0.16014   0.17546   0.17546   0.40521
 Alpha virt. eigenvalues --    0.46693   0.52390   0.54883   0.54883   0.57423
 Alpha virt. eigenvalues --    0.57423   0.66603   0.67219   0.70496   0.70496

 Mulliken charges:
               1
     1  N    0.005979
     2  N   -0.005979
     3  N   -0.005979
     4  N    0.005979
 Sum of Mulliken charges =  -0.00000

 Dipole moment (field-independent basis, Debye):
    X=              0.0000    Y=             -0.0000    Z=             -0.0000  Tot=              0.0000
 Quadrupole moment (field-independent basis, Debye-Ang):
   XX=            -20.5013   YY=            -20.5013   ZZ=            -23.5673
   XY=              0.0000   XZ=              0.0000   YZ=             -0.0000

 P4SDQ=-218.7144408\CCSD=-218.7100525\CCSD(T)=-218.7465415\RMSD=7.482e-
 Normal termination of Gaussian 16 at Fri Feb  9 19:15:53 2024.
