 Gaussian 16, Revision A.03,
 Gaussian 16:  ES64L-G16RevA.03 25-Dec-2016

 ------------------
 #p CCSD(T)/cc-pVTZ
 ------------------

 ---------
 N2_N2_118
 ---------
 Symbolic Z-matrix:
 Charge =  0 Multiplicity = 1

                         Standard orientation:
 ---------------------------------------------------------------------
 Center     Atomic      Atomic             Coordinates (Angstroms)
 Number     Number       Type             X           Y           Z
 ---------------------------------------------------------------------
      1          7           0        0.578060   -2.130560   -0.000000
      2          7           0       -0.192687   -1.359813   -0.000000
      3          7           0       -0.192687    1.200186    0.000000
      4          7           0       -0.192687    2.290187    0.000000
 ---------------------------------------------------------------------

 SCF Done:  E(RHF) =  -217.960293286     A.U. after   12 cycles
 E2 =    -0.7460836675D+00 EUMP2 =    -0.21870637695305D+03
 CCSD(T)
 CCSD(T)= -0.21873999326D+03

 The electronic state is 1-A'.
 Alpha  occ. eigenvalues --  -15.67588 -15.67124 -15.67119 -15.66744  -1.47353
 Alpha  occ. eigenvalues --   -1.46925  -0.79256  -0.75715  -0.65013  -0.61861
 Alpha  occ. eigenvalues --   -0.61527  -0.61199  -0.60830  -0.59630
 Alpha virt. eigenvalues --    0.15088   0.16098   0.18088   0.18672   0.44753
 Alpha virt. eigenvalues --    0.46018   0.52490   0.53491   0.57752   0.58953
 Alpha virt. eigenvalues --    0.60897   0.63679   0.66746   0.70998   0.75401

 Mulliken charges:
               1
     1  N    0.003678
     2  N   -0.005420
     3  N    0.004453
     4  N   -0.002712
 Sum of Mulliken charges =   0.00000

 Dipole moment (field-independent basis, Debye):
    X=             -0.0549    Y=              0.0758    Z=              0.0000  Tot=              0.0936
 Quadrupole moment (field-independent basis, Debye-Ang):
   XX=            -21.2323   YY=            -23.0736   ZZ=            -20.4975
   XY=              0.7354   XZ=             -0.0000   YZ=             -0.0000

 =-218.6969236\MP4SDQ=-218.7077477\CCSD=-218.7032315\CCSD(T)=-218.73999
 Normal termination of Gaussian 16 at Fri Feb  9 18:47:15 2024.
