 Gaussian 16, Revision A.03,
 Gaussian 16:  ES64L-G16RevA.03 25-Dec-2016

 ------------------
 #p CCSD(T)/cc-pVTZ
 ------------------

 ---------
 N2_N2_186
 ---------
 Symbolic Z-matrix:
 Charge =  0 Multiplicity = 1

                         Standard orientation:
 ---------------------------------------------------------------------
 Center     Atomic      Atomic             Coordinates (Angstroms)
 Number     Number       Type             X           Y           Z
 ---------------------------------------------------------------------
      1          7           0        0.000000    0.000000    2.830000
      2          7           0        0.000000    0.000000    1.740000
      3          7           0        0.000000    0.000000   -1.740000
      4          7           0        0.000000    0.000000   -2.830000
 ---------------------------------------------------------------------

 SCF Done:  E(RHF) =  -217.969099256     A.U. after   10 cycles
 E2 =    -0.7437666368D+00 EUMP2 =    -0.21871286589252D+03
 CCSD(T)
 CCSD(T)= -0.21874683199D+03

 The electronic state is 1-SGG.
 Alpha  occ. eigenvalues --  -15.67680 -15.67680 -15.67309 -15.67309  -1.47340
 Alpha  occ. eigenvalues --   -1.47331  -0.77589  -0.76998  -0.63533  -0.62629
 Alpha  occ. eigenvalues --   -0.61380  -0.61380  -0.61316  -0.61316
 Alpha virt. eigenvalues --    0.16185   0.16185   0.17315   0.17315   0.38206
 Alpha virt. eigenvalues --    0.47150   0.52481   0.55232   0.55232   0.57129
 Alpha virt. eigenvalues --    0.57129   0.66568   0.67242   0.70933   0.70933

 Mulliken charges:
               1
     1  N    0.007361
     2  N   -0.007361
     3  N   -0.007361
     4  N    0.007361
 Sum of Mulliken charges =  -0.00000

 Dipole moment (field-independent basis, Debye):
    X=              0.0000    Y=             -0.0000    Z=             -0.0000  Tot=              0.0000
 Quadrupole moment (field-independent basis, Debye-Ang):
   XX=            -20.5004   YY=            -20.5004   ZZ=            -23.5151
   XY=              0.0000   XZ=              0.0000   YZ=             -0.0000

 SDQ=-218.7147387\CCSD=-218.7103688\CCSD(T)=-218.746832\RMSD=7.156e-10\
 Normal termination of Gaussian 16 at Fri Feb  9 19:23:28 2024.
