 Gaussian 16, Revision A.03,
 Gaussian 16:  ES64L-G16RevA.03 25-Dec-2016

 ------------------
 #p CCSD(T)/cc-pVTZ
 ------------------

 --------
 N2_N2_48
 --------
 Symbolic Z-matrix:
 Charge =  0 Multiplicity = 1

                         Standard orientation:
 ---------------------------------------------------------------------
 Center     Atomic      Atomic             Coordinates (Angstroms)
 Number     Number       Type             X           Y           Z
 ---------------------------------------------------------------------
      1          7           0        0.000000    0.000000    1.910000
      2          7           0        0.000000    0.000000    0.820000
      3          7           0        0.000000    0.000000   -0.820000
      4          7           0        0.000000    0.000000   -1.910000
 ---------------------------------------------------------------------

 SCF Done:  E(RHF) =  -217.725479003     A.U. after   10 cycles
 E2 =    -0.7692151839D+00 EUMP2 =    -0.21849469418657D+03
 CCSD(T)
 CCSD(T)= -0.21852553022D+03

 The electronic state is 1-SGG.
 Alpha  occ. eigenvalues --  -15.65805 -15.65804 -15.62470 -15.62469  -1.46667
 Alpha  occ. eigenvalues --   -1.45029  -0.94973  -0.71456  -0.67430  -0.62517
 Alpha  occ. eigenvalues --   -0.62517  -0.57889  -0.57889  -0.40318
 Alpha virt. eigenvalues --    0.11727   0.11727   0.24663   0.24663   0.43777
 Alpha virt. eigenvalues --    0.45259   0.54628   0.54628   0.60276   0.61317
 Alpha virt. eigenvalues --    0.61317   0.66388   0.74974   0.74974   0.81112

 Mulliken charges:
               1
     1  N    0.047086
     2  N   -0.047086
     3  N   -0.047086
     4  N    0.047086
 Sum of Mulliken charges =  -0.00000

 Dipole moment (field-independent basis, Debye):
    X=              0.0000    Y=              0.0000    Z=              0.0000  Tot=              0.0000
 Quadrupole moment (field-independent basis, Debye-Ang):
   XX=            -20.4485   YY=            -20.4485   ZZ=            -24.6088
   XY=              0.0000   XZ=              0.0000   YZ=             -0.0000

 SDQ=-218.4924323\CCSD=-218.4858879\CCSD(T)=-218.5255302\RMSD=7.592e-09
 Normal termination of Gaussian 16 at Fri Feb  9 18:09:59 2024.
