 Gaussian 16, Revision A.03,
 Gaussian 16:  ES64L-G16RevA.03 25-Dec-2016

 ------------------
 #p CCSD(T)/cc-pVTZ
 ------------------

 ---------
 N2_N2_133
 ---------
 Symbolic Z-matrix:
 Charge =  0 Multiplicity = 1

                         Standard orientation:
 ---------------------------------------------------------------------
 Center     Atomic      Atomic             Coordinates (Angstroms)
 Number     Number       Type             X           Y           Z
 ---------------------------------------------------------------------
      1          7           0        0.578060   -2.230560   -0.000000
      2          7           0       -0.192687   -1.459813   -0.000000
      3          7           0       -0.192687    1.300187    0.000000
      4          7           0       -0.192687    2.390186    0.000000
 ---------------------------------------------------------------------

 SCF Done:  E(RHF) =  -217.965059462     A.U. after   12 cycles
 E2 =    -0.7451552915D+00 EUMP2 =    -0.21871021475329D+03
 CCSD(T)
 CCSD(T)= -0.21874397162D+03

 The electronic state is 1-A'.
 Alpha  occ. eigenvalues --  -15.67667 -15.67338 -15.67266 -15.66966  -1.47387
 Alpha  occ. eigenvalues --   -1.47069  -0.78551  -0.76201  -0.64504  -0.61986
 Alpha  occ. eigenvalues --   -0.61492  -0.61358  -0.61020  -0.60449
 Alpha virt. eigenvalues --    0.15412   0.16183   0.17698   0.18202   0.44091
 Alpha virt. eigenvalues --    0.46182   0.52809   0.53719   0.55530   0.58486
 Alpha virt. eigenvalues --    0.59715   0.63712   0.66889   0.70598   0.73017

 Mulliken charges:
               1
     1  N    0.005291
     2  N   -0.005933
     3  N    0.000569
     4  N    0.000072
 Sum of Mulliken charges =  -0.00000

 Dipole moment (field-independent basis, Debye):
    X=             -0.0412    Y=              0.0499    Z=             -0.0000  Tot=              0.0647
 Quadrupole moment (field-independent basis, Debye-Ang):
   XX=            -21.2209   YY=            -22.9530   ZZ=            -20.4999
   XY=              0.7262   XZ=             -0.0000   YZ=              0.0000

 4DQ=-218.7009575\MP4SDQ=-218.7117776\CCSD=-218.7073257\CCSD(T)=-218.74
 Normal termination of Gaussian 16 at Fri Feb  9 18:55:05 2024.
