 Gaussian 16, Revision A.03,
 Gaussian 16:  ES64L-G16RevA.03 25-Dec-2016

 ------------------
 #p CCSD(T)/cc-pVTZ
 ------------------

 --------
 N2_N2_43
 --------
 Symbolic Z-matrix:
 Charge =  0 Multiplicity = 1

                         Standard orientation:
 ---------------------------------------------------------------------
 Center     Atomic      Atomic             Coordinates (Angstroms)
 Number     Number       Type             X           Y           Z
 ---------------------------------------------------------------------
      1          7           0        0.578060   -1.630560    0.000000
      2          7           0       -0.192687   -0.859814    0.000000
      3          7           0       -0.192687    0.700187   -0.000000
      4          7           0       -0.192687    1.790186   -0.000000
 ---------------------------------------------------------------------

 SCF Done:  E(RHF) =  -217.740500921     A.U. after   15 cycles
 E2 =    -0.7695074861D+00 EUMP2 =    -0.21851000840674D+03
 CCSD(T)
 CCSD(T)= -0.21854209801D+03

 The electronic state is 1-A'.
 Alpha  occ. eigenvalues --  -15.70861 -15.69677 -15.64365 -15.61065  -1.51120
 Alpha  occ. eigenvalues --   -1.44559  -0.99344  -0.73402  -0.67793  -0.66537
 Alpha  occ. eigenvalues --   -0.65395  -0.58671  -0.57454  -0.39560
 Alpha virt. eigenvalues --    0.10209   0.13305   0.23836   0.24529   0.42640
 Alpha virt. eigenvalues --    0.47544   0.51972   0.53002   0.59882   0.60552
 Alpha virt. eigenvalues --    0.62001   0.64543   0.69545   0.75045   0.79796

 Mulliken charges:
               1
     1  N   -0.128239
     2  N   -0.018199
     3  N    0.090467
     4  N    0.055971
 Sum of Mulliken charges =  -0.00000

 Dipole moment (field-independent basis, Debye):
    X=             -0.3574    Y=              1.8358    Z=             -0.0000  Tot=              1.8703
 Quadrupole moment (field-independent basis, Debye-Ang):
   XX=            -21.8996   YY=            -24.4582   ZZ=            -20.2087
   XY=              0.8532   XZ=              0.0000   YZ=              0.0000

 4DQ=-218.4952938\MP4SDQ=-218.5077736\CCSD=-218.5013654\CCSD(T)=-218.54
 Normal termination of Gaussian 16 at Fri Feb  9 18:07:01 2024.
