 Gaussian 16, Revision A.03,
 Gaussian 16:  ES64L-G16RevA.03 25-Dec-2016

 ------------------
 #p CCSD(T)/cc-pVTZ
 ------------------

 --------
 N2_N2_35
 --------
 Symbolic Z-matrix:
 Charge =  0 Multiplicity = 1

                         Standard orientation:
 ---------------------------------------------------------------------
 Center     Atomic      Atomic             Coordinates (Angstroms)
 Number     Number       Type             X           Y           Z
 ---------------------------------------------------------------------
      1          7           0       -0.817500   -0.992500    0.000000
      2          7           0        0.272500   -0.992500    0.000000
      3          7           0        0.272500    0.447500    0.000000
      4          7           0        0.272500    1.537500    0.000000
 ---------------------------------------------------------------------

 SCF Done:  E(RHF) =  -217.652196816     A.U. after   17 cycles
 E2 =    -0.7582774138D+00 EUMP2 =    -0.21841047422949D+03
 CCSD(T)
 CCSD(T)= -0.21845100739D+03

 The electronic state is 1-A'.
 Alpha  occ. eigenvalues --  -15.74138 -15.71336 -15.69320 -15.56845  -1.56729
 Alpha  occ. eigenvalues --   -1.47579  -0.99627  -0.77945  -0.72136  -0.71618
 Alpha  occ. eigenvalues --   -0.64058  -0.59539  -0.57284  -0.35586
 Alpha virt. eigenvalues --    0.11375   0.13700   0.20236   0.25715   0.41107
 Alpha virt. eigenvalues --    0.42690   0.49732   0.52088   0.56204   0.58588
 Alpha virt. eigenvalues --    0.61033   0.65957   0.72181   0.73548   0.75719

 Mulliken charges:
               1
     1  N   -0.278509
     2  N    0.085350
     3  N    0.187461
     4  N    0.005698
 Sum of Mulliken charges =  -0.00000

 Dipole moment (field-independent basis, Debye):
    X=              1.2913    Y=              1.5619    Z=              0.0000  Tot=              2.0266
 Quadrupole moment (field-independent basis, Debye-Ang):
   XX=            -23.1933   YY=            -24.1289   ZZ=            -19.8632
   XY=             -1.0162   XZ=              0.0000   YZ=              0.0000

 SDQ=-218.412519\CCSD=-218.4095114\CCSD(T)=-218.4510074\RMSD=1.734e-09\
 Normal termination of Gaussian 16 at Fri Feb  9 18:00:51 2024.
