 Gaussian 16, Revision A.03,
 Gaussian 16:  ES64L-G16RevA.03 25-Dec-2016

 ------------------
 #p CCSD(T)/cc-pVTZ
 ------------------

 ---------
 N2_N2_204
 ---------
 Symbolic Z-matrix:
 Charge =  0 Multiplicity = 1

                         Standard orientation:
 ---------------------------------------------------------------------
 Center     Atomic      Atomic             Coordinates (Angstroms)
 Number     Number       Type             X           Y           Z
 ---------------------------------------------------------------------
      1          7           0        0.000000    0.000000    2.950000
      2          7           0        0.000000    0.000000    1.860000
      3          7           0        0.000000    0.000000   -1.860000
      4          7           0        0.000000    0.000000   -2.950000
 ---------------------------------------------------------------------

 SCF Done:  E(RHF) =  -217.969360851     A.U. after   10 cycles
 E2 =    -0.7436098344D+00 EUMP2 =    -0.21871297068512D+03
 CCSD(T)
 CCSD(T)= -0.21874695529D+03

 The electronic state is 1-SGG.
 Alpha  occ. eigenvalues --  -15.67724 -15.67724 -15.67353 -15.67353  -1.47373
 Alpha  occ. eigenvalues --   -1.47368  -0.77502  -0.77145  -0.63409  -0.62840
 Alpha  occ. eigenvalues --   -0.61400  -0.61400  -0.61363  -0.61363
 Alpha virt. eigenvalues --    0.16343   0.16343   0.17105   0.17105   0.36307
 Alpha virt. eigenvalues --    0.47577   0.52744   0.55569   0.55569   0.56840
 Alpha virt. eigenvalues --    0.56840   0.66439   0.67264   0.71521   0.71521

 Mulliken charges:
               1
     1  N    0.007438
     2  N   -0.007438
     3  N   -0.007438
     4  N    0.007438
 Sum of Mulliken charges =  -0.00000

 Dipole moment (field-independent basis, Debye):
    X=              0.0000    Y=              0.0000    Z=             -0.0000  Tot=              0.0000
 Quadrupole moment (field-independent basis, Debye-Ang):
   XX=            -20.4995   YY=            -20.4995   ZZ=            -23.4683
   XY=              0.0000   XZ=              0.0000   YZ=             -0.0000

 4SDQ=-218.7148685\CCSD=-218.7105142\CCSD(T)=-218.7469553\RMSD=6.824e-1
 Normal termination of Gaussian 16 at Fri Feb  9 19:32:43 2024.
