 Gaussian 16, Revision A.03,
 Gaussian 16:  ES64L-G16RevA.03 25-Dec-2016

 ------------------
 #p CCSD(T)/cc-pVTZ
 ------------------

 --------
 N2_N2_18
 --------
 Symbolic Z-matrix:
 Charge =  0 Multiplicity = 1

                         Standard orientation:
 ---------------------------------------------------------------------
 Center     Atomic      Atomic             Coordinates (Angstroms)
 Number     Number       Type             X           Y           Z
 ---------------------------------------------------------------------
      1          7           0        0.000000    0.000000    1.710000
      2          7           0        0.000000    0.000000    0.620000
      3          7           0        0.000000    0.000000   -0.620000
      4          7           0        0.000000    0.000000   -1.710000
 ---------------------------------------------------------------------

 SCF Done:  E(RHF) =  -217.585992810     A.U. after   11 cycles
 E2 =    -0.7689389321D+00 EUMP2 =    -0.21835493174173D+03
 CCSD(T)
 CCSD(T)= -0.21839362321D+03

 Unable to determine electronic state:  an orbital has unidentified symmetry.
 Alpha  occ. eigenvalues --  -15.77590 -15.77471 -15.64801 -15.64800  -1.57044
 Alpha  occ. eigenvalues --   -1.47507  -1.22516  -0.79063  -0.76585  -0.68346
 Alpha  occ. eigenvalues --   -0.66282  -0.61892  -0.57697  -0.27695
 Alpha virt. eigenvalues --    0.06271   0.20334   0.26650   0.28805   0.44905
 Alpha virt. eigenvalues --    0.45206   0.47056   0.50606   0.51596   0.60258
 Alpha virt. eigenvalues --    0.61526   0.62959   0.71917   0.72965   0.79578

 Mulliken charges:
               1
     1  N   -0.101799
     2  N    0.101799
     3  N    0.101799
     4  N   -0.101799
 Sum of Mulliken charges =  -0.00000

 Dipole moment (field-independent basis, Debye):
    X=             -0.0000    Y=              0.0000    Z=              0.0000  Tot=              0.0000
 Quadrupole moment (field-independent basis, Debye-Ang):
   XX=            -19.2479   YY=            -22.0098   ZZ=            -29.8796
   XY=              0.0000   XZ=              0.0000   YZ=             -0.0000

 8341\CCSD=-218.3493539\CCSD(T)=-218.3936232\RMSD=3.757e-09\PG=D*H [C*(
 Normal termination of Gaussian 16 at Fri Feb  9 17:50:01 2024.
