 Gaussian 16, Revision A.03,
 Gaussian 16:  ES64L-G16RevA.03 25-Dec-2016

 ------------------
 #p CCSD(T)/cc-pVTZ
 ------------------

 ---------
 N2_N2_209
 ---------
 Symbolic Z-matrix:
 Charge =  0 Multiplicity = 1

                         Standard orientation:
 ---------------------------------------------------------------------
 Center     Atomic      Atomic             Coordinates (Angstroms)
 Number     Number       Type             X           Y           Z
 ---------------------------------------------------------------------
      1          7           0       -0.817500   -2.152500    0.000000
      2          7           0        0.272500   -2.152500    0.000000
      3          7           0        0.272500    1.607500    0.000000
      4          7           0        0.272500    2.697500    0.000000
 ---------------------------------------------------------------------

 SCF Done:  E(RHF) =  -217.969660926     A.U. after   12 cycles
 E2 =    -0.7437885995D+00 EUMP2 =    -0.21871344952561D+03
 CCSD(T)
 CCSD(T)= -0.21874740166D+03

 The electronic state is 1-A'.
 Alpha  occ. eigenvalues --  -15.67986 -15.67710 -15.67615 -15.67339  -1.47617
 Alpha  occ. eigenvalues --   -1.47332  -0.77610  -0.77307  -0.63526  -0.63067
 Alpha  occ. eigenvalues --   -0.61631  -0.61628  -0.61349  -0.61268
 Alpha virt. eigenvalues --    0.16001   0.16432   0.16771   0.17190   0.38995
 Alpha virt. eigenvalues --    0.42931   0.51862   0.55185   0.55550   0.56539
 Alpha virt. eigenvalues --    0.57027   0.62445   0.66972   0.69651   0.72901

 Mulliken charges:
               1
     1  N   -0.002337
     2  N    0.002800
     3  N   -0.005035
     4  N    0.004572
 Sum of Mulliken charges =  -0.00000

 Dipole moment (field-independent basis, Debye):
    X=              0.0091    Y=              0.0203    Z=              0.0000  Tot=              0.0222
 Quadrupole moment (field-independent basis, Debye-Ang):
   XX=            -21.8985   YY=            -21.9059   ZZ=            -20.4964
   XY=             -0.0091   XZ=              0.0000   YZ=              0.0000

 DQ=-218.7152591\CCSD=-218.7109412\CCSD(T)=-218.7474017\RMSD=1.763e-09\
 Normal termination of Gaussian 16 at Fri Feb  9 19:35:19 2024.
