 Gaussian 16, Revision A.03,
 Gaussian 16:  ES64L-G16RevA.03 25-Dec-2016

 ------------------
 #p CCSD(T)/cc-pVTZ
 ------------------

 ---------
 N2_N2_182
 ---------
 Symbolic Z-matrix:
 Charge =  0 Multiplicity = 1

                         Standard orientation:
 ---------------------------------------------------------------------
 Center     Atomic      Atomic             Coordinates (Angstroms)
 Number     Number       Type             X           Y           Z
 ---------------------------------------------------------------------
      1          7           0       -0.817500   -1.972500    0.000000
      2          7           0        0.272500   -1.972500    0.000000
      3          7           0        0.272500    1.427500    0.000000
      4          7           0        0.272500    2.517500    0.000000
 ---------------------------------------------------------------------

 SCF Done:  E(RHF) =  -217.969296137     A.U. after   12 cycles
 E2 =    -0.7442551133D+00 EUMP2 =    -0.21871355125004D+03
 CCSD(T)
 CCSD(T)= -0.21874743699D+03

 The electronic state is 1-A'.
 Alpha  occ. eigenvalues --  -15.67998 -15.67633 -15.67626 -15.67261  -1.47636
 Alpha  occ. eigenvalues --   -1.47256  -0.77681  -0.77226  -0.63753  -0.62940
 Alpha  occ. eigenvalues --   -0.61662  -0.61653  -0.61271  -0.61044
 Alpha virt. eigenvalues --    0.15645   0.16346   0.16870   0.17585   0.39927
 Alpha virt. eigenvalues --    0.43156   0.51314   0.54443   0.55203   0.56793
 Alpha virt. eigenvalues --    0.57648   0.61975   0.66819   0.69194   0.72766

 Mulliken charges:
               1
     1  N   -0.004095
     2  N    0.004586
     3  N   -0.007396
     4  N    0.006905
 Sum of Mulliken charges =  -0.00000

 Dipole moment (field-independent basis, Debye):
    X=              0.0153    Y=              0.0334    Z=              0.0000  Tot=              0.0367
 Quadrupole moment (field-independent basis, Debye-Ang):
   XX=            -21.9037   YY=            -21.9519   ZZ=            -20.4959
   XY=             -0.0170   XZ=              0.0000   YZ=              0.0000

 SDQ=-218.7152392\CCSD=-218.7109161\CCSD(T)=-218.747437\RMSD=1.963e-09\
 Normal termination of Gaussian 16 at Fri Feb  9 19:21:26 2024.
