 Gaussian 16, Revision A.03,
 Gaussian 16:  ES64L-G16RevA.03 25-Dec-2016

 ------------------
 #p CCSD(T)/cc-pVTZ
 ------------------

 ---------
 N2_N2_275
 ---------
 Symbolic Z-matrix:
 Charge =  0 Multiplicity = 1

                         Standard orientation:
 ---------------------------------------------------------------------
 Center     Atomic      Atomic             Coordinates (Angstroms)
 Number     Number       Type             X           Y           Z
 ---------------------------------------------------------------------
      1          7           0       -0.817500   -2.592500    0.000000
      2          7           0        0.272500   -2.592500    0.000000
      3          7           0        0.272500    2.047500    0.000000
      4          7           0        0.272500    3.137500    0.000000
 ---------------------------------------------------------------------

 SCF Done:  E(RHF) =  -217.969661937     A.U. after    9 cycles
 E2 =    -0.7433449019D+00 EUMP2 =    -0.21871300683869D+03
 CCSD(T)
 CCSD(T)= -0.21874703056D+03

 The electronic state is 1-A'.
 Alpha  occ. eigenvalues --  -15.67947 -15.67786 -15.67577 -15.67416  -1.47579
 Alpha  occ. eigenvalues --   -1.47416  -0.77552  -0.77389  -0.63371  -0.63200
 Alpha  occ. eigenvalues --   -0.61589  -0.61588  -0.61430  -0.61417
 Alpha virt. eigenvalues --    0.16452   0.16514   0.16674   0.16742   0.41606
 Alpha virt. eigenvalues --    0.42780   0.54109   0.55982   0.56024   0.56212
 Alpha virt. eigenvalues --    0.56307   0.58882   0.67190   0.67721   0.72662

 Mulliken charges:
               1
     1  N   -0.000529
     2  N    0.000643
     3  N   -0.000444
     4  N    0.000330
 Sum of Mulliken charges =  -0.00000

 Dipole moment (field-independent basis, Debye):
    X=              0.0034    Y=              0.0097    Z=              0.0000  Tot=              0.0103
 Quadrupole moment (field-independent basis, Debye-Ang):
   XX=            -21.8942   YY=            -21.8886   ZZ=            -20.4964
   XY=             -0.0037   XZ=              0.0000   YZ=              0.0000

 4SDQ=-218.7149393\CCSD=-218.710627\CCSD(T)=-218.7470306\RMSD=9.319e-09
 Normal termination of Gaussian 16 at Fri Feb  9 20:10:27 2024.
