 Gaussian 16, Revision A.03,
 Gaussian 16:  ES64L-G16RevA.03 25-Dec-2016

 ------------------
 #p CCSD(T)/cc-pVTZ
 ------------------

 --------
 N2_N2_54
 --------
 Symbolic Z-matrix:
 Charge =  0 Multiplicity = 1

                         Standard orientation:
 ---------------------------------------------------------------------
 Center     Atomic      Atomic             Coordinates (Angstroms)
 Number     Number       Type             X           Y           Z
 ---------------------------------------------------------------------
      1          7           0        0.000000    0.000000    1.950000
      2          7           0        0.000000    0.000000    0.860000
      3          7           0        0.000000    0.000000   -0.860000
      4          7           0        0.000000    0.000000   -1.950000
 ---------------------------------------------------------------------

 SCF Done:  E(RHF) =  -217.780568727     A.U. after   10 cycles
 E2 =    -0.7639313589D+00 EUMP2 =    -0.21854450008577D+03
 CCSD(T)
 CCSD(T)= -0.21857598950D+03

 The electronic state is 1-SGG.
 Alpha  occ. eigenvalues --  -15.65943 -15.65943 -15.63015 -15.63014  -1.46577
 Alpha  occ. eigenvalues --   -1.45296  -0.92077  -0.71777  -0.67265  -0.62133
 Alpha  occ. eigenvalues --   -0.62133  -0.58348  -0.58348  -0.44096
 Alpha virt. eigenvalues --    0.12243   0.12243   0.23869   0.23869   0.43928
 Alpha virt. eigenvalues --    0.45493   0.54541   0.54541   0.61078   0.61078
 Alpha virt. eigenvalues --    0.61539   0.66679   0.74575   0.74575   0.81119

 Mulliken charges:
               1
     1  N    0.025281
     2  N   -0.025281
     3  N   -0.025281
     4  N    0.025281
 Sum of Mulliken charges =  -0.00000

 Dipole moment (field-independent basis, Debye):
    X=              0.0000    Y=              0.0000    Z=              0.0000  Tot=              0.0000
 Quadrupole moment (field-independent basis, Debye-Ang):
   XX=            -20.4567   YY=            -20.4567   ZZ=            -24.6120
   XY=              0.0000   XZ=              0.0000   YZ=             -0.0000

 4SDQ=-218.5431612\CCSD=-218.5370792\CCSD(T)=-218.5759895\RMSD=4.828e-0
 Normal termination of Gaussian 16 at Fri Feb  9 18:13:21 2024.
