 Gaussian 16, Revision A.03,
 Gaussian 16:  ES64L-G16RevA.03 25-Dec-2016

 ------------------
 #p CCSD(T)/cc-pVTZ
 ------------------

 ---------
 N2_N2_294
 ---------
 Symbolic Z-matrix:
 Charge =  0 Multiplicity = 1

                         Standard orientation:
 ---------------------------------------------------------------------
 Center     Atomic      Atomic             Coordinates (Angstroms)
 Number     Number       Type             X           Y           Z
 ---------------------------------------------------------------------
      1          7           0        0.000000    0.000000    3.550000
      2          7           0        0.000000    0.000000    2.460000
      3          7           0        0.000000    0.000000   -2.460000
      4          7           0        0.000000    0.000000   -3.550000
 ---------------------------------------------------------------------

 SCF Done:  E(RHF) =  -217.969568505     A.U. after    9 cycles
 E2 =    -0.7432734145D+00 EUMP2 =    -0.21871284191968D+03
 CCSD(T)
 CCSD(T)= -0.21874687630D+03

 The electronic state is 1-SGG.
 Alpha  occ. eigenvalues --  -15.67812 -15.67812 -15.67442 -15.67442  -1.47449
 Alpha  occ. eigenvalues --   -1.47449  -0.77424  -0.77399  -0.63247  -0.63199
 Alpha  occ. eigenvalues --   -0.61461  -0.61461  -0.61458  -0.61458
 Alpha virt. eigenvalues --    0.16620   0.16620   0.16681   0.16681   0.39385
 Alpha virt. eigenvalues --    0.45498   0.54991   0.56151   0.56151   0.56236
 Alpha virt. eigenvalues --    0.56236   0.58022   0.67358   0.67446   0.73225

 Mulliken charges:
               1
     1  N    0.000077
     2  N   -0.000077
     3  N   -0.000077
     4  N    0.000077
 Sum of Mulliken charges =   0.00000

 Dipole moment (field-independent basis, Debye):
    X=              0.0000    Y=              0.0000    Z=             -0.0000  Tot=              0.0000
 Quadrupole moment (field-independent basis, Debye-Ang):
   XX=            -20.4972   YY=            -20.4972   ZZ=            -23.3697
   XY=              0.0000   XZ=              0.0000   YZ=             -0.0000

 P4SDQ=-218.7148026\CCSD=-218.7104813\CCSD(T)=-218.7468763\RMSD=9.770e-
 Normal termination of Gaussian 16 at Fri Feb  9 20:20:10 2024.
