 Gaussian 16, Revision A.03,
 Gaussian 16:  ES64L-G16RevA.03 25-Dec-2016

 ------------------
 #p CCSD(T)/cc-pVTZ
 ------------------

 ---------
 N2_N2_196
 ---------
 Symbolic Z-matrix:
 Charge =  0 Multiplicity = 1

                         Standard orientation:
 ---------------------------------------------------------------------
 Center     Atomic      Atomic             Coordinates (Angstroms)
 Number     Number       Type             X           Y           Z
 ---------------------------------------------------------------------
      1          7           0        0.578060   -2.650560    0.000000
      2          7           0       -0.192687   -1.879813    0.000000
      3          7           0       -0.192687    1.720186   -0.000000
      4          7           0       -0.192687    2.810187   -0.000000
 ---------------------------------------------------------------------

 SCF Done:  E(RHF) =  -217.969414942     A.U. after   12 cycles
 E2 =    -0.7437244326D+00 EUMP2 =    -0.21871313937460D+03
 CCSD(T)
 CCSD(T)= -0.21874710295D+03

 The electronic state is 1-A'.
 Alpha  occ. eigenvalues --  -15.67831 -15.67697 -15.67461 -15.67326  -1.47473
 Alpha  occ. eigenvalues --   -1.47339  -0.77587  -0.77157  -0.63493  -0.62876
 Alpha  occ. eigenvalues --   -0.61490  -0.61486  -0.61348  -0.61321
 Alpha virt. eigenvalues --    0.16251   0.16409   0.16828   0.17107   0.38398
 Alpha virt. eigenvalues --    0.46013   0.52431   0.54963   0.55311   0.56984
 Alpha virt. eigenvalues --    0.57325   0.63458   0.67098   0.69135   0.71362

 Mulliken charges:
               1
     1  N    0.003580
     2  N   -0.003627
     3  N   -0.006973
     4  N    0.007020
 Sum of Mulliken charges =  -0.00000

 Dipole moment (field-independent basis, Debye):
    X=             -0.0151    Y=              0.0133    Z=             -0.0000  Tot=              0.0201
 Quadrupole moment (field-independent basis, Debye-Ang):
   XX=            -21.2005   YY=            -22.7128   ZZ=            -20.4984
   XY=              0.7090   XZ=              0.0000   YZ=              0.0000

 P4DQ=-218.7041874\MP4SDQ=-218.7149978\CCSD=-218.710648\CCSD(T)=-218.74
 Normal termination of Gaussian 16 at Fri Feb  9 19:28:39 2024.
