 Gaussian 16, Revision A.03,
 Gaussian 16:  ES64L-G16RevA.03 25-Dec-2016

 ------------------
 #p CCSD(T)/cc-pVTZ
 ------------------

 -------
 N2_N2_9
 -------
 Symbolic Z-matrix:
 Charge =  0 Multiplicity = 1

                         Standard orientation:
 ---------------------------------------------------------------------
 Center     Atomic      Atomic             Coordinates (Angstroms)
 Number     Number       Type             X           Y           Z
 ---------------------------------------------------------------------
      1          7           0        0.000000    0.000000    1.650000
      2          7           0        0.000000    0.000000    0.560000
      3          7           0        0.000000    0.000000   -0.560000
      4          7           0        0.000000    0.000000   -1.650000
 ---------------------------------------------------------------------

 SCF Done:  E(RHF) =  -217.589663482     A.U. after   11 cycles
 E2 =    -0.7527122370D+00 EUMP2 =    -0.21834237571941D+03
 CCSD(T)
 CCSD(T)= -0.21838165067D+03

 Unable to determine electronic state:  an orbital has unidentified symmetry.
 Alpha  occ. eigenvalues --  -15.76510 -15.76266 -15.63726 -15.63725  -1.61756
 Alpha  occ. eigenvalues --   -1.46860  -1.29176  -0.82902  -0.80659  -0.67521
 Alpha  occ. eigenvalues --   -0.66040  -0.60519  -0.55285  -0.29628
 Alpha virt. eigenvalues --    0.05214   0.24568   0.29618   0.35715   0.44128
 Alpha virt. eigenvalues --    0.45341   0.47989   0.50191   0.50953   0.58928
 Alpha virt. eigenvalues --    0.61921   0.63674   0.71552   0.72607   0.79901

 Mulliken charges:
               1
     1  N   -0.142105
     2  N    0.142105
     3  N    0.142105
     4  N   -0.142105
 Sum of Mulliken charges =  -0.00000

 Dipole moment (field-independent basis, Debye):
    X=             -0.0000    Y=             -0.0000    Z=             -0.0000  Tot=              0.0000
 Quadrupole moment (field-independent basis, Debye-Ang):
   XX=            -21.6737   YY=            -19.0124   ZZ=            -30.2674
   XY=              0.0000   XZ=              0.0000   YZ=             -0.0000

 8195\CCSD=-218.3404534\CCSD(T)=-218.3816507\RMSD=6.516e-09\PG=D*H [C*(
 Normal termination of Gaussian 16 at Fri Feb  9 17:44:52 2024.
