 Gaussian 16, Revision A.03,
 Gaussian 16:  ES64L-G16RevA.03 25-Dec-2016

 ------------------
 #p CCSD(T)/cc-pVTZ
 ------------------

 -------
 N2_N2_7
 -------
 Symbolic Z-matrix:
 Charge =  0 Multiplicity = 1

                         Standard orientation:
 ---------------------------------------------------------------------
 Center     Atomic      Atomic             Coordinates (Angstroms)
 Number     Number       Type             X           Y           Z
 ---------------------------------------------------------------------
      1          7           0        0.578060   -1.390560    0.000000
      2          7           0       -0.192687   -0.619813   -0.000000
      3          7           0       -0.192687    0.460186   -0.000000
      4          7           0       -0.192687    1.550187   -0.000000
 ---------------------------------------------------------------------

 SCF Done:  E(RHF) =  -217.548116599     A.U. after   15 cycles
 E2 =    -0.7545322498D+00 EUMP2 =    -0.21830264884870D+03
 CCSD(T)
 CCSD(T)= -0.21834001563D+03

 The electronic state is 1-A'.
 Alpha  occ. eigenvalues --  -15.80047 -15.69879 -15.69852 -15.58083  -1.66202
 Alpha  occ. eigenvalues --   -1.47950  -1.27048  -0.84083  -0.82773  -0.71578
 Alpha  occ. eigenvalues --   -0.64022  -0.58020  -0.54209  -0.30965
 Alpha virt. eigenvalues --    0.04862   0.13882   0.29115   0.38799   0.41433
 Alpha virt. eigenvalues --    0.49716   0.49958   0.52206   0.52715   0.62531
 Alpha virt. eigenvalues --    0.63918   0.67411   0.71577   0.72448   0.74381

 Mulliken charges:
               1
     1  N   -0.413736
     2  N    0.168640
     3  N    0.382250
     4  N   -0.137153
 Sum of Mulliken charges =   0.00000

 Dipole moment (field-independent basis, Debye):
    X=             -1.1440    Y=              1.7502    Z=             -0.0000  Tot=              2.0909
 Quadrupole moment (field-independent basis, Debye-Ang):
   XX=            -22.5697   YY=            -28.1036   ZZ=            -19.0593
   XY=              1.8277   XZ=             -0.0000   YZ=              0.0000

 DQ=-218.2880713\MP4SDQ=-218.3001041\CCSD=-218.2979912\CCSD(T)=-218.340
 Normal termination of Gaussian 16 at Fri Feb  9 17:43:48 2024.
