 Gaussian 16, Revision A.03,
 Gaussian 16:  ES64L-G16RevA.03 25-Dec-2016

 ------------------
 #p CCSD(T)/cc-pVTZ
 ------------------

 ---------
 N2_N2_137
 ---------
 Symbolic Z-matrix:
 Charge =  0 Multiplicity = 1

                         Standard orientation:
 ---------------------------------------------------------------------
 Center     Atomic      Atomic             Coordinates (Angstroms)
 Number     Number       Type             X           Y           Z
 ---------------------------------------------------------------------
      1          7           0       -0.817500   -1.672500    0.000000
      2          7           0        0.272500   -1.672500    0.000000
      3          7           0        0.272500    1.127500    0.000000
      4          7           0        0.272500    2.217500    0.000000
 ---------------------------------------------------------------------

 SCF Done:  E(RHF) =  -217.964863132     A.U. after   12 cycles
 E2 =    -0.7461039198D+00 EUMP2 =    -0.21871096705157D+03
 CCSD(T)
 CCSD(T)= -0.21874457154D+03

 The electronic state is 1-A'.
 Alpha  occ. eigenvalues --  -15.67951 -15.67531 -15.67326 -15.66943  -1.47657
 Alpha  occ. eigenvalues --   -1.47006  -0.78130  -0.76908  -0.64798  -0.62628
 Alpha  occ. eigenvalues --   -0.61773  -0.61672  -0.60966  -0.59759
 Alpha virt. eigenvalues --    0.14859   0.16071   0.17206   0.18689   0.42012
 Alpha virt. eigenvalues --    0.45572   0.53055   0.53528   0.55350   0.57822
 Alpha virt. eigenvalues --    0.59051   0.59781   0.66388   0.70635   0.72818

 Mulliken charges:
               1
     1  N   -0.007646
     2  N    0.008481
     3  N   -0.003279
     4  N    0.002444
 Sum of Mulliken charges =  -0.00000

 Dipole moment (field-independent basis, Debye):
    X=              0.0396    Y=              0.0723    Z=              0.0000  Tot=              0.0825
 Quadrupole moment (field-independent basis, Debye-Ang):
   XX=            -21.9247   YY=            -22.1241   ZZ=            -20.4921
   XY=             -0.0561   XZ=              0.0000   YZ=              0.0000

 DQ=-218.7121742\CCSD=-218.7078265\CCSD(T)=-218.7445715\RMSD=2.476e-09\
 Normal termination of Gaussian 16 at Fri Feb  9 18:57:06 2024.
