 Gaussian 16, Revision A.03,
 Gaussian 16:  ES64L-G16RevA.03 25-Dec-2016

 ------------------
 #p CCSD(T)/cc-pVTZ
 ------------------

 --------
 N2_N2_31
 --------
 Symbolic Z-matrix:
 Charge =  0 Multiplicity = 1

                         Standard orientation:
 ---------------------------------------------------------------------
 Center     Atomic      Atomic             Coordinates (Angstroms)
 Number     Number       Type             X           Y           Z
 ---------------------------------------------------------------------
      1          7           0        0.578060   -1.550560    0.000000
      2          7           0       -0.192687   -0.779813    0.000000
      3          7           0       -0.192687    0.620186   -0.000000
      4          7           0       -0.192687    1.710187   -0.000000
 ---------------------------------------------------------------------

 SCF Done:  E(RHF) =  -217.656611350     A.U. after   17 cycles
 E2 =    -0.7660886373D+00 EUMP2 =    -0.21842269998720D+03
 CCSD(T)
 CCSD(T)= -0.21846009512D+03

 The electronic state is 1-A'.
 Alpha  occ. eigenvalues --  -15.76420 -15.74343 -15.65611 -15.57287  -1.55697
 Alpha  occ. eigenvalues --   -1.44519  -1.08812  -0.75529  -0.72376  -0.71724
 Alpha  occ. eigenvalues --   -0.64056  -0.58113  -0.56474  -0.32898
 Alpha virt. eigenvalues --    0.07434   0.11117   0.25314   0.28484   0.41019
 Alpha virt. eigenvalues --    0.48670   0.51382   0.51393   0.58588   0.59151
 Alpha virt. eigenvalues --    0.62426   0.65127   0.70123   0.74629   0.76825

 Mulliken charges:
               1
     1  N   -0.257627
     2  N   -0.038590
     3  N    0.226887
     4  N    0.069330
 Sum of Mulliken charges =  -0.00000

 Dipole moment (field-independent basis, Debye):
    X=             -0.6405    Y=              3.1415    Z=             -0.0000  Tot=              3.2062
 Quadrupole moment (field-independent basis, Debye-Ang):
   XX=            -22.5507   YY=            -25.5526   ZZ=            -19.9053
   XY=              1.0686   XZ=              0.0000   YZ=              0.0000

 =-218.4090174\MP4SDQ=-218.4230397\CCSD=-218.417747\CCSD(T)=-218.460095
 Normal termination of Gaussian 16 at Fri Feb  9 17:58:13 2024.
