 Gaussian 16, Revision A.03,
 Gaussian 16:  ES64L-G16RevA.03 25-Dec-2016

 ------------------
 #p CCSD(T)/cc-pVTZ
 ------------------

 ---------
 N2_N2_124
 ---------
 Symbolic Z-matrix:
 Charge =  0 Multiplicity = 1

                         Standard orientation:
 ---------------------------------------------------------------------
 Center     Atomic      Atomic             Coordinates (Angstroms)
 Number     Number       Type             X           Y           Z
 ---------------------------------------------------------------------
      1          7           0        0.578060   -2.170560    0.000000
      2          7           0       -0.192687   -1.399813    0.000000
      3          7           0       -0.192687    1.240187   -0.000000
      4          7           0       -0.192687    2.330186   -0.000000
 ---------------------------------------------------------------------

 SCF Done:  E(RHF) =  -217.962601979     A.U. after   12 cycles
 E2 =    -0.7456569792D+00 EUMP2 =    -0.21870825895834D+03
 CCSD(T)
 CCSD(T)= -0.21874193975D+03

 The electronic state is 1-A'.
 Alpha  occ. eigenvalues --  -15.67620 -15.67220 -15.67187 -15.66845  -1.47366
 Alpha  occ. eigenvalues --   -1.46989  -0.78930  -0.75926  -0.64794  -0.61893
 Alpha  occ. eigenvalues --   -0.61509  -0.61276  -0.60915  -0.60014
 Alpha virt. eigenvalues --    0.15226   0.16135   0.17919   0.18470   0.44517
 Alpha virt. eigenvalues --    0.46108   0.52609   0.53564   0.56899   0.58761
 Alpha virt. eigenvalues --    0.60351   0.63688   0.66815   0.70804   0.74323

 Mulliken charges:
               1
     1  N    0.004521
     2  N   -0.005675
     3  N    0.003119
     4  N   -0.001965
 Sum of Mulliken charges =   0.00000

 Dipole moment (field-independent basis, Debye):
    X=             -0.0488    Y=              0.0637    Z=              0.0000  Tot=              0.0803
 Quadrupole moment (field-independent basis, Debye-Ang):
   XX=            -21.2272   YY=            -23.0210   ZZ=            -20.4989
   XY=              0.7313   XZ=             -0.0000   YZ=              0.0000

 DQ=-218.6988954\MP4SDQ=-218.7097175\CCSD=-218.7052308\CCSD(T)=-218.741
 Normal termination of Gaussian 16 at Fri Feb  9 18:50:24 2024.
