 Gaussian 16, Revision A.03,
 Gaussian 16:  ES64L-G16RevA.03 25-Dec-2016

 ------------------
 #p CCSD(T)/cc-pVTZ
 ------------------

 ---------
 N2_N2_123
 ---------
 Symbolic Z-matrix:
 Charge =  0 Multiplicity = 1

                         Standard orientation:
 ---------------------------------------------------------------------
 Center     Atomic      Atomic             Coordinates (Angstroms)
 Number     Number       Type             X           Y           Z
 ---------------------------------------------------------------------
      1          7           0        0.000000    0.000000    2.410000
      2          7           0        0.000000    0.000000    1.320000
      3          7           0        0.000000    0.000000   -1.320000
      4          7           0        0.000000    0.000000   -2.410000
 ---------------------------------------------------------------------

 SCF Done:  E(RHF) =  -217.961138547     A.U. after   10 cycles
 E2 =    -0.7453912537D+00 EUMP2 =    -0.21870652980078D+03
 CCSD(T)
 CCSD(T)= -0.21874029402D+03

 The electronic state is 1-SGG.
 Alpha  occ. eigenvalues --  -15.67261 -15.67261 -15.66811 -15.66810  -1.47088
 Alpha  occ. eigenvalues --   -1.46993  -0.78946  -0.75652  -0.64742  -0.61289
 Alpha  occ. eigenvalues --   -0.61289  -0.60862  -0.60862  -0.60428
 Alpha virt. eigenvalues --    0.15166   0.15166   0.18808   0.18808   0.45358
 Alpha virt. eigenvalues --    0.47011   0.53843   0.53843   0.58344   0.58649
 Alpha virt. eigenvalues --    0.58649   0.66712   0.67042   0.70286   0.70286

 Mulliken charges:
               1
     1  N   -0.007417
     2  N    0.007417
     3  N    0.007417
     4  N   -0.007417
 Sum of Mulliken charges =   0.00000

 Dipole moment (field-independent basis, Debye):
    X=             -0.0000    Y=              0.0000    Z=              0.0000  Tot=              0.0000
 Quadrupole moment (field-independent basis, Debye-Ang):
   XX=            -20.5054   YY=            -20.5054   ZZ=            -23.8697
   XY=              0.0000   XZ=              0.0000   YZ=             -0.0000

 4SDQ=-218.7081372\CCSD=-218.7036163\CCSD(T)=-218.740294\RMSD=8.539e-10
 Normal termination of Gaussian 16 at Fri Feb  9 18:49:53 2024.
