 Gaussian 16, Revision A.03,
 Gaussian 16:  ES64L-G16RevA.03 25-Dec-2016

 ------------------
 #p CCSD(T)/cc-pVTZ
 ------------------

 ---------
 N2_N2_292
 ---------
 Symbolic Z-matrix:
 Charge =  0 Multiplicity = 1

                         Standard orientation:
 ---------------------------------------------------------------------
 Center     Atomic      Atomic             Coordinates (Angstroms)
 Number     Number       Type             X           Y           Z
 ---------------------------------------------------------------------
      1          7           0        0.578060   -3.290560    0.000000
      2          7           0       -0.192687   -2.519813   -0.000000
      3          7           0       -0.192687    2.360187   -0.000000
      4          7           0       -0.192687    3.450186   -0.000000
 ---------------------------------------------------------------------

 SCF Done:  E(RHF) =  -217.969594449     A.U. after   10 cycles
 E2 =    -0.7432821741D+00 EUMP2 =    -0.21871287662322D+03
 CCSD(T)
 CCSD(T)= -0.21874690964D+03

 The electronic state is 1-A'.
 Alpha  occ. eigenvalues --  -15.67865 -15.67808 -15.67495 -15.67437  -1.47500
 Alpha  occ. eigenvalues --   -1.47443  -0.77469  -0.77406  -0.63286  -0.63214
 Alpha  occ. eigenvalues --   -0.61510  -0.61510  -0.61454  -0.61451
 Alpha virt. eigenvalues --    0.16584   0.16591   0.16643   0.16668   0.40515
 Alpha virt. eigenvalues --    0.44476   0.55023   0.56094   0.56115   0.56229
 Alpha virt. eigenvalues --    0.56242   0.57597   0.67313   0.67445   0.73188

 Mulliken charges:
               1
     1  N   -0.000478
     2  N    0.000494
     3  N   -0.000105
     4  N    0.000089
 Sum of Mulliken charges =   0.00000

 Dipole moment (field-independent basis, Debye):
    X=             -0.0047    Y=              0.0038    Z=             -0.0000  Tot=              0.0061
 Quadrupole moment (field-independent basis, Debye-Ang):
   XX=            -21.1955   YY=            -22.6375   ZZ=            -20.4968
   XY=              0.7013   XZ=             -0.0000   YZ=              0.0000

 P4DQ=-218.7040322\MP4SDQ=-218.7148324\CCSD=-218.7105139\CCSD(T)=-218.7
 Normal termination of Gaussian 16 at Fri Feb  9 20:19:08 2024.
