 Gaussian 16, Revision A.03,
 Gaussian 16:  ES64L-G16RevA.03 25-Dec-2016

 ------------------
 #p CCSD(T)/cc-pVTZ
 ------------------

 --------
 N2_N2_16
 --------
 Symbolic Z-matrix:
 Charge =  0 Multiplicity = 1

                         Standard orientation:
 ---------------------------------------------------------------------
 Center     Atomic      Atomic             Coordinates (Angstroms)
 Number     Number       Type             X           Y           Z
 ---------------------------------------------------------------------
      1          7           0        0.578060   -1.450560    0.000000
      2          7           0       -0.192687   -0.679814    0.000000
      3          7           0       -0.192687    0.520186   -0.000000
      4          7           0       -0.192687    1.610187   -0.000000
 ---------------------------------------------------------------------

 SCF Done:  E(RHF) =  -217.602318049     A.U. after   15 cycles
 E2 =    -0.7598775692D+00 EUMP2 =    -0.21836219561773D+03
 CCSD(T)
 CCSD(T)= -0.21840139312D+03

 The electronic state is 1-A'.
 Alpha  occ. eigenvalues --  -15.80911 -15.72834 -15.69147 -15.56927  -1.60773
 Alpha  occ. eigenvalues --   -1.47497  -1.20930  -0.79764  -0.78261  -0.73729
 Alpha  occ. eigenvalues --   -0.63672  -0.58483  -0.55903  -0.30060
 Alpha virt. eigenvalues --    0.05646   0.11496   0.27010   0.35923   0.41143
 Alpha virt. eigenvalues --    0.49204   0.50337   0.52621   0.55123   0.60742
 Alpha virt. eigenvalues --    0.62410   0.66846   0.70078   0.73180   0.73525

 Mulliken charges:
               1
     1  N   -0.377384
     2  N    0.064824
     3  N    0.361689
     4  N   -0.049129
 Sum of Mulliken charges =  -0.00000

 Dipole moment (field-independent basis, Debye):
    X=             -0.9987    Y=              2.6358    Z=             -0.0000  Tot=              2.8187
 Quadrupole moment (field-independent basis, Debye-Ang):
   XX=            -22.8149   YY=            -27.5050   ZZ=            -19.3536
   XY=              1.6214   XZ=              0.0000   YZ=              0.0000

 DQ=-218.3471138\MP4SDQ=-218.3603143\CCSD=-218.3578476\CCSD(T)=-218.401
 Normal termination of Gaussian 16 at Fri Feb  9 17:48:56 2024.
