 Gaussian 16, Revision A.03,
 Gaussian 16:  ES64L-G16RevA.03 25-Dec-2016

 ------------------
 #p CCSD(T)/cc-pVTZ
 ------------------

 --------
 N2_N2_26
 --------
 Symbolic Z-matrix:
 Charge =  0 Multiplicity = 1

                         Standard orientation:
 ---------------------------------------------------------------------
 Center     Atomic      Atomic             Coordinates (Angstroms)
 Number     Number       Type             X           Y           Z
 ---------------------------------------------------------------------
      1          7           0       -0.817500   -0.932500    0.000000
      2          7           0        0.272500   -0.932500    0.000000
      3          7           0        0.272500    0.387500    0.000000
      4          7           0        0.272500    1.477500    0.000000
 ---------------------------------------------------------------------

 SCF Done:  E(RHF) =  -217.602378143     A.U. after   16 cycles
 E2 =    -0.7592341278D+00 EUMP2 =    -0.21836161227076D+03
 CCSD(T)
 CCSD(T)= -0.21840172973D+03

 The electronic state is 1-A'.
 Alpha  occ. eigenvalues --  -15.78942 -15.71466 -15.69341 -15.57189  -1.62062
 Alpha  occ. eigenvalues --   -1.48850  -1.05124  -0.80651  -0.75919  -0.72397
 Alpha  occ. eigenvalues --   -0.64434  -0.59644  -0.56597  -0.33268
 Alpha virt. eigenvalues --    0.09936   0.14143   0.20632   0.30037   0.40686
 Alpha virt. eigenvalues --    0.42316   0.48935   0.51284   0.55973   0.58974
 Alpha virt. eigenvalues --    0.60499   0.65913   0.70539   0.72587   0.75682

 Mulliken charges:
               1
     1  N   -0.331749
     2  N    0.068573
     3  N    0.289334
     4  N   -0.026159
 Sum of Mulliken charges =  -0.00000

 Dipole moment (field-independent basis, Debye):
    X=              1.4316    Y=              1.5833    Z=              0.0000  Tot=              2.1345
 Quadrupole moment (field-independent basis, Debye-Ang):
   XX=            -23.4824   YY=            -24.8527   ZZ=            -19.5932
   XY=             -0.9583   XZ=              0.0000   YZ=              0.0000

 SDQ=-218.3613776\CCSD=-218.3591337\CCSD(T)=-218.4017297\RMSD=5.117e-09
 Normal termination of Gaussian 16 at Fri Feb  9 17:55:05 2024.
