 Gaussian 16, Revision A.03,
 Gaussian 16:  ES64L-G16RevA.03 25-Dec-2016

 ------------------
 #p CCSD(T)/cc-pVTZ
 ------------------

 ---------
 N2_N2_295
 ---------
 Symbolic Z-matrix:
 Charge =  0 Multiplicity = 1

                         Standard orientation:
 ---------------------------------------------------------------------
 Center     Atomic      Atomic             Coordinates (Angstroms)
 Number     Number       Type             X           Y           Z
 ---------------------------------------------------------------------
      1          7           0        0.578060   -3.310560    0.000000
      2          7           0       -0.192687   -2.539813    0.000000
      3          7           0       -0.192687    2.380186   -0.000000
      4          7           0       -0.192687    3.470187   -0.000000
 ---------------------------------------------------------------------

 SCF Done:  E(RHF) =  -217.969593622     A.U. after   10 cycles
 E2 =    -0.7432782238D+00 EUMP2 =    -0.21871287184592D+03
 CCSD(T)
 CCSD(T)= -0.21874690579D+03

 The electronic state is 1-A'.
 Alpha  occ. eigenvalues --  -15.67865 -15.67809 -15.67495 -15.67439  -1.47500
 Alpha  occ. eigenvalues --   -1.47444  -0.77469  -0.77408  -0.63286  -0.63217
 Alpha  occ. eigenvalues --   -0.61511  -0.61511  -0.61455  -0.61453
 Alpha virt. eigenvalues --    0.16585   0.16592   0.16643   0.16665   0.40654
 Alpha virt. eigenvalues --    0.44381   0.55098   0.56100   0.56119   0.56223
 Alpha virt. eigenvalues --    0.56234   0.57473   0.67316   0.67437   0.73206

 Mulliken charges:
               1
     1  N   -0.000488
     2  N    0.000502
     3  N   -0.000072
     4  N    0.000058
 Sum of Mulliken charges =  -0.00000

 Dipole moment (field-independent basis, Debye):
    X=             -0.0046    Y=              0.0037    Z=             -0.0000  Tot=              0.0059
 Quadrupole moment (field-independent basis, Debye-Ang):
   XX=            -21.1954   YY=            -22.6367   ZZ=            -20.4968
   XY=              0.7012   XZ=              0.0000   YZ=              0.0000

 4DQ=-218.7040285\MP4SDQ=-218.7148287\CCSD=-218.7105105\CCSD(T)=-218.74
 Normal termination of Gaussian 16 at Fri Feb  9 20:20:43 2024.
