 Gaussian 16, Revision A.03,
 Gaussian 16:  ES64L-G16RevA.03 25-Dec-2016

 ------------------
 #p CCSD(T)/cc-pVTZ
 ------------------

 ---------
 N2_N2_184
 ---------
 Symbolic Z-matrix:
 Charge =  0 Multiplicity = 1

                         Standard orientation:
 ---------------------------------------------------------------------
 Center     Atomic      Atomic             Coordinates (Angstroms)
 Number     Number       Type             X           Y           Z
 ---------------------------------------------------------------------
      1          7           0        0.578060   -2.570560    0.000000
      2          7           0       -0.192687   -1.799813    0.000000
      3          7           0       -0.192687    1.640186    0.000000
      4          7           0       -0.192687    2.730187    0.000000
 ---------------------------------------------------------------------

 SCF Done:  E(RHF) =  -217.969245239     A.U. after   12 cycles
 E2 =    -0.7438597190D+00 EUMP2 =    -0.21871310495832D+03
 CCSD(T)
 CCSD(T)= -0.21874705078D+03

 The electronic state is 1-A'.
 Alpha  occ. eigenvalues --  -15.67818 -15.67664 -15.67447 -15.67293  -1.47464
 Alpha  occ. eigenvalues --   -1.47310  -0.77655  -0.77064  -0.63587  -0.62757
 Alpha  occ. eigenvalues --   -0.61486  -0.61479  -0.61317  -0.61272
 Alpha virt. eigenvalues --    0.16143   0.16376   0.16923   0.17240   0.39341
 Alpha virt. eigenvalues --    0.45966   0.52301   0.54619   0.55043   0.57204
 Alpha virt. eigenvalues --    0.57645   0.63659   0.67068   0.69572   0.71027

 Mulliken charges:
               1
     1  N    0.004446
     2  N   -0.004586
     3  N   -0.007684
     4  N    0.007824
 Sum of Mulliken charges =   0.00000

 Dipole moment (field-independent basis, Debye):
    X=             -0.0179    Y=              0.0165    Z=             -0.0000  Tot=              0.0244
 Quadrupole moment (field-independent basis, Debye-Ang):
   XX=            -21.2024   YY=            -22.7384   ZZ=            -20.4987
   XY=              0.7108   XZ=             -0.0000   YZ=              0.0000

 4DQ=-218.704124\MP4SDQ=-218.7149364\CCSD=-218.7105771\CCSD(T)=-218.747
 Normal termination of Gaussian 16 at Fri Feb  9 19:22:28 2024.
