 Gaussian 16, Revision A.03,
 Gaussian 16:  ES64L-G16RevA.03 25-Dec-2016

 ------------------
 #p CCSD(T)/cc-pVTZ
 ------------------

 --------
 N2_N2_76
 --------
 Symbolic Z-matrix:
 Charge =  0 Multiplicity = 1

                         Standard orientation:
 ---------------------------------------------------------------------
 Center     Atomic      Atomic             Coordinates (Angstroms)
 Number     Number       Type             X           Y           Z
 ---------------------------------------------------------------------
      1          7           0        0.578060   -1.850560   -0.000000
      2          7           0       -0.192687   -1.079814   -0.000000
      3          7           0       -0.192687    0.920187    0.000000
      4          7           0       -0.192687    2.010186    0.000000
 ---------------------------------------------------------------------

 SCF Done:  E(RHF) =  -217.906977829     A.U. after   13 cycles
 E2 =    -0.7534635666D+00 EUMP2 =    -0.21866044139596D+03
 CCSD(T)
 CCSD(T)= -0.21869297414D+03

 The electronic state is 1-A'.
 Alpha  occ. eigenvalues --  -15.67605 -15.66331 -15.65769 -15.65362  -1.47532
 Alpha  occ. eigenvalues --   -1.46101  -0.84881  -0.73623  -0.66855  -0.62401
 Alpha  occ. eigenvalues --   -0.62171  -0.60156  -0.59694  -0.53387
 Alpha virt. eigenvalues --    0.13595   0.15572   0.20071   0.20820   0.44920
 Alpha virt. eigenvalues --    0.46040   0.52297   0.53647   0.60364   0.60476
 Alpha virt. eigenvalues --    0.63197   0.64715   0.66739   0.73458   0.81276

 Mulliken charges:
               1
     1  N   -0.020147
     2  N    0.003206
     3  N    0.009685
     4  N    0.007255
 Sum of Mulliken charges =  -0.00000

 Dipole moment (field-independent basis, Debye):
    X=             -0.1340    Y=              0.3433    Z=              0.0000  Tot=              0.3685
 Quadrupole moment (field-independent basis, Debye-Ang):
   XX=            -21.3275   YY=            -23.6161   ZZ=            -20.4464
   XY=              0.7816   XZ=              0.0000   YZ=             -0.0000

 =-218.6494243\MP4SDQ=-218.6603626\CCSD=-218.6553016\CCSD(T)=-218.69297
 Normal termination of Gaussian 16 at Fri Feb  9 18:25:05 2024.
