 Gaussian 16, Revision A.03,
 Gaussian 16:  ES64L-G16RevA.03 25-Dec-2016

 ------------------
 #p CCSD(T)/cc-pVTZ
 ------------------

 ---------
 N2_N2_125
 ---------
 Symbolic Z-matrix:
 Charge =  0 Multiplicity = 1

                         Standard orientation:
 ---------------------------------------------------------------------
 Center     Atomic      Atomic             Coordinates (Angstroms)
 Number     Number       Type             X           Y           Z
 ---------------------------------------------------------------------
      1          7           0       -0.817500   -1.592500    0.000000
      2          7           0        0.272500   -1.592500    0.000000
      3          7           0        0.272500    1.047500    0.000000
      4          7           0        0.272500    2.137500    0.000000
 ---------------------------------------------------------------------

 SCF Done:  E(RHF) =  -217.961057137     A.U. after   12 cycles
 E2 =    -0.7471135438D+00 EUMP2 =    -0.21870817068080D+03
 CCSD(T)
 CCSD(T)= -0.21874161500D+03

 The electronic state is 1-A'.
 Alpha  occ. eigenvalues --  -15.67914 -15.67431 -15.67177 -15.66780  -1.47661
 Alpha  occ. eigenvalues --   -1.46899  -0.78447  -0.76758  -0.65304  -0.62534
 Alpha  occ. eigenvalues --   -0.61840  -0.61653  -0.60810  -0.59014
 Alpha virt. eigenvalues --    0.14619   0.15956   0.17357   0.19112   0.42073
 Alpha virt. eigenvalues --    0.45812   0.52841   0.54913   0.55885   0.58698
 Alpha virt. eigenvalues --    0.59474   0.59700   0.66313   0.71682   0.72916

 Mulliken charges:
               1
     1  N   -0.009544
     2  N    0.010166
     3  N   -0.000778
     4  N    0.000156
 Sum of Mulliken charges =   0.00000

 Dipole moment (field-independent basis, Debye):
    X=              0.0529    Y=              0.0875    Z=              0.0000  Tot=              0.1022
 Quadrupole moment (field-independent basis, Debye-Ang):
   XX=            -21.9346   YY=            -22.2010   ZZ=            -20.4882
   XY=             -0.0782   XZ=              0.0000   YZ=              0.0000

 SDQ=-218.7091192\CCSD=-218.7047545\CCSD(T)=-218.741615\RMSD=4.185e-09\
 Normal termination of Gaussian 16 at Fri Feb  9 18:50:55 2024.
