 Gaussian 16, Revision A.03,
 Gaussian 16:  ES64L-G16RevA.03 25-Dec-2016

 ------------------
 #p CCSD(T)/cc-pVTZ
 ------------------

 ---------
 N2_N2_179
 ---------
 Symbolic Z-matrix:
 Charge =  0 Multiplicity = 1

                         Standard orientation:
 ---------------------------------------------------------------------
 Center     Atomic      Atomic             Coordinates (Angstroms)
 Number     Number       Type             X           Y           Z
 ---------------------------------------------------------------------
      1          7           0       -0.817500   -1.952500    0.000000
      2          7           0        0.272500   -1.952500    0.000000
      3          7           0        0.272500    1.407500    0.000000
      4          7           0        0.272500    2.497500    0.000000
 ---------------------------------------------------------------------

 SCF Done:  E(RHF) =  -217.969210195     A.U. after   12 cycles
 E2 =    -0.7443254964D+00 EUMP2 =    -0.21871353569111D+03
 CCSD(T)
 CCSD(T)= -0.21874741139D+03

 The electronic state is 1-A'.
 Alpha  occ. eigenvalues --  -15.67998 -15.67626 -15.67621 -15.67249  -1.47638
 Alpha  occ. eigenvalues --   -1.47245  -0.77694  -0.77213  -0.63791  -0.62923
 Alpha  occ. eigenvalues --   -0.61666  -0.61655  -0.61259  -0.61004
 Alpha virt. eigenvalues --    0.15599   0.16334   0.16884   0.17639   0.40135
 Alpha virt. eigenvalues --    0.43211   0.51280   0.54347   0.55171   0.56826
 Alpha virt. eigenvalues --    0.57729   0.61872   0.66795   0.69181   0.72757

 Mulliken charges:
               1
     1  N   -0.004326
     2  N    0.004826
     3  N   -0.007510
     4  N    0.007010
 Sum of Mulliken charges =  -0.00000

 Dipole moment (field-independent basis, Debye):
    X=              0.0162    Y=              0.0352    Z=              0.0000  Tot=              0.0388
 Quadrupole moment (field-independent basis, Debye-Ang):
   XX=            -21.9045   YY=            -21.9592   ZZ=            -20.4958
   XY=             -0.0184   XZ=              0.0000   YZ=              0.0000

 4SDQ=-218.7152054\CCSD=-218.7108815\CCSD(T)=-218.7474114\RMSD=1.978e-0
 Normal termination of Gaussian 16 at Fri Feb  9 19:19:53 2024.
