 Gaussian 16, Revision A.03,
 Gaussian 16:  ES64L-G16RevA.03 25-Dec-2016

 ------------------
 #p CCSD(T)/cc-pVTZ
 ------------------

 --------
 N2_N2_87
 --------
 Symbolic Z-matrix:
 Charge =  0 Multiplicity = 1

                         Standard orientation:
 ---------------------------------------------------------------------
 Center     Atomic      Atomic             Coordinates (Angstroms)
 Number     Number       Type             X           Y           Z
 ---------------------------------------------------------------------
      1          7           0        0.000000    0.000000    2.170000
      2          7           0        0.000000    0.000000    1.080000
      3          7           0        0.000000    0.000000   -1.080000
      4          7           0        0.000000    0.000000   -2.170000
 ---------------------------------------------------------------------

 SCF Done:  E(RHF) =  -217.925476721     A.U. after   10 cycles
 E2 =    -0.7496989793D+00 EUMP2 =    -0.21867517570057D+03
 CCSD(T)
 CCSD(T)= -0.21870844837D+03

 The electronic state is 1-SGG.
 Alpha  occ. eigenvalues --  -15.66693 -15.66693 -15.65567 -15.65566  -1.46760
 Alpha  occ. eigenvalues --   -1.46399  -0.82509  -0.73846  -0.66132  -0.61337
 Alpha  occ. eigenvalues --   -0.61337  -0.60036  -0.60036  -0.55905
 Alpha virt. eigenvalues --    0.14085   0.14085   0.20703   0.20703   0.44541
 Alpha virt. eigenvalues --    0.46577   0.53940   0.53940   0.59818   0.59818
 Alpha virt. eigenvalues --    0.65630   0.66931   0.71985   0.71985   0.73691

 Mulliken charges:
               1
     1  N   -0.008906
     2  N    0.008906
     3  N    0.008906
     4  N   -0.008906
 Sum of Mulliken charges =  -0.00000

 Dipole moment (field-independent basis, Debye):
    X=             -0.0000    Y=              0.0000    Z=              0.0000  Tot=              0.0000
 Quadrupole moment (field-independent basis, Debye-Ang):
   XX=            -20.4947   YY=            -20.4947   ZZ=            -24.2932
   XY=              0.0000   XZ=              0.0000   YZ=             -0.0000

 4SDQ=-218.6761373\CCSD=-218.6712691\CCSD(T)=-218.7084484\RMSD=8.295e-1
 Normal termination of Gaussian 16 at Fri Feb  9 18:30:55 2024.
