 Gaussian 16, Revision A.03,
 Gaussian 16:  ES64L-G16RevA.03 25-Dec-2016

 ------------------
 #p CCSD(T)/cc-pVTZ
 ------------------

 --------
 N2_N2_86
 --------
 Symbolic Z-matrix:
 Charge =  0 Multiplicity = 1

                         Standard orientation:
 ---------------------------------------------------------------------
 Center     Atomic      Atomic             Coordinates (Angstroms)
 Number     Number       Type             X           Y           Z
 ---------------------------------------------------------------------
      1          7           0       -0.817500   -1.332500    0.000000
      2          7           0        0.272500   -1.332500    0.000000
      3          7           0        0.272500    0.787500    0.000000
      4          7           0        0.272500    1.877500    0.000000
 ---------------------------------------------------------------------

 SCF Done:  E(RHF) =  -217.919492675     A.U. after   13 cycles
 E2 =    -0.7543138602D+00 EUMP2 =    -0.21867380653500D+03
 CCSD(T)
 CCSD(T)= -0.21870620807D+03

 The electronic state is 1-A'.
 Alpha  occ. eigenvalues --  -15.67758 -15.66577 -15.66554 -15.65621  -1.47885
 Alpha  occ. eigenvalues --   -1.46383  -0.81478  -0.76024  -0.67530  -0.62511
 Alpha  occ. eigenvalues --   -0.62437  -0.61248  -0.59838  -0.54012
 Alpha virt. eigenvalues --    0.13800   0.15335   0.18163   0.20991   0.41994
 Alpha virt. eigenvalues --    0.45255   0.53078   0.55098   0.55828   0.57575
 Alpha virt. eigenvalues --    0.60884   0.66413   0.72152   0.73416   0.75666

 Mulliken charges:
               1
     1  N   -0.028843
     2  N    0.028270
     3  N   -0.002201
     4  N    0.002774
 Sum of Mulliken charges =  -0.00000

 Dipole moment (field-independent basis, Debye):
    X=              0.1583    Y=              0.1739    Z=              0.0000  Tot=              0.2351
 Quadrupole moment (field-independent basis, Debye-Ang):
   XX=            -21.9982   YY=            -22.5765   ZZ=            -20.4355
   XY=             -0.2355   XZ=              0.0000   YZ=              0.0000

 SDQ=-218.6730564\CCSD=-218.6685203\CCSD(T)=-218.7062081\RMSD=5.334e-09
 Normal termination of Gaussian 16 at Fri Feb  9 18:30:25 2024.
