 Gaussian 16, Revision A.03,
 Gaussian 16:  ES64L-G16RevA.03 25-Dec-2016

 ------------------
 #p CCSD(T)/cc-pVTZ
 ------------------

 ---------
 N2_N2_239
 ---------
 Symbolic Z-matrix:
 Charge =  0 Multiplicity = 1

                         Standard orientation:
 ---------------------------------------------------------------------
 Center     Atomic      Atomic             Coordinates (Angstroms)
 Number     Number       Type             X           Y           Z
 ---------------------------------------------------------------------
      1          7           0       -0.817500   -2.352500    0.000000
      2          7           0        0.272500   -2.352500    0.000000
      3          7           0        0.272500    1.807500    0.000000
      4          7           0        0.272500    2.897500    0.000000
 ---------------------------------------------------------------------

 SCF Done:  E(RHF) =  -217.969703739     A.U. after   11 cycles
 E2 =    -0.7435039695D+00 EUMP2 =    -0.21871320770897D+03
 CCSD(T)
 CCSD(T)= -0.21874720341D+03

 The electronic state is 1-A'.
 Alpha  occ. eigenvalues --  -15.67966 -15.67756 -15.67596 -15.67386  -1.47597
 Alpha  occ. eigenvalues --   -1.47382  -0.77575  -0.77356  -0.63419  -0.63151
 Alpha  occ. eigenvalues --   -0.61608  -0.61606  -0.61397  -0.61367
 Alpha virt. eigenvalues --    0.16275   0.16485   0.16711   0.16915   0.39917
 Alpha virt. eigenvalues --    0.42842   0.52760   0.55700   0.55853   0.56343
 Alpha virt. eigenvalues --    0.56576   0.61522   0.67078   0.69103   0.72203

 Mulliken charges:
               1
     1  N   -0.001179
     2  N    0.001502
     3  N   -0.002052
     4  N    0.001730
 Sum of Mulliken charges =  -0.00000

 Dipole moment (field-independent basis, Debye):
    X=              0.0055    Y=              0.0128    Z=              0.0000  Tot=              0.0139
 Quadrupole moment (field-independent basis, Debye-Ang):
   XX=            -21.8957   YY=            -21.8873   ZZ=            -20.4965
   XY=             -0.0054   XZ=              0.0000   YZ=              0.0000

 4SDQ=-218.7150941\CCSD=-218.7107796\CCSD(T)=-218.7472034\RMSD=7.517e-0
 Normal termination of Gaussian 16 at Fri Feb  9 19:50:45 2024.
