 Gaussian 16, Revision A.03,
 Gaussian 16:  ES64L-G16RevA.03 25-Dec-2016

 ------------------
 #p CCSD(T)/cc-pVTZ
 ------------------

 --------
 N2_N2_60
 --------
 Symbolic Z-matrix:
 Charge =  0 Multiplicity = 1

                         Standard orientation:
 ---------------------------------------------------------------------
 Center     Atomic      Atomic             Coordinates (Angstroms)
 Number     Number       Type             X           Y           Z
 ---------------------------------------------------------------------
      1          7           0        0.000000    0.000000    1.990000
      2          7           0        0.000000    0.000000    0.900000
      3          7           0        0.000000    0.000000   -0.900000
      4          7           0        0.000000    0.000000   -1.990000
 ---------------------------------------------------------------------

 SCF Done:  E(RHF) =  -217.823685978     A.U. after   10 cycles
 E2 =    -0.7598089194D+00 EUMP2 =    -0.21858349489755D+03
 CCSD(T)
 CCSD(T)= -0.21861550849D+03

 The electronic state is 1-SGG.
 Alpha  occ. eigenvalues --  -15.66087 -15.66087 -15.63566 -15.63565  -1.46552
 Alpha  occ. eigenvalues --   -1.45544  -0.89606  -0.72131  -0.67093  -0.61856
 Alpha  occ. eigenvalues --   -0.61856  -0.58752  -0.58752  -0.47235
 Alpha virt. eigenvalues --    0.12686   0.12686   0.23151   0.23151   0.44054
 Alpha virt. eigenvalues --    0.45722   0.54436   0.54436   0.60839   0.60839
 Alpha virt. eigenvalues --    0.62629   0.66849   0.74117   0.74117   0.80911

 Mulliken charges:
               1
     1  N    0.011511
     2  N   -0.011511
     3  N   -0.011511
     4  N    0.011511
 Sum of Mulliken charges =   0.00000

 Dipole moment (field-independent basis, Debye):
    X=              0.0000    Y=              0.0000    Z=              0.0000  Tot=              0.0000
 Quadrupole moment (field-independent basis, Debye-Ang):
   XX=            -20.4653   YY=            -20.4653   ZZ=            -24.5873
   XY=              0.0000   XZ=              0.0000   YZ=             -0.0000

 DQ=-218.5828532\CCSD=-218.5771309\CCSD(T)=-218.6155085\RMSD=3.319e-09\
 Normal termination of Gaussian 16 at Fri Feb  9 18:16:38 2024.
