 Gaussian 16, Revision A.03,
 Gaussian 16:  ES64L-G16RevA.03 25-Dec-2016

 ------------------
 #p CCSD(T)/cc-pVTZ
 ------------------

 ---------
 N2_N2_276
 ---------
 Symbolic Z-matrix:
 Charge =  0 Multiplicity = 1

                         Standard orientation:
 ---------------------------------------------------------------------
 Center     Atomic      Atomic             Coordinates (Angstroms)
 Number     Number       Type             X           Y           Z
 ---------------------------------------------------------------------
      1          7           0        0.000000    0.000000    3.430000
      2          7           0        0.000000    0.000000    2.340000
      3          7           0        0.000000    0.000000   -2.340000
      4          7           0        0.000000    0.000000   -3.430000
 ---------------------------------------------------------------------

 SCF Done:  E(RHF) =  -217.969566701     A.U. after    9 cycles
 E2 =    -0.7433052593D+00 EUMP2 =    -0.21871287196069D+03
 CCSD(T)
 CCSD(T)= -0.21874689978D+03

 The electronic state is 1-SGG.
 Alpha  occ. eigenvalues --  -15.67802 -15.67802 -15.67432 -15.67432  -1.47440
 Alpha  occ. eigenvalues --   -1.47439  -0.77422  -0.77378  -0.63252  -0.63170
 Alpha  occ. eigenvalues --   -0.61452  -0.61452  -0.61448  -0.61448
 Alpha virt. eigenvalues --    0.16606   0.16606   0.16715   0.16715   0.37984
 Alpha virt. eigenvalues --    0.46397   0.54508   0.56121   0.56121   0.56281
 Alpha virt. eigenvalues --    0.56281   0.59426   0.67345   0.67526   0.73087

 Mulliken charges:
               1
     1  N    0.000690
     2  N   -0.000690
     3  N   -0.000690
     4  N    0.000690
 Sum of Mulliken charges =  -0.00000

 Dipole moment (field-independent basis, Debye):
    X=              0.0000    Y=              0.0000    Z=              0.0000  Tot=              0.0000
 Quadrupole moment (field-independent basis, Debye-Ang):
   XX=            -20.4975   YY=            -20.4975   ZZ=            -23.3793
   XY=              0.0000   XZ=              0.0000   YZ=             -0.0000

 4SDQ=-218.7148254\CCSD=-218.7105007\CCSD(T)=-218.7468998\RMSD=9.800e-0
 Normal termination of Gaussian 16 at Fri Feb  9 20:10:55 2024.
