 Gaussian 16, Revision A.03,
 Gaussian 16:  ES64L-G16RevA.03 25-Dec-2016

 ------------------
 #p CCSD(T)/cc-pVTZ
 ------------------

 --------
 N2_N2_73
 --------
 Symbolic Z-matrix:
 Charge =  0 Multiplicity = 1

                         Standard orientation:
 ---------------------------------------------------------------------
 Center     Atomic      Atomic             Coordinates (Angstroms)
 Number     Number       Type             X           Y           Z
 ---------------------------------------------------------------------
      1          7           0        0.578060   -1.830560    0.000000
      2          7           0       -0.192687   -1.059813    0.000000
      3          7           0       -0.192687    0.900186   -0.000000
      4          7           0       -0.192687    1.990187   -0.000000
 ---------------------------------------------------------------------

 SCF Done:  E(RHF) =  -217.898365021     A.U. after   13 cycles
 E2 =    -0.7545174486D+00 EUMP2 =    -0.21865288246967D+03
 CCSD(T)
 CCSD(T)= -0.21868526837D+03

 The electronic state is 1-A'.
 Alpha  occ. eigenvalues --  -15.67667 -15.66299 -15.65595 -15.65205  -1.47609
 Alpha  occ. eigenvalues --   -1.46005  -0.85670  -0.73451  -0.66977  -0.62528
 Alpha  occ. eigenvalues --   -0.62304  -0.60045  -0.59560  -0.52566
 Alpha virt. eigenvalues --    0.13425   0.15492   0.20301   0.21036   0.44813
 Alpha virt. eigenvalues --    0.46112   0.52320   0.53675   0.60399   0.60599
 Alpha virt. eigenvalues --    0.63173   0.64582   0.66993   0.73671   0.81386

 Mulliken charges:
               1
     1  N   -0.023893
     2  N    0.003973
     3  N    0.011095
     4  N    0.008825
 Sum of Mulliken charges =  -0.00000

 Dipole moment (field-independent basis, Debye):
    X=             -0.1436    Y=              0.3917    Z=              0.0000  Tot=              0.4172
 Quadrupole moment (field-independent basis, Debye-Ang):
   XX=            -21.3446   YY=            -23.6661   ZZ=            -20.4375
   XY=              0.7855   XZ=              0.0000   YZ=              0.0000

 Q=-218.6416336\MP4SDQ=-218.6526025\CCSD=-218.6474571\CCSD(T)=-218.6852
 Normal termination of Gaussian 16 at Fri Feb  9 18:23:29 2024.
