 Gaussian 16, Revision A.03,
 Gaussian 16:  ES64L-G16RevA.03 25-Dec-2016

 ------------------
 #p CCSD(T)/cc-pVTZ
 ------------------

 ---------
 N2_N2_222
 ---------
 Symbolic Z-matrix:
 Charge =  0 Multiplicity = 1

                         Standard orientation:
 ---------------------------------------------------------------------
 Center     Atomic      Atomic             Coordinates (Angstroms)
 Number     Number       Type             X           Y           Z
 ---------------------------------------------------------------------
      1          7           0        0.000000    0.000000    3.070000
      2          7           0        0.000000    0.000000    1.980000
      3          7           0        0.000000    0.000000   -1.980000
      4          7           0        0.000000    0.000000   -3.070000
 ---------------------------------------------------------------------

 SCF Done:  E(RHF) =  -217.969480880     A.U. after   10 cycles
 E2 =    -0.7434978952D+00 EUMP2 =    -0.21871297877490D+03
 CCSD(T)
 CCSD(T)= -0.21874697695D+03

 The electronic state is 1-SGG.
 Alpha  occ. eigenvalues --  -15.67754 -15.67754 -15.67383 -15.67383  -1.47397
 Alpha  occ. eigenvalues --   -1.47394  -0.77456  -0.77242  -0.63333  -0.62978
 Alpha  occ. eigenvalues --   -0.61417  -0.61417  -0.61395  -0.61395
 Alpha virt. eigenvalues --    0.16455   0.16455   0.16951   0.16951   0.35461
 Alpha virt. eigenvalues --    0.47758   0.53096   0.55809   0.55809   0.56620
 Alpha virt. eigenvalues --    0.56620   0.65967   0.67285   0.71295   0.72075

 Mulliken charges:
               1
     1  N    0.006037
     2  N   -0.006037
     3  N   -0.006037
     4  N    0.006037
 Sum of Mulliken charges =  -0.00000

 Dipole moment (field-independent basis, Debye):
    X=              0.0000    Y=              0.0000    Z=              0.0000  Tot=              0.0000
 Quadrupole moment (field-independent basis, Debye-Ang):
   XX=            -20.4989   YY=            -20.4989   ZZ=            -23.4340
   XY=              0.0000   XZ=              0.0000   YZ=             -0.0000

 P4SDQ=-218.714895\CCSD=-218.7105518\CCSD(T)=-218.746977\RMSD=6.542e-10
 Normal termination of Gaussian 16 at Fri Feb  9 19:42:01 2024.
