 Gaussian 16, Revision A.03,
 Gaussian 16:  ES64L-G16RevA.03 25-Dec-2016

 ------------------
 #p CCSD(T)/cc-pVTZ
 ------------------

 ---------
 N2_N2_169
 ---------
 Symbolic Z-matrix:
 Charge =  0 Multiplicity = 1

                         Standard orientation:
 ---------------------------------------------------------------------
 Center     Atomic      Atomic             Coordinates (Angstroms)
 Number     Number       Type             X           Y           Z
 ---------------------------------------------------------------------
      1          7           0        0.578060   -2.470560    0.000000
      2          7           0       -0.192687   -1.699813   -0.000000
      3          7           0       -0.192687    1.540187   -0.000000
      4          7           0       -0.192687    2.630186   -0.000000
 ---------------------------------------------------------------------

 SCF Done:  E(RHF) =  -217.968832212     A.U. after   12 cycles
 E2 =    -0.7440852662D+00 EUMP2 =    -0.21871291747800D+03
 CCSD(T)
 CCSD(T)= -0.21874683274D+03

 The electronic state is 1-A'.
 Alpha  occ. eigenvalues --  -15.67792 -15.67606 -15.67420 -15.67235  -1.47448
 Alpha  occ. eigenvalues --   -1.47264  -0.77788  -0.76902  -0.63753  -0.62565
 Alpha  occ. eigenvalues --   -0.61481  -0.61467  -0.61264  -0.61174
 Alpha virt. eigenvalues --    0.15976   0.16330   0.17084   0.17447   0.40884
 Alpha virt. eigenvalues --    0.45959   0.52349   0.54154   0.54653   0.57526
 Alpha virt. eigenvalues --    0.58118   0.63756   0.67029   0.70210   0.70683

 Mulliken charges:
               1
     1  N    0.005338
     2  N   -0.005593
     3  N   -0.007433
     4  N    0.007687
 Sum of Mulliken charges =  -0.00000

 Dipole moment (field-independent basis, Debye):
    X=             -0.0225    Y=              0.0220    Z=             -0.0000  Tot=              0.0314
 Quadrupole moment (field-independent basis, Debye-Ang):
   XX=            -21.2056   YY=            -22.7802   ZZ=            -20.4992
   XY=              0.7138   XZ=             -0.0000   YZ=              0.0000

 P4DQ=-218.7038887\MP4SDQ=-218.7147035\CCSD=-218.7103279\CCSD(T)=-218.7
 Normal termination of Gaussian 16 at Fri Feb  9 19:14:52 2024.
