 Gaussian 16, Revision A.03,
 Gaussian 16:  ES64L-G16RevA.03 25-Dec-2016

 ------------------
 #p CCSD(T)/cc-pVTZ
 ------------------

 ---------
 N2_N2_255
 ---------
 Symbolic Z-matrix:
 Charge =  0 Multiplicity = 1

                         Standard orientation:
 ---------------------------------------------------------------------
 Center     Atomic      Atomic             Coordinates (Angstroms)
 Number     Number       Type             X           Y           Z
 ---------------------------------------------------------------------
      1          7           0        0.000000    0.000000    3.290000
      2          7           0        0.000000    0.000000    2.200000
      3          7           0        0.000000    0.000000   -2.200000
      4          7           0        0.000000    0.000000   -3.290000
 ---------------------------------------------------------------------

 SCF Done:  E(RHF) =  -217.969556788     A.U. after    9 cycles
 E2 =    -0.7433606314D+00 EUMP2 =    -0.21871291741942D+03
 CCSD(T)
 CCSD(T)= -0.21874693528D+03

 The electronic state is 1-SGG.
 Alpha  occ. eigenvalues --  -15.67788 -15.67788 -15.67418 -15.67418  -1.47427
 Alpha  occ. eigenvalues --   -1.47426  -0.77426  -0.77343  -0.63268  -0.63121
 Alpha  occ. eigenvalues --   -0.61441  -0.61441  -0.61432  -0.61432
 Alpha virt. eigenvalues --    0.16572   0.16572   0.16777   0.16777   0.36398
 Alpha virt. eigenvalues --    0.47256   0.53917   0.56052   0.56052   0.56367
 Alpha virt. eigenvalues --    0.56367   0.61995   0.67324   0.67795   0.72816

 Mulliken charges:
               1
     1  N    0.002238
     2  N   -0.002238
     3  N   -0.002238
     4  N    0.002238
 Sum of Mulliken charges =  -0.00000

 Dipole moment (field-independent basis, Debye):
    X=              0.0000    Y=              0.0000    Z=             -0.0000  Tot=              0.0000
 Quadrupole moment (field-independent basis, Debye-Ang):
   XX=            -20.4980   YY=            -20.4980   ZZ=            -23.3943
   XY=              0.0000   XZ=              0.0000   YZ=             -0.0000

 SDQ=-218.714859\CCSD=-218.710529\CCSD(T)=-218.7469353\RMSD=9.878e-09\P
 Normal termination of Gaussian 16 at Fri Feb  9 19:58:57 2024.
