 Gaussian 16, Revision A.03,
 Gaussian 16:  ES64L-G16RevA.03 25-Dec-2016

 ------------------
 #p CCSD(T)/cc-pVTZ
 ------------------

 --------
 N2_N2_23
 --------
 Symbolic Z-matrix:
 Charge =  0 Multiplicity = 1

                         Standard orientation:
 ---------------------------------------------------------------------
 Center     Atomic      Atomic             Coordinates (Angstroms)
 Number     Number       Type             X           Y           Z
 ---------------------------------------------------------------------
      1          7           0       -0.817500   -0.912500    0.000000
      2          7           0        0.272500   -0.912500    0.000000
      3          7           0        0.272500    0.367500    0.000000
      4          7           0        0.272500    1.457500    0.000000
 ---------------------------------------------------------------------

 SCF Done:  E(RHF) =  -217.587774181     A.U. after   15 cycles
 E2 =    -0.7604012523D+00 EUMP2 =    -0.21834817543306D+03
 CCSD(T)
 CCSD(T)= -0.21838733028D+03

 The electronic state is 1-A'.
 Alpha  occ. eigenvalues --  -15.79988 -15.71040 -15.69113 -15.57832  -1.64147
 Alpha  occ. eigenvalues --   -1.49055  -1.06981  -0.81619  -0.77342  -0.72155
 Alpha  occ. eigenvalues --   -0.64486  -0.59732  -0.56216  -0.32957
 Alpha virt. eigenvalues --    0.09528   0.14521   0.20852   0.31948   0.40631
 Alpha virt. eigenvalues --    0.42280   0.48728   0.51077   0.55749   0.59219
 Alpha virt. eigenvalues --    0.60364   0.65895   0.70402   0.72119   0.75831

 Mulliken charges:
               1
     1  N   -0.334593
     2  N    0.062346
     3  N    0.314278
     4  N   -0.042031
 Sum of Mulliken charges =  -0.00000

 Dipole moment (field-independent basis, Debye):
    X=              1.4084    Y=              1.4646    Z=              0.0000  Tot=              2.0320
 Quadrupole moment (field-independent basis, Debye-Ang):
   XX=            -23.4861   YY=            -25.0625   ZZ=            -19.5038
   XY=             -0.9157   XZ=              0.0000   YZ=              0.0000

 =-218.3467435\CCSD=-218.344593\CCSD(T)=-218.3873303\RMSD=5.456e-09\PG=
 Normal termination of Gaussian 16 at Fri Feb  9 17:53:16 2024.
