 Gaussian 16, Revision A.03,
 Gaussian 16:  ES64L-G16RevA.03 25-Dec-2016

 ------------------
 #p CCSD(T)/cc-pVTZ
 ------------------

 ---------
 N2_N2_113
 ---------
 Symbolic Z-matrix:
 Charge =  0 Multiplicity = 1

                         Standard orientation:
 ---------------------------------------------------------------------
 Center     Atomic      Atomic             Coordinates (Angstroms)
 Number     Number       Type             X           Y           Z
 ---------------------------------------------------------------------
      1          7           0       -0.817500   -1.512500    0.000000
      2          7           0        0.272500   -1.512500    0.000000
      3          7           0        0.272500    0.967500    0.000000
      4          7           0        0.272500    2.057500    0.000000
 ---------------------------------------------------------------------

 SCF Done:  E(RHF) =  -217.954562944     A.U. after   12 cycles
 E2 =    -0.7485491800D+00 EUMP2 =    -0.21870311212353D+03
 CCSD(T)
 CCSD(T)= -0.21873633114D+03

 The electronic state is 1-A'.
 Alpha  occ. eigenvalues --  -15.67867 -15.67263 -15.66993 -15.66556  -1.47672
 Alpha  occ. eigenvalues --   -1.46769  -0.78954  -0.76570  -0.65916  -0.62451
 Alpha  occ. eigenvalues --   -0.61945  -0.61602  -0.60600  -0.57979
 Alpha virt. eigenvalues --    0.14369   0.15817   0.17546   0.19604   0.42083
 Alpha virt. eigenvalues --    0.45739   0.52763   0.55436   0.56442   0.57975
 Alpha virt. eigenvalues --    0.59910   0.62891   0.66309   0.72990   0.73053

 Mulliken charges:
               1
     1  N   -0.012952
     2  N    0.013070
     3  N    0.000586
     4  N   -0.000705
 Sum of Mulliken charges =  -0.00000

 Dipole moment (field-independent basis, Debye):
    X=              0.0721    Y=              0.1055    Z=              0.0000  Tot=              0.1277
 Quadrupole moment (field-independent basis, Debye-Ang):
   XX=            -21.9472   YY=            -22.2948   ZZ=            -20.4806
   XY=             -0.1095   XZ=              0.0000   YZ=              0.0000

 4SDQ=-218.7037019\CCSD=-218.6993096\CCSD(T)=-218.7363311\RMSD=8.197e-0
 Normal termination of Gaussian 16 at Fri Feb  9 18:44:41 2024.
