 Gaussian 16, Revision A.03,
 Gaussian 16:  ES64L-G16RevA.03 25-Dec-2016

 ------------------
 #p CCSD(T)/cc-pVTZ
 ------------------

 ---------
 N2_N2_286
 ---------
 Symbolic Z-matrix:
 Charge =  0 Multiplicity = 1

                         Standard orientation:
 ---------------------------------------------------------------------
 Center     Atomic      Atomic             Coordinates (Angstroms)
 Number     Number       Type             X           Y           Z
 ---------------------------------------------------------------------
      1          7           0        0.578060   -3.250560    0.000000
      2          7           0       -0.192687   -2.479814    0.000000
      3          7           0       -0.192687    2.320187   -0.000000
      4          7           0       -0.192687    3.410187   -0.000000
 ---------------------------------------------------------------------

 SCF Done:  E(RHF) =  -217.969595785     A.U. after   10 cycles
 E2 =    -0.7432917729D+00 EUMP2 =    -0.21871288755745D+03
 CCSD(T)
 CCSD(T)= -0.21874691844D+03

 The electronic state is 1-A'.
 Alpha  occ. eigenvalues --  -15.67864 -15.67804 -15.67494 -15.67434  -1.47499
 Alpha  occ. eigenvalues --   -1.47439  -0.77469  -0.77402  -0.63287  -0.63208
 Alpha  occ. eigenvalues --   -0.61510  -0.61509  -0.61451  -0.61448
 Alpha virt. eigenvalues --    0.16580   0.16589   0.16644   0.16676   0.40221
 Alpha virt. eigenvalues --    0.44670   0.54863   0.56079   0.56106   0.56241
 Alpha virt. eigenvalues --    0.56260   0.57871   0.67306   0.67465   0.73148

 Mulliken charges:
               1
     1  N   -0.000446
     2  N    0.000466
     3  N   -0.000192
     4  N    0.000172
 Sum of Mulliken charges =  -0.00000

 Dipole moment (field-independent basis, Debye):
    X=             -0.0050    Y=              0.0040    Z=             -0.0000  Tot=              0.0064
 Quadrupole moment (field-independent basis, Debye-Ang):
   XX=            -21.1956   YY=            -22.6392   ZZ=            -20.4969
   XY=              0.7015   XZ=             -0.0000   YZ=              0.0000

 P4DQ=-218.7040405\MP4SDQ=-218.7148408\CCSD=-218.7105215\CCSD(T)=-218.7
 Normal termination of Gaussian 16 at Fri Feb  9 20:16:00 2024.
