 Gaussian 16, Revision A.03,
 Gaussian 16:  ES64L-G16RevA.03 25-Dec-2016

 ------------------
 #p CCSD(T)/cc-pVTZ
 ------------------

 ---------
 N2_N2_195
 ---------
 Symbolic Z-matrix:
 Charge =  0 Multiplicity = 1

                         Standard orientation:
 ---------------------------------------------------------------------
 Center     Atomic      Atomic             Coordinates (Angstroms)
 Number     Number       Type             X           Y           Z
 ---------------------------------------------------------------------
      1          7           0        0.000000    0.000000    2.890000
      2          7           0        0.000000    0.000000    1.800000
      3          7           0        0.000000    0.000000   -1.800000
      4          7           0        0.000000    0.000000   -2.890000
 ---------------------------------------------------------------------

 SCF Done:  E(RHF) =  -217.969255569     A.U. after   10 cycles
 E2 =    -0.7436812399D+00 EUMP2 =    -0.21871293680855D+03
 CCSD(T)
 CCSD(T)= -0.21874691301D+03

 The electronic state is 1-SGG.
 Alpha  occ. eigenvalues --  -15.67704 -15.67704 -15.67333 -15.67333  -1.47358
 Alpha  occ. eigenvalues --   -1.47351  -0.77539  -0.77079  -0.63463  -0.62746
 Alpha  occ. eigenvalues --   -0.61391  -0.61391  -0.61341  -0.61341
 Alpha virt. eigenvalues --    0.16270   0.16270   0.17202   0.17202   0.37128
 Alpha virt. eigenvalues --    0.47388   0.52599   0.55412   0.55412   0.56976
 Alpha virt. eigenvalues --    0.56976   0.66522   0.67253   0.71225   0.71225

 Mulliken charges:
               1
     1  N    0.007608
     2  N   -0.007608
     3  N   -0.007608
     4  N    0.007608
 Sum of Mulliken charges =  -0.00000

 Dipole moment (field-independent basis, Debye):
    X=              0.0000    Y=              0.0000    Z=             -0.0000  Tot=              0.0000
 Quadrupole moment (field-independent basis, Debye-Ang):
   XX=            -20.4999   YY=            -20.4999   ZZ=            -23.4898
   XY=              0.0000   XZ=              0.0000   YZ=             -0.0000

 4SDQ=-218.7148232\CCSD=-218.7104618\CCSD(T)=-218.746913\RMSD=6.982e-10
 Normal termination of Gaussian 16 at Fri Feb  9 19:28:08 2024.
