 Gaussian 16, Revision A.03,
 Gaussian 16:  ES64L-G16RevA.03 25-Dec-2016

 ------------------
 #p CCSD(T)/cc-pVTZ
 ------------------

 -------
 N2_N2_4
 -------
 Symbolic Z-matrix:
 Charge =  0 Multiplicity = 1

                         Standard orientation:
 ---------------------------------------------------------------------
 Center     Atomic      Atomic             Coordinates (Angstroms)
 Number     Number       Type             X           Y           Z
 ---------------------------------------------------------------------
      1          7           0        0.578060   -1.370560    0.000000
      2          7           0       -0.192687   -0.599813    0.000000
      3          7           0       -0.192687    0.440187   -0.000000
      4          7           0       -0.192687    1.530186   -0.000000
 ---------------------------------------------------------------------

 SCF Done:  E(RHF) =  -217.512786839     A.U. after   15 cycles
 E2 =    -0.7521595585D+00 EUMP2 =    -0.21826494639725D+03
 CCSD(T)
 CCSD(T)= -0.21830183283D+03

 The electronic state is 1-A'.
 Alpha  occ. eigenvalues --  -15.79623 -15.70016 -15.68799 -15.58463  -1.68709
 Alpha  occ. eigenvalues --   -1.47811  -1.28858  -0.85799  -0.84649  -0.70833
 Alpha  occ. eigenvalues --   -0.64220  -0.57639  -0.53425  -0.31469
 Alpha virt. eigenvalues --    0.04498   0.14847   0.30054   0.39356   0.41499
 Alpha virt. eigenvalues --    0.49747   0.49909   0.51596   0.52328   0.62565
 Alpha virt. eigenvalues --    0.64481   0.67073   0.71541   0.72035   0.76711

 Mulliken charges:
               1
     1  N   -0.423839
     2  N    0.207822
     3  N    0.378633
     4  N   -0.162616
 Sum of Mulliken charges =  -0.00000

 Dipole moment (field-independent basis, Debye):
    X=             -1.1964    Y=              1.4565    Z=             -0.0000  Tot=              1.8849
 Quadrupole moment (field-independent basis, Debye-Ang):
   XX=            -22.4615   YY=            -28.2486   ZZ=            -18.9610
   XY=              1.8832   XZ=             -0.0000   YZ=              0.0000

 DQ=-218.2507644\MP4SDQ=-218.2625052\CCSD=-218.2604201\CCSD(T)=-218.301
 Normal termination of Gaussian 16 at Fri Feb  9 17:42:14 2024.
