 Gaussian 16, Revision A.03,
 Gaussian 16:  ES64L-G16RevA.03 25-Dec-2016

 ------------------
 #p CCSD(T)/cc-pVTZ
 ------------------

 ---------
 N2_N2_170
 ---------
 Symbolic Z-matrix:
 Charge =  0 Multiplicity = 1

                         Standard orientation:
 ---------------------------------------------------------------------
 Center     Atomic      Atomic             Coordinates (Angstroms)
 Number     Number       Type             X           Y           Z
 ---------------------------------------------------------------------
      1          7           0       -0.817500   -1.892500    0.000000
      2          7           0        0.272500   -1.892500    0.000000
      3          7           0        0.272500    1.347500    0.000000
      4          7           0        0.272500    2.437500    0.000000
 ---------------------------------------------------------------------

 SCF Done:  E(RHF) =  -217.968856047     A.U. after   12 cycles
 E2 =    -0.7445675132D+00 EUMP2 =    -0.21871342355985D+03
 CCSD(T)
 CCSD(T)= -0.21874726430D+03

 The electronic state is 1-A'.
 Alpha  occ. eigenvalues --  -15.67997 -15.67623 -15.67579 -15.67207  -1.47644
 Alpha  occ. eigenvalues --   -1.47208  -0.77740  -0.77170  -0.63926  -0.62867
 Alpha  occ. eigenvalues --   -0.61681  -0.61663  -0.61218  -0.60856
 Alpha virt. eigenvalues --    0.15456   0.16292   0.16934   0.17817   0.40800
 Alpha virt. eigenvalues --    0.43472   0.51251   0.54051   0.55095   0.56937
 Alpha virt. eigenvalues --    0.57985   0.61515   0.66713   0.69223   0.72738

 Mulliken charges:
               1
     1  N   -0.005026
     2  N    0.005574
     3  N   -0.007563
     4  N    0.007014
 Sum of Mulliken charges =  -0.00000

 Dipole moment (field-independent basis, Debye):
    X=              0.0194    Y=              0.0413    Z=              0.0000  Tot=              0.0457
 Quadrupole moment (field-independent basis, Debye-Ang):
   XX=            -21.9074   YY=            -21.9837   ZZ=            -20.4955
   XY=             -0.0231   XZ=              0.0000   YZ=              0.0000

 SDQ=-218.7150304\CCSD=-218.7107038\CCSD(T)=-218.7472643\RMSD=2.008e-09
 Normal termination of Gaussian 16 at Fri Feb  9 19:15:24 2024.
