 Gaussian 16, Revision A.03,
 Gaussian 16:  ES64L-G16RevA.03 25-Dec-2016

 ------------------
 #p CCSD(T)/cc-pVTZ
 ------------------

 ---------
 N2_N2_221
 ---------
 Symbolic Z-matrix:
 Charge =  0 Multiplicity = 1

                         Standard orientation:
 ---------------------------------------------------------------------
 Center     Atomic      Atomic             Coordinates (Angstroms)
 Number     Number       Type             X           Y           Z
 ---------------------------------------------------------------------
      1          7           0       -0.817500   -2.232500    0.000000
      2          7           0        0.272500   -2.232500    0.000000
      3          7           0        0.272500    1.687500    0.000000
      4          7           0        0.272500    2.777500    0.000000
 ---------------------------------------------------------------------

 SCF Done:  E(RHF) =  -217.969698708     A.U. after   11 cycles
 E2 =    -0.7436521118D+00 EUMP2 =    -0.21871335081990D+03
 CCSD(T)
 CCSD(T)= -0.21874732319D+03

 The electronic state is 1-A'.
 Alpha  occ. eigenvalues --  -15.67978 -15.67732 -15.67607 -15.67362  -1.47608
 Alpha  occ. eigenvalues --   -1.47355  -0.77593  -0.77330  -0.63472  -0.63107
 Alpha  occ. eigenvalues --   -0.61621  -0.61619  -0.61372  -0.61319
 Alpha virt. eigenvalues --    0.16126   0.16458   0.16742   0.17062   0.39178
 Alpha virt. eigenvalues --    0.42888   0.52190   0.55429   0.55691   0.56450
 Alpha virt. eigenvalues --    0.56817   0.62298   0.67017   0.69766   0.72975

 Mulliken charges:
               1
     1  N   -0.001786
     2  N    0.002210
     3  N   -0.003719
     4  N    0.003295
 Sum of Mulliken charges =   0.00000

 Dipole moment (field-independent basis, Debye):
    X=              0.0074    Y=              0.0165    Z=              0.0000  Tot=              0.0181
 Quadrupole moment (field-independent basis, Debye-Ang):
   XX=            -21.8972   YY=            -21.8949   ZZ=            -20.4964
   XY=             -0.0072   XZ=              0.0000   YZ=              0.0000

 SDQ=-218.7151968\CCSD=-218.7108804\CCSD(T)=-218.7473232\RMSD=9.873e-09
 Normal termination of Gaussian 16 at Fri Feb  9 19:41:33 2024.
