 Gaussian 16, Revision A.03,
 Gaussian 16:  ES64L-G16RevA.03 25-Dec-2016

 ------------------
 #p CCSD(T)/cc-pVTZ
 ------------------

 ---------
 N2_N2_141
 ---------
 Symbolic Z-matrix:
 Charge =  0 Multiplicity = 1

                         Standard orientation:
 ---------------------------------------------------------------------
 Center     Atomic      Atomic             Coordinates (Angstroms)
 Number     Number       Type             X           Y           Z
 ---------------------------------------------------------------------
      1          7           0        0.000000    0.000000    2.530000
      2          7           0        0.000000    0.000000    1.440000
      3          7           0        0.000000    0.000000   -1.440000
      4          7           0        0.000000    0.000000   -2.530000
 ---------------------------------------------------------------------

 SCF Done:  E(RHF) =  -217.965924003     A.U. after   10 cycles
 E2 =    -0.7445995211D+00 EUMP2 =    -0.21871052352363D+03
 CCSD(T)
 CCSD(T)= -0.21874438445D+03

 The electronic state is 1-SGG.
 Alpha  occ. eigenvalues --  -15.67444 -15.67444 -15.67058 -15.67058  -1.47193
 Alpha  occ. eigenvalues --   -1.47144  -0.78253  -0.76228  -0.64229  -0.61447
 Alpha  occ. eigenvalues --   -0.61315  -0.61315  -0.61067  -0.61067
 Alpha virt. eigenvalues --    0.15543   0.15543   0.18216   0.18216   0.45768
 Alpha virt. eigenvalues --    0.45811   0.53935   0.54146   0.54146   0.58143
 Alpha virt. eigenvalues --    0.58143   0.66651   0.67139   0.70078   0.70078

 Mulliken charges:
               1
     1  N   -0.001284
     2  N    0.001284
     3  N    0.001284
     4  N   -0.001284
 Sum of Mulliken charges =  -0.00000

 Dipole moment (field-independent basis, Debye):
    X=              0.0000    Y=             -0.0000    Z=              0.0000  Tot=              0.0000
 Quadrupole moment (field-independent basis, Debye-Ang):
   XX=            -20.5042   YY=            -20.5042   ZZ=            -23.7250
   XY=              0.0000   XZ=              0.0000   YZ=             -0.0000

 4SDQ=-218.7122586\CCSD=-218.7078072\CCSD(T)=-218.7443844\RMSD=8.166e-1
 Normal termination of Gaussian 16 at Fri Feb  9 18:59:07 2024.
