 Gaussian 16, Revision A.03,
 Gaussian 16:  ES64L-G16RevA.03 25-Dec-2016

 ------------------
 #p CCSD(T)/cc-pVTZ
 ------------------

 --------
 N2_N2_41
 --------
 Symbolic Z-matrix:
 Charge =  0 Multiplicity = 1

                         Standard orientation:
 ---------------------------------------------------------------------
 Center     Atomic      Atomic             Coordinates (Angstroms)
 Number     Number       Type             X           Y           Z
 ---------------------------------------------------------------------
      1          7           0       -0.817500   -1.032500    0.000000
      2          7           0        0.272500   -1.032500    0.000000
      3          7           0        0.272500    0.487500    0.000000
      4          7           0        0.272500    1.577500    0.000000
 ---------------------------------------------------------------------

 SCF Done:  E(RHF) =  -217.694256888     A.U. after   15 cycles
 E2 =    -0.7615284887D+00 EUMP2 =    -0.21845578537644D+03
 CCSD(T)
 CCSD(T)= -0.21849424552D+03

 The electronic state is 1-A'.
 Alpha  occ. eigenvalues --  -15.70820 -15.70259 -15.68718 -15.58265  -1.53948
 Alpha  occ. eigenvalues --   -1.46747  -0.96159  -0.76690  -0.71269  -0.69015
 Alpha  occ. eigenvalues --   -0.63613  -0.59872  -0.57567  -0.38087
 Alpha virt. eigenvalues --    0.12411   0.13642   0.19935   0.24287   0.41385
 Alpha virt. eigenvalues --    0.43152   0.50276   0.52690   0.56008   0.58632
 Alpha virt. eigenvalues --    0.61342   0.66119   0.73435   0.73619   0.76061

 Mulliken charges:
               1
     1  N   -0.214499
     2  N    0.087946
     3  N    0.116122
     4  N    0.010432
 Sum of Mulliken charges =  -0.00000

 Dipole moment (field-independent basis, Debye):
    X=              1.0413    Y=              1.2531    Z=              0.0000  Tot=              1.6293
 Quadrupole moment (field-independent basis, Debye-Ang):
   XX=            -22.8547   YY=            -23.7134   ZZ=            -20.0213
   XY=             -0.9318   XZ=              0.0000   YZ=              0.0000

 =-218.4569923\CCSD=-218.4532653\CCSD(T)=-218.4942455\RMSD=4.771e-09\PG
 Normal termination of Gaussian 16 at Fri Feb  9 18:05:53 2024.
