 Gaussian 16, Revision A.03,
 Gaussian 16:  ES64L-G16RevA.03 25-Dec-2016

 ------------------
 #p CCSD(T)/cc-pVTZ
 ------------------

 --------
 N2_N2_47
 --------
 Symbolic Z-matrix:
 Charge =  0 Multiplicity = 1

                         Standard orientation:
 ---------------------------------------------------------------------
 Center     Atomic      Atomic             Coordinates (Angstroms)
 Number     Number       Type             X           Y           Z
 ---------------------------------------------------------------------
      1          7           0       -0.817500   -1.072500    0.000000
      2          7           0        0.272500   -1.072500    0.000000
      3          7           0        0.272500    0.527500    0.000000
      4          7           0        0.272500    1.617500    0.000000
 ---------------------------------------------------------------------

 SCF Done:  E(RHF) =  -217.738998186     A.U. after   15 cycles
 E2 =    -0.7644474764D+00 EUMP2 =    -0.21850344566278D+03
 CCSD(T)
 CCSD(T)= -0.21853905970D+03

 The electronic state is 1-A'.
 Alpha  occ. eigenvalues --  -15.69337 -15.68331 -15.67987 -15.60104  -1.51894
 Alpha  occ. eigenvalues --   -1.46253  -0.93027  -0.75997  -0.70389  -0.66994
 Alpha  occ. eigenvalues --   -0.63264  -0.60195  -0.57863  -0.40867
 Alpha virt. eigenvalues --    0.13243   0.13551   0.19628   0.23547   0.41558
 Alpha virt. eigenvalues --    0.43641   0.50837   0.53134   0.55765   0.58699
 Alpha virt. eigenvalues --    0.61523   0.66317   0.73499   0.74409   0.76343

 Mulliken charges:
               1
     1  N   -0.155255
     2  N    0.083138
     3  N    0.063806
     4  N    0.008312
 Sum of Mulliken charges =   0.00000

 Dipole moment (field-independent basis, Debye):
    X=              0.7868    Y=              0.9129    Z=              0.0000  Tot=              1.2051
 Quadrupole moment (field-independent basis, Debye-Ang):
   XX=            -22.5566   YY=            -23.4082   ZZ=            -20.1436
   XY=             -0.7935   XZ=              0.0000   YZ=              0.0000

 DQ=-218.5029672\CCSD=-218.4986038\CCSD(T)=-218.5390597\RMSD=4.253e-09\
 Normal termination of Gaussian 16 at Fri Feb  9 18:09:28 2024.
