 Gaussian 16, Revision A.03,
 Gaussian 16:  ES64L-G16RevA.03 25-Dec-2016

 ------------------
 #p CCSD(T)/cc-pVTZ
 ------------------

 --------
 N2_N2_10
 --------
 Symbolic Z-matrix:
 Charge =  0 Multiplicity = 1

                         Standard orientation:
 ---------------------------------------------------------------------
 Center     Atomic      Atomic             Coordinates (Angstroms)
 Number     Number       Type             X           Y           Z
 ---------------------------------------------------------------------
      1          7           0        0.578060   -1.410560    0.000000
      2          7           0       -0.192687   -0.639814   -0.000000
      3          7           0       -0.192687    0.480187   -0.000000
      4          7           0       -0.192687    1.570186   -0.000000
 ---------------------------------------------------------------------

 SCF Done:  E(RHF) =  -217.572993212     A.U. after   15 cycles
 E2 =    -0.7566795869D+00 EUMP2 =    -0.21832967279892D+03
 CCSD(T)
 CCSD(T)= -0.21836760324D+03

 The electronic state is 1-A'.
 Alpha  occ. eigenvalues --  -15.80434 -15.70882 -15.69714 -15.57698  -1.64030
 Alpha  occ. eigenvalues --   -1.47964  -1.25122  -0.82524  -0.81102  -0.72311
 Alpha  occ. eigenvalues --   -0.63867  -0.58293  -0.54892  -0.30546
 Alpha virt. eigenvalues --    0.05171   0.12988   0.28293   0.38062   0.41356
 Alpha virt. eigenvalues --    0.49538   0.50120   0.52520   0.53393   0.62490
 Alpha virt. eigenvalues --    0.63097   0.67575   0.71290   0.72841   0.72855

 Mulliken charges:
               1
     1  N   -0.402553
     2  N    0.131569
     3  N    0.380054
     4  N   -0.109071
 Sum of Mulliken charges =  -0.00000

 Dipole moment (field-independent basis, Debye):
    X=             -1.0944    Y=              2.0455    Z=             -0.0000  Tot=              2.3199
 Quadrupole moment (field-independent basis, Debye-Ang):
   XX=            -22.6669   YY=            -27.9382   ZZ=            -19.1566
   XY=              1.7673   XZ=             -0.0000   YZ=              0.0000

 =-218.3147652\MP4SDQ=-218.327157\CCSD=-218.3249807\CCSD(T)=-218.367603
 Normal termination of Gaussian 16 at Fri Feb  9 17:45:30 2024.
