 Gaussian 16, Revision A.03,
 Gaussian 16:  ES64L-G16RevA.03 25-Dec-2016

 ------------------
 #p CCSD(T)/cc-pVTZ
 ------------------

 -------
 N2_N2_2
 -------
 Symbolic Z-matrix:
 Charge =  0 Multiplicity = 1

                         Standard orientation:
 ---------------------------------------------------------------------
 Center     Atomic      Atomic             Coordinates (Angstroms)
 Number     Number       Type             X           Y           Z
 ---------------------------------------------------------------------
      1          7           0       -0.817500   -0.772500    0.000000
      2          7           0        0.272500   -0.772500    0.000000
      3          7           0        0.272500    0.227500    0.000000
      4          7           0        0.272500    1.317500    0.000000
 ---------------------------------------------------------------------

 SCF Done:  E(RHF) =  -217.346056487     A.U. after   15 cycles
 E2 =    -0.7567000873D+00 EUMP2 =    -0.21810275657448D+03
 CCSD(T)
 CCSD(T)= -0.21813591299D+03

 The electronic state is 1-A'.
 Alpha  occ. eigenvalues --  -15.82323 -15.68095 -15.65011 -15.62446  -1.84665
 Alpha  occ. eigenvalues --   -1.47869  -1.21038  -0.90156  -0.89062  -0.68986
 Alpha  occ. eigenvalues --   -0.66300  -0.56865  -0.51384  -0.34516
 Alpha virt. eigenvalues --    0.05831   0.19730   0.25358   0.37410   0.41448
 Alpha virt. eigenvalues --    0.45285   0.49053   0.50990   0.53411   0.59644
 Alpha virt. eigenvalues --    0.60478   0.65708   0.68382   0.73987   0.78052

 Mulliken charges:
               1
     1  N   -0.285247
     2  N    0.049055
     3  N    0.410166
     4  N   -0.173974
 Sum of Mulliken charges =  -0.00000

 Dipole moment (field-independent basis, Debye):
    X=              1.0465    Y=             -0.0181    Z=              0.0000  Tot=              1.0467
 Quadrupole moment (field-independent basis, Debye-Ang):
   XX=            -22.9829   YY=            -25.8066   ZZ=            -18.8646
   XY=             -1.0137   XZ=              0.0000   YZ=              0.0000

 =-218.0973865\CCSD=-218.0953455\CCSD(T)=-218.135913\RMSD=5.728e-09\PG=
 Normal termination of Gaussian 16 at Fri Feb  9 17:41:13 2024.
