 Gaussian 16, Revision A.03,
 Gaussian 16:  ES64L-G16RevA.03 25-Dec-2016

 ------------------
 #p CCSD(T)/cc-pVTZ
 ------------------

 --------
 N2_N2_94
 --------
 Symbolic Z-matrix:
 Charge =  0 Multiplicity = 1

                         Standard orientation:
 ---------------------------------------------------------------------
 Center     Atomic      Atomic             Coordinates (Angstroms)
 Number     Number       Type             X           Y           Z
 ---------------------------------------------------------------------
      1          7           0        0.578060   -1.970560    0.000000
      2          7           0       -0.192687   -1.199813    0.000000
      3          7           0       -0.192687    1.040186   -0.000000
      4          7           0       -0.192687    2.130187   -0.000000
 ---------------------------------------------------------------------

 SCF Done:  E(RHF) =  -217.941356353     A.U. after   13 cycles
 E2 =    -0.7489931682D+00 EUMP2 =    -0.21869034952101D+03
 CCSD(T)
 CCSD(T)= -0.21872353177D+03

 The electronic state is 1-A'.
 Alpha  occ. eigenvalues --  -15.67492 -15.66697 -15.66545 -15.66125  -1.47342
 Alpha  occ. eigenvalues --   -1.46553  -0.81492  -0.74635  -0.66046  -0.61967
 Alpha  occ. eigenvalues --   -0.61716  -0.60716  -0.60325  -0.57039
 Alpha virt. eigenvalues --    0.14390   0.15888   0.18999   0.19717   0.45337
 Alpha virt. eigenvalues --    0.45682   0.52236   0.53472   0.59778   0.59780
 Alpha virt. eigenvalues --    0.63092   0.64288   0.66250   0.72215   0.80156

 Mulliken charges:
               1
     1  N   -0.004812
     2  N   -0.002158
     3  N    0.006501
     4  N    0.000469
 Sum of Mulliken charges =  -0.00000

 Dipole moment (field-independent basis, Debye):
    X=             -0.0902    Y=              0.1676    Z=             -0.0000  Tot=              0.1903
 Quadrupole moment (field-independent basis, Debye-Ang):
   XX=            -21.2659   YY=            -23.3472   ZZ=            -20.4807
   XY=              0.7586   XZ=             -0.0000   YZ=              0.0000

 DQ=-218.6802885\MP4SDQ=-218.6911384\CCSD=-218.6864176\CCSD(T)=-218.723
 Normal termination of Gaussian 16 at Fri Feb  9 18:34:41 2024.
