 Gaussian 16, Revision A.03,
 Gaussian 16:  ES64L-G16RevA.03 25-Dec-2016

 ------------------
 #p CCSD(T)/cc-pVTZ
 ------------------

 ---------
 N2_N2_223
 ---------
 Symbolic Z-matrix:
 Charge =  0 Multiplicity = 1

                         Standard orientation:
 ---------------------------------------------------------------------
 Center     Atomic      Atomic             Coordinates (Angstroms)
 Number     Number       Type             X           Y           Z
 ---------------------------------------------------------------------
      1          7           0        0.578060   -2.830560    0.000000
      2          7           0       -0.192687   -2.059813    0.000000
      3          7           0       -0.192687    1.900187    0.000000
      4          7           0       -0.192687    2.990186    0.000000
 ---------------------------------------------------------------------

 SCF Done:  E(RHF) =  -217.969567259     A.U. after   11 cycles
 E2 =    -0.7435136818D+00 EUMP2 =    -0.21871308094031D+03
 CCSD(T)
 CCSD(T)= -0.21874707306D+03

 The electronic state is 1-A'.
 Alpha  occ. eigenvalues --  -15.67849 -15.67749 -15.67479 -15.67378  -1.47486
 Alpha  occ. eigenvalues --   -1.47385  -0.77506  -0.77290  -0.63368  -0.63052
 Alpha  occ. eigenvalues --   -0.61498  -0.61497  -0.61396  -0.61386
 Alpha virt. eigenvalues --    0.16425   0.16477   0.16705   0.16891   0.37570
 Alpha virt. eigenvalues --    0.46034   0.52990   0.55554   0.55744   0.56610
 Alpha virt. eigenvalues --    0.56786   0.62319   0.67165   0.68282   0.72129

 Mulliken charges:
               1
     1  N    0.001693
     2  N   -0.001626
     3  N   -0.004174
     4  N    0.004107
 Sum of Mulliken charges =  -0.00000

 Dipole moment (field-independent basis, Debye):
    X=             -0.0105    Y=              0.0083    Z=             -0.0000  Tot=              0.0134
 Quadrupole moment (field-independent basis, Debye-Ang):
   XX=            -21.1979   YY=            -22.6740   ZZ=            -20.4978
   XY=              0.7058   XZ=             -0.0000   YZ=              0.0000

 P4DQ=-218.7041764\MP4SDQ=-218.7149823\CCSD=-218.7106471\CCSD(T)=-218.7
 Normal termination of Gaussian 16 at Fri Feb  9 19:42:31 2024.
