 Gaussian 16, Revision A.03,
 Gaussian 16:  ES64L-G16RevA.03 25-Dec-2016

 ------------------
 #p CCSD(T)/cc-pVTZ
 ------------------

 ---------
 N2_N2_298
 ---------
 Symbolic Z-matrix:
 Charge =  0 Multiplicity = 1

                         Standard orientation:
 ---------------------------------------------------------------------
 Center     Atomic      Atomic             Coordinates (Angstroms)
 Number     Number       Type             X           Y           Z
 ---------------------------------------------------------------------
      1          7           0        0.578060   -3.330560   -0.000000
      2          7           0       -0.192687   -2.559814   -0.000000
      3          7           0       -0.192687    2.400187    0.000000
      4          7           0       -0.192687    3.490186    0.000000
 ---------------------------------------------------------------------

 SCF Done:  E(RHF) =  -217.969593263     A.U. after   10 cycles
 E2 =    -0.7432738005D+00 EUMP2 =    -0.21871286706389D+03
 CCSD(T)
 CCSD(T)= -0.21874690199D+03

 The electronic state is 1-A'.
 Alpha  occ. eigenvalues --  -15.67866 -15.67811 -15.67495 -15.67440  -1.47501
 Alpha  occ. eigenvalues --   -1.47446  -0.77469  -0.77410  -0.63285  -0.63219
 Alpha  occ. eigenvalues --   -0.61511  -0.61511  -0.61457  -0.61455
 Alpha virt. eigenvalues --    0.16587   0.16593   0.16643   0.16661   0.40788
 Alpha virt. eigenvalues --    0.44287   0.55170   0.56106   0.56122   0.56218
 Alpha virt. eigenvalues --    0.56227   0.57359   0.67319   0.67429   0.73222

 Mulliken charges:
               1
     1  N   -0.000494
     2  N    0.000506
     3  N   -0.000044
     4  N    0.000032
 Sum of Mulliken charges =  -0.00000

 Dipole moment (field-independent basis, Debye):
    X=             -0.0045    Y=              0.0036    Z=              0.0000  Tot=              0.0058
 Quadrupole moment (field-independent basis, Debye-Ang):
   XX=            -21.1954   YY=            -22.6360   ZZ=            -20.4968
   XY=              0.7011   XZ=              0.0000   YZ=             -0.0000

 DQ=-218.704025\MP4SDQ=-218.714825\CCSD=-218.7105072\CCSD(T)=-218.74690
 Normal termination of Gaussian 16 at Fri Feb  9 20:22:15 2024.
