 Gaussian 16, Revision A.03,
 Gaussian 16:  ES64L-G16RevA.03 25-Dec-2016

 ------------------
 #p CCSD(T)/cc-pVTZ
 ------------------

 --------
 N2_N2_36
 --------
 Symbolic Z-matrix:
 Charge =  0 Multiplicity = 1

                         Standard orientation:
 ---------------------------------------------------------------------
 Center     Atomic      Atomic             Coordinates (Angstroms)
 Number     Number       Type             X           Y           Z
 ---------------------------------------------------------------------
      1          7           0        0.000000    0.000000    1.830000
      2          7           0        0.000000    0.000000    0.740000
      3          7           0        0.000000    0.000000   -0.740000
      4          7           0        0.000000    0.000000   -1.830000
 ---------------------------------------------------------------------

 SCF Done:  E(RHF) =  -217.481528143     A.U. after   11 cycles
 E2 =    -0.8105051820D+00 EUMP2 =    -0.21829203332496D+03
 CCSD(T)
 CCSD(T)= -0.21832952420D+03

 Unable to determine electronic state:  an orbital has unidentified symmetry.
 Alpha  occ. eigenvalues --  -15.79395 -15.79351 -15.66660 -15.66660  -1.52982
 Alpha  occ. eigenvalues --   -1.48675  -1.08420  -0.74466  -0.71636  -0.69861
 Alpha  occ. eigenvalues --   -0.66363  -0.64164  -0.61245  -0.24337
 Alpha virt. eigenvalues --    0.07798   0.07835   0.14079   0.22321   0.44537
 Alpha virt. eigenvalues --    0.45421   0.50763   0.52031   0.52442   0.60723
 Alpha virt. eigenvalues --    0.61587   0.64044   0.71845   0.72874   0.79199

 Mulliken charges:
               1
     1  N   -0.107273
     2  N    0.107273
     3  N    0.107273
     4  N   -0.107273
 Sum of Mulliken charges =  -0.00000

 Dipole moment (field-independent basis, Debye):
    X=             -0.0000    Y=              0.0000    Z=             -0.0000  Tot=              0.0000
 Quadrupole moment (field-independent basis, Debye-Ang):
   XX=            -22.6117   YY=            -19.6351   ZZ=            -29.1441
   XY=              0.0000   XZ=              0.0000   YZ=             -0.0000

 6618\CCSD=-218.2752413\CCSD(T)=-218.3295242\RMSD=4.010e-09\PG=D*H [C*(
 Normal termination of Gaussian 16 at Fri Feb  9 18:01:33 2024.
