 Gaussian 16, Revision A.03,
 Gaussian 16:  ES64L-G16RevA.03 25-Dec-2016

 ------------------
 #p CCSD(T)/cc-pVTZ
 ------------------

 --------
 N2_N2_28
 --------
 Symbolic Z-matrix:
 Charge =  0 Multiplicity = 1

                         Standard orientation:
 ---------------------------------------------------------------------
 Center     Atomic      Atomic             Coordinates (Angstroms)
 Number     Number       Type             X           Y           Z
 ---------------------------------------------------------------------
      1          7           0        0.578060   -1.530560    0.000000
      2          7           0       -0.192687   -0.759813    0.000000
      3          7           0       -0.192687    0.600186   -0.000000
      4          7           0       -0.192687    1.690187   -0.000000
 ---------------------------------------------------------------------

 SCF Done:  E(RHF) =  -217.641224449     A.U. after   17 cycles
 E2 =    -0.7639003461D+00 EUMP2 =    -0.21840512479545D+03
 CCSD(T)
 CCSD(T)= -0.21844395362D+03

 The electronic state is 1-A'.
 Alpha  occ. eigenvalues --  -15.78210 -15.74812 -15.66364 -15.56642  -1.56854
 Alpha  occ. eigenvalues --   -1.44965  -1.11373  -0.75879  -0.73825  -0.73193
 Alpha  occ. eigenvalues --   -0.63760  -0.58092  -0.56413  -0.31687
 Alpha virt. eigenvalues --    0.06818   0.10714   0.25625   0.29840   0.40814
 Alpha virt. eigenvalues --    0.48777   0.51000   0.51523   0.58300   0.58684
 Alpha virt. eigenvalues --    0.62423   0.65291   0.70160   0.74443   0.75958

 Mulliken charges:
               1
     1  N   -0.292650
     2  N   -0.030601
     3  N    0.266328
     4  N    0.056923
 Sum of Mulliken charges =  -0.00000

 Dipole moment (field-independent basis, Debye):
    X=             -0.7315    Y=              3.2985    Z=             -0.0000  Tot=              3.3786
 Quadrupole moment (field-independent basis, Debye-Ang):
   XX=            -22.7027   YY=            -25.9867   ZZ=            -19.7954
   XY=              1.1797   XZ=             -0.0000   YZ=              0.0000

 4DQ=-218.3917132\MP4SDQ=-218.405775\CCSD=-218.4012194\CCSD(T)=-218.443
 Normal termination of Gaussian 16 at Fri Feb  9 17:56:18 2024.
