 Gaussian 16, Revision A.03,
 Gaussian 16:  ES64L-G16RevA.03 25-Dec-2016

 ------------------
 #p CCSD(T)/cc-pVTZ
 ------------------

 ---------
 N2_N2_136
 ---------
 Symbolic Z-matrix:
 Charge =  0 Multiplicity = 1

                         Standard orientation:
 ---------------------------------------------------------------------
 Center     Atomic      Atomic             Coordinates (Angstroms)
 Number     Number       Type             X           Y           Z
 ---------------------------------------------------------------------
      1          7           0        0.578060   -2.250560   -0.000000
      2          7           0       -0.192687   -1.479813   -0.000000
      3          7           0       -0.192687    1.320187    0.000000
      4          7           0       -0.192687    2.410186    0.000000
 ---------------------------------------------------------------------

 SCF Done:  E(RHF) =  -217.965673829     A.U. after   12 cycles
 E2 =    -0.7450175530D+00 EUMP2 =    -0.21871069138217D+03
 CCSD(T)
 CCSD(T)= -0.21874446913D+03

 The electronic state is 1-A'.
 Alpha  occ. eigenvalues --  -15.67681 -15.67371 -15.67287 -15.67000  -1.47393
 Alpha  occ. eigenvalues --   -1.47092  -0.78448  -0.76282  -0.64417  -0.62027
 Alpha  occ. eigenvalues --   -0.61488  -0.61378  -0.61050  -0.60562
 Alpha virt. eigenvalues --    0.15469   0.16197   0.17631   0.18121   0.43922
 Alpha virt. eigenvalues --    0.46187   0.52875   0.53782   0.55101   0.58397
 Alpha virt. eigenvalues --    0.59539   0.63721   0.66907   0.70552   0.72656

 Mulliken charges:
               1
     1  N    0.005455
     2  N   -0.005999
     3  N   -0.000354
     4  N    0.000898
 Sum of Mulliken charges =  -0.00000

 Dipole moment (field-independent basis, Debye):
    X=             -0.0390    Y=              0.0461    Z=              0.0000  Tot=              0.0604
 Quadrupole moment (field-independent basis, Debye-Ang):
   XX=            -21.2191   YY=            -22.9331   ZZ=            -20.5001
   XY=              0.7247   XZ=              0.0000   YZ=             -0.0000

 P4DQ=-218.7014635\MP4SDQ=-218.712283\CCSD=-218.7078408\CCSD(T)=-218.74
 Normal termination of Gaussian 16 at Fri Feb  9 18:56:35 2024.
