 Gaussian 16, Revision A.03,
 Gaussian 16:  ES64L-G16RevA.03 25-Dec-2016

 ------------------
 #p CCSD(T)/cc-pVTZ
 ------------------

 ---------
 N2_N2_143
 ---------
 Symbolic Z-matrix:
 Charge =  0 Multiplicity = 1

                         Standard orientation:
 ---------------------------------------------------------------------
 Center     Atomic      Atomic             Coordinates (Angstroms)
 Number     Number       Type             X           Y           Z
 ---------------------------------------------------------------------
      1          7           0       -0.817500   -1.712500    0.000000
      2          7           0        0.272500   -1.712500    0.000000
      3          7           0        0.272500    1.167500    0.000000
      4          7           0        0.272500    2.257500    0.000000
 ---------------------------------------------------------------------

 SCF Done:  E(RHF) =  -217.966112611     A.U. after   12 cycles
 E2 =    -0.7457153401D+00 EUMP2 =    -0.21871182795092D+03
 CCSD(T)
 CCSD(T)= -0.21874549372D+03

 The electronic state is 1-A'.
 Alpha  occ. eigenvalues --  -15.67966 -15.67563 -15.67387 -15.67008  -1.47656
 Alpha  occ. eigenvalues --   -1.47052  -0.78019  -0.76971  -0.64586  -0.62675
 Alpha  occ. eigenvalues --   -0.61749  -0.61675  -0.61028  -0.60047
 Alpha virt. eigenvalues --    0.14975   0.16120   0.17143   0.18501   0.41946
 Alpha virt. eigenvalues --    0.45273   0.52721   0.53203   0.55211   0.57514
 Alpha virt. eigenvalues --    0.58845   0.60127   0.66440   0.70219   0.72784

 Mulliken charges:
               1
     1  N   -0.007049
     2  N    0.007880
     3  N   -0.004535
     4  N    0.003704
 Sum of Mulliken charges =  -0.00000

 Dipole moment (field-independent basis, Debye):
    X=              0.0346    Y=              0.0656    Z=              0.0000  Tot=              0.0741
 Quadrupole moment (field-independent basis, Debye-Ang):
   XX=            -21.9206   YY=            -22.0914   ZZ=            -20.4933
   XY=             -0.0476   XZ=              0.0000   YZ=              0.0000

 SDQ=-218.7131359\CCSD=-218.708794\CCSD(T)=-218.7454937\RMSD=2.177e-09\
 Normal termination of Gaussian 16 at Fri Feb  9 19:00:14 2024.
