 Gaussian 16, Revision A.03,
 Gaussian 16:  ES64L-G16RevA.03 25-Dec-2016

 ------------------
 #p CCSD(T)/cc-pVTZ
 ------------------

 ---------
 N2_N2_246
 ---------
 Symbolic Z-matrix:
 Charge =  0 Multiplicity = 1

                         Standard orientation:
 ---------------------------------------------------------------------
 Center     Atomic      Atomic             Coordinates (Angstroms)
 Number     Number       Type             X           Y           Z
 ---------------------------------------------------------------------
      1          7           0        0.000000    0.000000    3.230000
      2          7           0        0.000000    0.000000    2.140000
      3          7           0        0.000000    0.000000   -2.140000
      4          7           0        0.000000    0.000000   -3.230000
 ---------------------------------------------------------------------

 SCF Done:  E(RHF) =  -217.969546362     A.U. after    9 cycles
 E2 =    -0.7433913696D+00 EUMP2 =    -0.21871293773208D+03
 CCSD(T)
 CCSD(T)= -0.21874695067D+03

 The electronic state is 1-SGG.
 Alpha  occ. eigenvalues --  -15.67781 -15.67781 -15.67410 -15.67410  -1.47420
 Alpha  occ. eigenvalues --   -1.47419  -0.77430  -0.77322  -0.63279  -0.63092
 Alpha  occ. eigenvalues --   -0.61435  -0.61435  -0.61424  -0.61424
 Alpha virt. eigenvalues --    0.16549   0.16549   0.16813   0.16813   0.35882
 Alpha virt. eigenvalues --    0.47506   0.53674   0.56006   0.56006   0.56419
 Alpha virt. eigenvalues --    0.56419   0.63348   0.67313   0.68100   0.72654

 Mulliken charges:
               1
     1  N    0.003195
     2  N   -0.003195
     3  N   -0.003195
     4  N    0.003195
 Sum of Mulliken charges =  -0.00000

 Dipole moment (field-independent basis, Debye):
    X=              0.0000    Y=             -0.0000    Z=              0.0000  Tot=              0.0000
 Quadrupole moment (field-independent basis, Debye-Ang):
   XX=            -20.4982   YY=            -20.4982   ZZ=            -23.4028
   XY=              0.0000   XZ=              0.0000   YZ=             -0.0000

 P4SDQ=-218.7148732\CCSD=-218.7105403\CCSD(T)=-218.7469507\RMSD=9.928e-
 Normal termination of Gaussian 16 at Fri Feb  9 19:54:16 2024.
