 Gaussian 16, Revision A.03,
 Gaussian 16:  ES64L-G16RevA.03 25-Dec-2016

 ------------------
 #p CCSD(T)/cc-pVTZ
 ------------------

 --------
 N2_N2_89
 --------
 Symbolic Z-matrix:
 Charge =  0 Multiplicity = 1

                         Standard orientation:
 ---------------------------------------------------------------------
 Center     Atomic      Atomic             Coordinates (Angstroms)
 Number     Number       Type             X           Y           Z
 ---------------------------------------------------------------------
      1          7           0       -0.817500   -1.352500    0.000000
      2          7           0        0.272500   -1.352500    0.000000
      3          7           0        0.272500    0.807500    0.000000
      4          7           0        0.272500    1.897500    0.000000
 ---------------------------------------------------------------------

 SCF Done:  E(RHF) =  -217.925578057     A.U. after   13 cycles
 E2 =    -0.7534479395D+00 EUMP2 =    -0.21867902599644D+03
 CCSD(T)
 CCSD(T)= -0.21871153748D+03

 The electronic state is 1-A'.
 Alpha  occ. eigenvalues --  -15.67766 -15.66670 -15.66591 -15.65772  -1.47831
 Alpha  occ. eigenvalues --   -1.46433  -0.81055  -0.76090  -0.67347  -0.62419
 Alpha  occ. eigenvalues --   -0.62409  -0.61308  -0.59947  -0.54603
 Alpha virt. eigenvalues --    0.13861   0.15406   0.18079   0.20818   0.42011
 Alpha virt. eigenvalues --    0.45318   0.53019   0.55342   0.55917   0.57461
 Alpha virt. eigenvalues --    0.60781   0.66376   0.71282   0.73385   0.75628

 Mulliken charges:
               1
     1  N   -0.026292
     2  N    0.025759
     3  N   -0.001883
     4  N    0.002416
 Sum of Mulliken charges =   0.00000

 Dipole moment (field-independent basis, Debye):
    X=              0.1439    Y=              0.1622    Z=              0.0000  Tot=              0.2168
 Quadrupole moment (field-independent basis, Debye-Ang):
   XX=            -21.9895   YY=            -22.5397   ZZ=            -20.4433
   XY=             -0.2160   XZ=              0.0000   YZ=              0.0000

 DQ=-218.6784665\CCSD=-218.6739547\CCSD(T)=-218.7115375\RMSD=4.827e-09\
 Normal termination of Gaussian 16 at Fri Feb  9 18:32:02 2024.
