 Gaussian 16, Revision A.03,
 Gaussian 16:  ES64L-G16RevA.03 25-Dec-2016

 ------------------
 #p CCSD(T)/cc-pVTZ
 ------------------

 ---------
 N2_N2_277
 ---------
 Symbolic Z-matrix:
 Charge =  0 Multiplicity = 1

                         Standard orientation:
 ---------------------------------------------------------------------
 Center     Atomic      Atomic             Coordinates (Angstroms)
 Number     Number       Type             X           Y           Z
 ---------------------------------------------------------------------
      1          7           0        0.578060   -3.190560    0.000000
      2          7           0       -0.192687   -2.419813    0.000000
      3          7           0       -0.192687    2.260187   -0.000000
      4          7           0       -0.192687    3.350186   -0.000000
 ---------------------------------------------------------------------

 SCF Done:  E(RHF) =  -217.969597875     A.U. after   10 cycles
 E2 =    -0.7433088446D+00 EUMP2 =    -0.21871290671962D+03
 CCSD(T)
 CCSD(T)= -0.21874693395D+03

 The electronic state is 1-A'.
 Alpha  occ. eigenvalues --  -15.67863 -15.67799 -15.67492 -15.67428  -1.47498
 Alpha  occ. eigenvalues --   -1.47434  -0.77469  -0.77394  -0.63290  -0.63197
 Alpha  occ. eigenvalues --   -0.61508  -0.61508  -0.61445  -0.61442
 Alpha virt. eigenvalues --    0.16572   0.16583   0.16645   0.16691   0.39747
 Alpha virt. eigenvalues --    0.44959   0.54605   0.56050   0.56087   0.56265
 Alpha virt. eigenvalues --    0.56294   0.58354   0.67291   0.67504   0.73074

 Mulliken charges:
               1
     1  N   -0.000357
     2  N    0.000386
     3  N   -0.000387
     4  N    0.000358
 Sum of Mulliken charges =   0.00000

 Dipole moment (field-independent basis, Debye):
    X=             -0.0055    Y=              0.0043    Z=             -0.0000  Tot=              0.0070
 Quadrupole moment (field-independent basis, Debye-Ang):
   XX=            -21.1958   YY=            -22.6419   ZZ=            -20.4970
   XY=              0.7018   XZ=             -0.0000   YZ=              0.0000

 DQ=-218.7040548\MP4SDQ=-218.7148555\CCSD=-218.7105349\CCSD(T)=-218.746
 Normal termination of Gaussian 16 at Fri Feb  9 20:11:25 2024.
