 Gaussian 16, Revision A.03,
 Gaussian 16:  ES64L-G16RevA.03 25-Dec-2016

 ------------------
 #p CCSD(T)/cc-pVTZ
 ------------------

 ---------
 N2_N2_242
 ---------
 Symbolic Z-matrix:
 Charge =  0 Multiplicity = 1

                         Standard orientation:
 ---------------------------------------------------------------------
 Center     Atomic      Atomic             Coordinates (Angstroms)
 Number     Number       Type             X           Y           Z
 ---------------------------------------------------------------------
      1          7           0       -0.817500   -2.372500    0.000000
      2          7           0        0.272500   -2.372500    0.000000
      3          7           0        0.272500    1.827500    0.000000
      4          7           0        0.272500    2.917500    0.000000
 ---------------------------------------------------------------------

 SCF Done:  E(RHF) =  -217.969701514     A.U. after   10 cycles
 E2 =    -0.7434847002D+00 EUMP2 =    -0.21871318621452D+03
 CCSD(T)
 CCSD(T)= -0.21874718511D+03

 The electronic state is 1-A'.
 Alpha  occ. eigenvalues --  -15.67965 -15.67759 -15.67594 -15.67389  -1.47595
 Alpha  occ. eigenvalues --   -1.47386  -0.77572  -0.77360  -0.63413  -0.63157
 Alpha  occ. eigenvalues --   -0.61606  -0.61605  -0.61401  -0.61373
 Alpha virt. eigenvalues --    0.16296   0.16488   0.16707   0.16895   0.40069
 Alpha virt. eigenvalues --    0.42836   0.52865   0.55735   0.55875   0.56328
 Alpha virt. eigenvalues --    0.56543   0.61330   0.67087   0.68926   0.72181

 Mulliken charges:
               1
     1  N   -0.001099
     2  N    0.001403
     3  N   -0.001831
     4  N    0.001528
 Sum of Mulliken charges =   0.00000

 Dipole moment (field-independent basis, Debye):
    X=              0.0053    Y=              0.0124    Z=              0.0000  Tot=              0.0135
 Quadrupole moment (field-independent basis, Debye-Ang):
   XX=            -21.8956   YY=            -21.8868   ZZ=            -20.4965
   XY=             -0.0052   XZ=              0.0000   YZ=              0.0000

 SDQ=-218.715078\CCSD=-218.7107638\CCSD(T)=-218.7471851\RMSD=9.876e-09\
 Normal termination of Gaussian 16 at Fri Feb  9 19:52:17 2024.
