 Gaussian 16, Revision A.03,
 Gaussian 16:  ES64L-G16RevA.03 25-Dec-2016

 ------------------
 #p CCSD(T)/cc-pVTZ
 ------------------

 ---------
 N2_N2_164
 ---------
 Symbolic Z-matrix:
 Charge =  0 Multiplicity = 1

                         Standard orientation:
 ---------------------------------------------------------------------
 Center     Atomic      Atomic             Coordinates (Angstroms)
 Number     Number       Type             X           Y           Z
 ---------------------------------------------------------------------
      1          7           0       -0.817500   -1.852500    0.000000
      2          7           0        0.272500   -1.852500    0.000000
      3          7           0        0.272500    1.307500    0.000000
      4          7           0        0.272500    2.397500    0.000000
 ---------------------------------------------------------------------

 SCF Done:  E(RHF) =  -217.968513401     A.U. after   12 cycles
 E2 =    -0.7447595228D+00 EUMP2 =    -0.21871327292344D+03
 CCSD(T)
 CCSD(T)= -0.21874708538D+03

 The electronic state is 1-A'.
 Alpha  occ. eigenvalues --  -15.67994 -15.67617 -15.67546 -15.67173  -1.47648
 Alpha  occ. eigenvalues --   -1.47179  -0.77780  -0.77135  -0.64037  -0.62828
 Alpha  occ. eigenvalues --   -0.61692  -0.61668  -0.61186  -0.60730
 Alpha virt. eigenvalues --    0.15355   0.16260   0.16971   0.17948   0.41210
 Alpha virt. eigenvalues --    0.43762   0.51319   0.53850   0.55069   0.57022
 Alpha virt. eigenvalues --    0.58165   0.61242   0.66653   0.69326   0.72734

 Mulliken charges:
               1
     1  N   -0.005481
     2  N    0.006084
     3  N   -0.007323
     4  N    0.006720
 Sum of Mulliken charges =   0.00000

 Dipole moment (field-independent basis, Debye):
    X=              0.0220    Y=              0.0459    Z=              0.0000  Tot=              0.0509
 Quadrupole moment (field-independent basis, Debye-Ang):
   XX=            -21.9097   YY=            -22.0029   ZZ=            -20.4952
   XY=             -0.0271   XZ=              0.0000   YZ=              0.0000

 SDQ=-218.7148298\CCSD=-218.7105009\CCSD(T)=-218.7470854\RMSD=2.015e-09
 Normal termination of Gaussian 16 at Fri Feb  9 19:12:19 2024.
