 Gaussian 16, Revision A.03,
 Gaussian 16:  ES64L-G16RevA.03 25-Dec-2016

 ------------------
 #p CCSD(T)/cc-pVTZ
 ------------------

 --------
 N2_N2_12
 --------
 Symbolic Z-matrix:
 Charge =  0 Multiplicity = 1

                         Standard orientation:
 ---------------------------------------------------------------------
 Center     Atomic      Atomic             Coordinates (Angstroms)
 Number     Number       Type             X           Y           Z
 ---------------------------------------------------------------------
      1          7           0        0.000000    0.000000    1.670000
      2          7           0        0.000000    0.000000    0.580000
      3          7           0        0.000000    0.000000   -0.580000
      4          7           0        0.000000    0.000000   -1.670000
 ---------------------------------------------------------------------

 SCF Done:  E(RHF) =  -217.595018629     A.U. after   11 cycles
 E2 =    -0.7577911328D+00 EUMP2 =    -0.21835280976199D+03
 CCSD(T)
 CCSD(T)= -0.21839193946D+03

 Unable to determine electronic state:  an orbital has unidentified symmetry.
 Alpha  occ. eigenvalues --  -15.76862 -15.76673 -15.64093 -15.64093  -1.59896
 Alpha  occ. eigenvalues --   -1.47077  -1.27081  -0.81467  -0.79143  -0.67801
 Alpha  occ. eigenvalues --   -0.66129  -0.60992  -0.56138  -0.28968
 Alpha virt. eigenvalues --    0.05595   0.23060   0.28557   0.34294   0.44818
 Alpha virt. eigenvalues --    0.45567   0.46442   0.50361   0.51206   0.59026
 Alpha virt. eigenvalues --    0.61790   0.63435   0.71700   0.72755   0.79783

 Mulliken charges:
               1
     1  N   -0.126189
     2  N    0.126189
     3  N    0.126189
     4  N   -0.126189
 Sum of Mulliken charges =  -0.00000

 Dipole moment (field-independent basis, Debye):
    X=             -0.0000    Y=              0.0000    Z=              0.0000  Tot=              0.0000
 Quadrupole moment (field-independent basis, Debye-Ang):
   XX=            -21.7872   YY=            -19.0941   ZZ=            -30.1361
   XY=              0.0000   XZ=              0.0000   YZ=             -0.0000

 22171\CCSD=-218.3498141\CCSD(T)=-218.3919395\RMSD=5.310e-09\PG=D*H [C*
 Normal termination of Gaussian 16 at Fri Feb  9 17:46:33 2024.
