 Gaussian 16, Revision A.03,
 Gaussian 16:  ES64L-G16RevA.03 25-Dec-2016

 ------------------
 #p CCSD(T)/cc-pVTZ
 ------------------

 --------
 N2_N2_98
 --------
 Symbolic Z-matrix:
 Charge =  0 Multiplicity = 1

                         Standard orientation:
 ---------------------------------------------------------------------
 Center     Atomic      Atomic             Coordinates (Angstroms)
 Number     Number       Type             X           Y           Z
 ---------------------------------------------------------------------
      1          7           0       -0.817500   -1.412500    0.000000
      2          7           0        0.272500   -1.412500    0.000000
      3          7           0        0.272500    0.867500    0.000000
      4          7           0        0.272500    1.957500    0.000000
 ---------------------------------------------------------------------

 SCF Done:  E(RHF) =  -217.939937057     A.U. after   13 cycles
 E2 =    -0.7512190060D+00 EUMP2 =    -0.21869115606304D+03
 CCSD(T)
 CCSD(T)= -0.21872397469D+03

 The electronic state is 1-A'.
 Alpha  occ. eigenvalues --  -15.67800 -15.66931 -15.66732 -15.66139  -1.47730
 Alpha  occ. eigenvalues --   -1.46572  -0.80036  -0.76283  -0.66794  -0.62398
 Alpha  occ. eigenvalues --   -0.62176  -0.61457  -0.60236  -0.56123
 Alpha virt. eigenvalues --    0.14050   0.15588   0.17851   0.20326   0.42052
 Alpha virt. eigenvalues --    0.45491   0.52867   0.55625   0.56461   0.57207
 Alpha virt. eigenvalues --    0.60461   0.66246   0.68335   0.73266   0.74856

 Mulliken charges:
               1
     1  N   -0.020057
     2  N    0.019614
     3  N   -0.000509
     4  N    0.000953
 Sum of Mulliken charges =   0.00000

 Dipole moment (field-independent basis, Debye):
    X=              0.1095    Y=              0.1354    Z=              0.0000  Tot=              0.1741
 Quadrupole moment (field-independent basis, Debye-Ang):
   XX=            -21.9694   YY=            -22.4382   ZZ=            -20.4619
   XY=             -0.1672   XZ=              0.0000   YZ=              0.0000

 SDQ=-218.6911055\CCSD=-218.6866524\CCSD(T)=-218.7239747\RMSD=3.817e-09
 Normal termination of Gaussian 16 at Fri Feb  9 18:36:49 2024.
