 Gaussian 16, Revision A.03,
 Gaussian 16:  ES64L-G16RevA.03 25-Dec-2016

 ------------------
 #p CCSD(T)/cc-pVTZ
 ------------------

 ---------
 N2_N2_219
 ---------
 Symbolic Z-matrix:
 Charge =  0 Multiplicity = 1

                         Standard orientation:
 ---------------------------------------------------------------------
 Center     Atomic      Atomic             Coordinates (Angstroms)
 Number     Number       Type             X           Y           Z
 ---------------------------------------------------------------------
      1          7           0        0.000000    0.000000    3.050000
      2          7           0        0.000000    0.000000    1.960000
      3          7           0        0.000000    0.000000   -1.960000
      4          7           0        0.000000    0.000000   -3.050000
 ---------------------------------------------------------------------

 SCF Done:  E(RHF) =  -217.969466690     A.U. after   10 cycles
 E2 =    -0.7435142448D+00 EUMP2 =    -0.21871298093465D+03
 CCSD(T)
 CCSD(T)= -0.21874697706D+03

 The electronic state is 1-SGG.
 Alpha  occ. eigenvalues --  -15.67749 -15.67749 -15.67379 -15.67379  -1.47393
 Alpha  occ. eigenvalues --   -1.47390  -0.77462  -0.77228  -0.63343  -0.62959
 Alpha  occ. eigenvalues --   -0.61415  -0.61415  -0.61390  -0.61390
 Alpha virt. eigenvalues --    0.16439   0.16439   0.16973   0.16973   0.35529
 Alpha virt. eigenvalues --    0.47749   0.53033   0.55775   0.55775   0.56652
 Alpha virt. eigenvalues --    0.56652   0.66098   0.67281   0.71989   0.71989

 Mulliken charges:
               1
     1  N    0.006347
     2  N   -0.006347
     3  N   -0.006347
     4  N    0.006347
 Sum of Mulliken charges =  -0.00000

 Dipole moment (field-independent basis, Debye):
    X=              0.0000    Y=              0.0000    Z=              0.0000  Tot=              0.0000
 Quadrupole moment (field-independent basis, Debye-Ang):
   XX=            -20.4990   YY=            -20.4990   ZZ=            -23.4390
   XY=              0.0000   XZ=              0.0000   YZ=             -0.0000

 4SDQ=-218.7148944\CCSD=-218.7105495\CCSD(T)=-218.7469771\RMSD=6.587e-1
 Normal termination of Gaussian 16 at Fri Feb  9 19:40:30 2024.
