 Gaussian 16, Revision A.03,
 Gaussian 16:  ES64L-G16RevA.03 25-Dec-2016

 ------------------
 #p CCSD(T)/cc-pVTZ
 ------------------

 ---------
 N2_N2_201
 ---------
 Symbolic Z-matrix:
 Charge =  0 Multiplicity = 1

                         Standard orientation:
 ---------------------------------------------------------------------
 Center     Atomic      Atomic             Coordinates (Angstroms)
 Number     Number       Type             X           Y           Z
 ---------------------------------------------------------------------
      1          7           0        0.000000    0.000000    2.930000
      2          7           0        0.000000    0.000000    1.840000
      3          7           0        0.000000    0.000000   -1.840000
      4          7           0        0.000000    0.000000   -2.930000
 ---------------------------------------------------------------------

 SCF Done:  E(RHF) =  -217.969330220     A.U. after   10 cycles
 E2 =    -0.7436322746D+00 EUMP2 =    -0.21871296249477D+03
 CCSD(T)
 CCSD(T)= -0.21874694445D+03

 The electronic state is 1-SGG.
 Alpha  occ. eigenvalues --  -15.67717 -15.67717 -15.67347 -15.67347  -1.47368
 Alpha  occ. eigenvalues --   -1.47362  -0.77513  -0.77124  -0.63425  -0.62811
 Alpha  occ. eigenvalues --   -0.61397  -0.61397  -0.61356  -0.61356
 Alpha virt. eigenvalues --    0.16320   0.16320   0.17135   0.17135   0.36551
 Alpha virt. eigenvalues --    0.47520   0.52693   0.55519   0.55519   0.56883
 Alpha virt. eigenvalues --    0.56883   0.66473   0.67260   0.71423   0.71423

 Mulliken charges:
               1
     1  N    0.007540
     2  N   -0.007540
     3  N   -0.007540
     4  N    0.007540
 Sum of Mulliken charges =  -0.00000

 Dipole moment (field-independent basis, Debye):
    X=              0.0000    Y=              0.0000    Z=              0.0000  Tot=              0.0000
 Quadrupole moment (field-independent basis, Debye-Ang):
   XX=            -20.4997   YY=            -20.4997   ZZ=            -23.4751
   XY=              0.0000   XZ=              0.0000   YZ=             -0.0000

 4SDQ=-218.7148567\CCSD=-218.7105002\CCSD(T)=-218.7469445\RMSD=6.876e-1
 Normal termination of Gaussian 16 at Fri Feb  9 19:31:10 2024.
