 Gaussian 16, Revision A.03,
 Gaussian 16:  ES64L-G16RevA.03 25-Dec-2016

 ------------------
 #p CCSD(T)/cc-pVTZ
 ------------------

 ---------
 N2_N2_290
 ---------
 Symbolic Z-matrix:
 Charge =  0 Multiplicity = 1

                         Standard orientation:
 ---------------------------------------------------------------------
 Center     Atomic      Atomic             Coordinates (Angstroms)
 Number     Number       Type             X           Y           Z
 ---------------------------------------------------------------------
      1          7           0       -0.817500   -2.692500    0.000000
      2          7           0        0.272500   -2.692500    0.000000
      3          7           0        0.272500    2.147500    0.000000
      4          7           0        0.272500    3.237500    0.000000
 ---------------------------------------------------------------------

 SCF Done:  E(RHF) =  -217.969645265     A.U. after    9 cycles
 E2 =    -0.7433108340D+00 EUMP2 =    -0.21871295609895D+03
 CCSD(T)
 CCSD(T)= -0.21874698649D+03

 The electronic state is 1-A'.
 Alpha  occ. eigenvalues --  -15.67941 -15.67795 -15.67571 -15.67425  -1.47573
 Alpha  occ. eigenvalues --   -1.47426  -0.77546  -0.77399  -0.63362  -0.63211
 Alpha  occ. eigenvalues --   -0.61583  -0.61583  -0.61440  -0.61430
 Alpha virt. eigenvalues --    0.16490   0.16521   0.16664   0.16704   0.42036
 Alpha virt. eigenvalues --    0.42758   0.54646   0.56034   0.56055   0.56183
 Alpha virt. eigenvalues --    0.56255   0.57982   0.67228   0.67546   0.72887

 Mulliken charges:
               1
     1  N   -0.000403
     2  N    0.000465
     3  N   -0.000246
     4  N    0.000183
 Sum of Mulliken charges =  -0.00000

 Dipole moment (field-independent basis, Debye):
    X=              0.0029    Y=              0.0089    Z=              0.0000  Tot=              0.0094
 Quadrupole moment (field-independent basis, Debye-Ang):
   XX=            -21.8937   YY=            -21.8905   ZZ=            -20.4963
   XY=             -0.0033   XZ=              0.0000   YZ=              0.0000

 4SDQ=-218.714899\CCSD=-218.7105873\CCSD(T)=-218.7469865\RMSD=9.373e-09
 Normal termination of Gaussian 16 at Fri Feb  9 20:18:06 2024.
