 Gaussian 16, Revision A.03,
 Gaussian 16:  ES64L-G16RevA.03 25-Dec-2016

 ------------------
 #p CCSD(T)/cc-pVTZ
 ------------------

 ---------
 N2_N2_260
 ---------
 Symbolic Z-matrix:
 Charge =  0 Multiplicity = 1

                         Standard orientation:
 ---------------------------------------------------------------------
 Center     Atomic      Atomic             Coordinates (Angstroms)
 Number     Number       Type             X           Y           Z
 ---------------------------------------------------------------------
      1          7           0       -0.817500   -2.492500    0.000000
      2          7           0        0.272500   -2.492500    0.000000
      3          7           0        0.272500    1.947500    0.000000
      4          7           0        0.272500    3.037500    0.000000
 ---------------------------------------------------------------------

 SCF Done:  E(RHF) =  -217.969681119     A.U. after    9 cycles
 E2 =    -0.7433944710D+00 EUMP2 =    -0.21871307559002D+03
 CCSD(T)
 CCSD(T)= -0.21874709011D+03

 The electronic state is 1-A'.
 Alpha  occ. eigenvalues --  -15.67954 -15.67775 -15.67584 -15.67405  -1.47585
 Alpha  occ. eigenvalues --   -1.47404  -0.77560  -0.77378  -0.63386  -0.63184
 Alpha  occ. eigenvalues --   -0.61596  -0.61595  -0.61418  -0.61401
 Alpha virt. eigenvalues --    0.16396   0.16504   0.16686   0.16798   0.40982
 Alpha virt. eigenvalues --    0.42803   0.53533   0.55898   0.55973   0.56254
 Alpha virt. eigenvalues --    0.56390   0.59987   0.67145   0.68080   0.72392

 Mulliken charges:
               1
     1  N   -0.000726
     2  N    0.000916
     3  N   -0.000863
     4  N    0.000673
 Sum of Mulliken charges =  -0.00000

 Dipole moment (field-independent basis, Debye):
    X=              0.0041    Y=              0.0106    Z=              0.0000  Tot=              0.0114
 Quadrupole moment (field-independent basis, Debye-Ang):
   XX=            -21.8947   YY=            -21.8868   ZZ=            -20.4965
   XY=             -0.0042   XZ=              0.0000   YZ=              0.0000

 4SDQ=-218.7149932\CCSD=-218.7106803\CCSD(T)=-218.7470901\RMSD=9.558e-0
 Normal termination of Gaussian 16 at Fri Feb  9 20:02:24 2024.
