 Gaussian 16, Revision A.03,
 Gaussian 16:  ES64L-G16RevA.03 25-Dec-2016

 ------------------
 #p CCSD(T)/cc-pVTZ
 ------------------

 -------
 N2_N2_5
 -------
 Symbolic Z-matrix:
 Charge =  0 Multiplicity = 1

                         Standard orientation:
 ---------------------------------------------------------------------
 Center     Atomic      Atomic             Coordinates (Angstroms)
 Number     Number       Type             X           Y           Z
 ---------------------------------------------------------------------
      1          7           0       -0.817500   -0.792500    0.000000
      2          7           0        0.272500   -0.792500    0.000000
      3          7           0        0.272500    0.247500    0.000000
      4          7           0        0.272500    1.337500    0.000000
 ---------------------------------------------------------------------

 SCF Done:  E(RHF) =  -217.411587722     A.U. after   15 cycles
 E2 =    -0.7582752146D+00 EUMP2 =    -0.21816986293686D+03
 CCSD(T)
 CCSD(T)= -0.21820339945D+03

 The electronic state is 1-A'.
 Alpha  occ. eigenvalues --  -15.82223 -15.67967 -15.66145 -15.61813  -1.81107
 Alpha  occ. eigenvalues --   -1.48226  -1.18807  -0.87859  -0.87791  -0.69456
 Alpha  occ. eigenvalues --   -0.65959  -0.57587  -0.52286  -0.34070
 Alpha virt. eigenvalues --    0.06523   0.18787   0.24398   0.37506   0.41493
 Alpha virt. eigenvalues --    0.44747   0.49447   0.50223   0.53788   0.59794
 Alpha virt. eigenvalues --    0.60336   0.65492   0.68967   0.74355   0.77014

 Mulliken charges:
               1
     1  N   -0.297315
     2  N    0.047994
     3  N    0.405086
     4  N   -0.155764
 Sum of Mulliken charges =  -0.00000

 Dipole moment (field-independent basis, Debye):
    X=              1.0996    Y=              0.2533    Z=              0.0000  Tot=              1.1284
 Quadrupole moment (field-independent basis, Debye-Ang):
   XX=            -23.0825   YY=            -25.7498   ZZ=            -18.9631
   XY=             -0.9473   XZ=              0.0000   YZ=              0.0000

 DQ=-218.1645313\CCSD=-218.1624619\CCSD(T)=-218.2033994\RMSD=5.192e-09\
 Normal termination of Gaussian 16 at Fri Feb  9 17:42:46 2024.
