 Gaussian 16, Revision A.03,
 Gaussian 16:  ES64L-G16RevA.03 25-Dec-2016

 ------------------
 #p CCSD(T)/cc-pVTZ
 ------------------

 ---------
 N2_N2_103
 ---------
 Symbolic Z-matrix:
 Charge =  0 Multiplicity = 1

                         Standard orientation:
 ---------------------------------------------------------------------
 Center     Atomic      Atomic             Coordinates (Angstroms)
 Number     Number       Type             X           Y           Z
 ---------------------------------------------------------------------
      1          7           0        0.578060   -2.030560    0.000000
      2          7           0       -0.192687   -1.259813    0.000000
      3          7           0       -0.192687    1.100187   -0.000000
      4          7           0       -0.192687    2.190186   -0.000000
 ---------------------------------------------------------------------

 SCF Done:  E(RHF) =  -217.950863360     A.U. after   13 cycles
 E2 =    -0.7476141968D+00 EUMP2 =    -0.21869847755724D+03
 CCSD(T)
 CCSD(T)= -0.21873186474D+03

 The electronic state is 1-A'.
 Alpha  occ. eigenvalues --  -15.67515 -15.66883 -15.66807 -15.66405  -1.47332
 Alpha  occ. eigenvalues --   -1.46718  -0.80432  -0.75084  -0.65636  -0.61881
 Alpha  occ. eigenvalues --   -0.61614  -0.60930  -0.60551  -0.58244
 Alpha virt. eigenvalues --    0.14686   0.15984   0.18605   0.19276   0.45229
 Alpha virt. eigenvalues --    0.45740   0.52284   0.53431   0.59244   0.59457
 Alpha virt. eigenvalues --    0.62537   0.63800   0.66470   0.71682   0.78675

 Mulliken charges:
               1
     1  N   -0.000392
     2  N   -0.003984
     3  N    0.006138
     4  N   -0.001761
 Sum of Mulliken charges =   0.00000

 Dipole moment (field-independent basis, Debye):
    X=             -0.0745    Y=              0.1221    Z=             -0.0000  Tot=              0.1430
 Quadrupole moment (field-independent basis, Debye-Ang):
   XX=            -21.2498   YY=            -23.2327   ZZ=            -20.4897
   XY=              0.7486   XZ=             -0.0000   YZ=              0.0000

 P4DQ=-218.6887047\MP4SDQ=-218.6995395\CCSD=-218.6949171\CCSD(T)=-218.7
 Normal termination of Gaussian 16 at Fri Feb  9 18:39:25 2024.
