 Gaussian 16, Revision A.03,
 Gaussian 16:  ES64L-G16RevA.03 25-Dec-2016

 ------------------
 #p CCSD(T)/cc-pVTZ
 ------------------

 --------
 N2_N2_58
 --------
 Symbolic Z-matrix:
 Charge =  0 Multiplicity = 1

                         Standard orientation:
 ---------------------------------------------------------------------
 Center     Atomic      Atomic             Coordinates (Angstroms)
 Number     Number       Type             X           Y           Z
 ---------------------------------------------------------------------
      1          7           0        0.578060   -1.730560   -0.000000
      2          7           0       -0.192687   -0.959813   -0.000000
      3          7           0       -0.192687    0.800187    0.000000
      4          7           0       -0.192687    1.890186    0.000000
 ---------------------------------------------------------------------

 SCF Done:  E(RHF) =  -217.837170183     A.U. after   14 cycles
 E2 =    -0.7615288179D+00 EUMP2 =    -0.21859869900082D+03
 CCSD(T)
 CCSD(T)= -0.21863026485D+03

 The electronic state is 1-A'.
 Alpha  occ. eigenvalues --  -15.68411 -15.66664 -15.64689 -15.64000  -1.48450
 Alpha  occ. eigenvalues --   -1.45408  -0.90962  -0.72766  -0.67420  -0.63606
 Alpha  occ. eigenvalues --   -0.63474  -0.59416  -0.58714  -0.47235
 Alpha virt. eigenvalues --    0.12285   0.14846   0.21825   0.22275   0.44064
 Alpha virt. eigenvalues --    0.46573   0.52376   0.53683   0.60279   0.61255
 Alpha virt. eigenvalues --    0.62505   0.64145   0.68337   0.74627   0.81370

 Mulliken charges:
               1
     1  N   -0.053425
     2  N    0.003098
     3  N    0.027634
     4  N    0.022693
 Sum of Mulliken charges =  -0.00000

 Dipole moment (field-independent basis, Debye):
    X=             -0.2102    Y=              0.8075    Z=             -0.0000  Tot=              0.8344
 Quadrupole moment (field-independent basis, Debye-Ang):
   XX=            -21.4962   YY=            -23.9537   ZZ=            -20.3682
   XY=              0.8060   XZ=              0.0000   YZ=             -0.0000

 DQ=-218.5858524\MP4SDQ=-218.5971543\CCSD=-218.591416\CCSD(T)=-218.6302
 Normal termination of Gaussian 16 at Fri Feb  9 18:15:33 2024.
