 Gaussian 16, Revision A.03,
 Gaussian 16:  ES64L-G16RevA.03 25-Dec-2016

 ------------------
 #p CCSD(T)/cc-pVTZ
 ------------------

 ---------
 N2_N2_214
 ---------
 Symbolic Z-matrix:
 Charge =  0 Multiplicity = 1

                         Standard orientation:
 ---------------------------------------------------------------------
 Center     Atomic      Atomic             Coordinates (Angstroms)
 Number     Number       Type             X           Y           Z
 ---------------------------------------------------------------------
      1          7           0        0.578060   -2.770560   -0.000000
      2          7           0       -0.192687   -1.999813   -0.000000
      3          7           0       -0.192687    1.840187    0.000000
      4          7           0       -0.192687    2.930186    0.000000
 ---------------------------------------------------------------------

 SCF Done:  E(RHF) =  -217.969537814     A.U. after   11 cycles
 E2 =    -0.7435724751D+00 EUMP2 =    -0.21871311028866D+03
 CCSD(T)
 CCSD(T)= -0.21874709413D+03

 The electronic state is 1-A'.
 Alpha  occ. eigenvalues --  -15.67845 -15.67735 -15.67474 -15.67364  -1.47482
 Alpha  occ. eigenvalues --   -1.47372  -0.77525  -0.77256  -0.63399  -0.63005
 Alpha  occ. eigenvalues --   -0.61495  -0.61494  -0.61383  -0.61369
 Alpha virt. eigenvalues --    0.16377   0.16455   0.16734   0.16952   0.37644
 Alpha virt. eigenvalues --    0.46056   0.52774   0.55388   0.55625   0.56716
 Alpha virt. eigenvalues --    0.56939   0.62823   0.67142   0.68542   0.71885

 Mulliken charges:
               1
     1  N    0.002284
     2  N   -0.002238
     3  N   -0.005171
     4  N    0.005125
 Sum of Mulliken charges =   0.00000

 Dipole moment (field-independent basis, Debye):
    X=             -0.0118    Y=              0.0097    Z=              0.0000  Tot=              0.0153
 Quadrupole moment (field-independent basis, Debye-Ang):
   XX=            -21.1986   YY=            -22.6845   ZZ=            -20.4980
   XY=              0.7067   XZ=              0.0000   YZ=             -0.0000

 DQ=-218.704192\MP4SDQ=-218.7149993\CCSD=-218.7106602\CCSD(T)=-218.7470
 Normal termination of Gaussian 16 at Fri Feb  9 19:37:54 2024.
