 Gaussian 16, Revision A.03,
 Gaussian 16:  ES64L-G16RevA.03 25-Dec-2016

 ------------------
 #p CCSD(T)/cc-pVTZ
 ------------------

 --------
 N2_N2_20
 --------
 Symbolic Z-matrix:
 Charge =  0 Multiplicity = 1

                         Standard orientation:
 ---------------------------------------------------------------------
 Center     Atomic      Atomic             Coordinates (Angstroms)
 Number     Number       Type             X           Y           Z
 ---------------------------------------------------------------------
      1          7           0       -0.817500   -0.892500    0.000000
      2          7           0        0.272500   -0.892500    0.000000
      3          7           0        0.272500    0.347500    0.000000
      4          7           0        0.272500    1.437500    0.000000
 ---------------------------------------------------------------------

 SCF Done:  E(RHF) =  -217.572080581     A.U. after   15 cycles
 E2 =    -0.7612395627D+00 EUMP2 =    -0.21833332014380D+03
 CCSD(T)
 CCSD(T)= -0.21837133513D+03

 The electronic state is 1-A'.
 Alpha  occ. eigenvalues --  -15.80749 -15.70458 -15.68832 -15.58544  -1.66420
 Alpha  occ. eigenvalues --   -1.49129  -1.08850  -0.82591  -0.78795  -0.71815
 Alpha  occ. eigenvalues --   -0.64567  -0.59721  -0.55749  -0.32838
 Alpha virt. eigenvalues --    0.09120   0.15018   0.21171   0.33856   0.40688
 Alpha virt. eigenvalues --    0.42271   0.48595   0.50875   0.55484   0.59470
 Alpha virt. eigenvalues --    0.60264   0.65818   0.70633   0.71625   0.76040

 Mulliken charges:
               1
     1  N   -0.333097
     2  N    0.056947
     3  N    0.335451
     4  N   -0.059301
 Sum of Mulliken charges =  -0.00000

 Dipole moment (field-independent basis, Debye):
    X=              1.3672    Y=              1.3109    Z=              0.0000  Tot=              1.8941
 Quadrupole moment (field-independent basis, Debye-Ang):
   XX=            -23.4563   YY=            -25.2405   ZZ=            -19.4157
   XY=             -0.8800   XZ=              0.0000   YZ=              0.0000

 SDQ=-218.3307802\CCSD=-218.3286583\CCSD(T)=-218.3713351\RMSD=5.354e-09
 Normal termination of Gaussian 16 at Fri Feb  9 17:51:21 2024.
