 Gaussian 16, Revision A.03,
 Gaussian 16:  ES64L-G16RevA.03 25-Dec-2016

 ------------------
 #p CCSD(T)/cc-pVTZ
 ------------------

 --------
 N2_N2_32
 --------
 Symbolic Z-matrix:
 Charge =  0 Multiplicity = 1

                         Standard orientation:
 ---------------------------------------------------------------------
 Center     Atomic      Atomic             Coordinates (Angstroms)
 Number     Number       Type             X           Y           Z
 ---------------------------------------------------------------------
      1          7           0       -0.817500   -0.972500    0.000000
      2          7           0        0.272500   -0.972500    0.000000
      3          7           0        0.272500    0.427500    0.000000
      4          7           0        0.272500    1.517500    0.000000
 ---------------------------------------------------------------------

 SCF Done:  E(RHF) =  -217.633781284     A.U. after   17 cycles
 E2 =    -0.7577285043D+00 EUMP2 =    -0.21839150978782D+03
 CCSD(T)
 CCSD(T)= -0.21843238345D+03

 The electronic state is 1-A'.
 Alpha  occ. eigenvalues --  -15.75933 -15.71633 -15.69467 -15.56597  -1.58364
 Alpha  occ. eigenvalues --   -1.48064  -1.01439  -0.78776  -0.73048  -0.72407
 Alpha  occ. eigenvalues --   -0.64242  -0.59484  -0.57114  -0.34582
 Alpha virt. eigenvalues --    0.10852   0.13758   0.20362   0.26848   0.40949
 Alpha virt. eigenvalues --    0.42513   0.49457   0.51786   0.56212   0.58642
 Alpha virt. eigenvalues --    0.60848   0.65917   0.71526   0.73337   0.75624

 Mulliken charges:
               1
     1  N   -0.304380
     2  N    0.080948
     3  N    0.224957
     4  N   -0.001525
 Sum of Mulliken charges =  -0.00000

 Dipole moment (field-independent basis, Debye):
    X=              1.3784    Y=              1.6420    Z=              0.0000  Tot=              2.1439
 Quadrupole moment (field-independent basis, Debye-Ang):
   XX=            -23.3352   YY=            -24.3705   ZZ=            -19.7748
   XY=             -1.0197   XZ=              0.0000   YZ=              0.0000

 DQ=-218.3932185\CCSD=-218.3905226\CCSD(T)=-218.4323835\RMSD=1.817e-09\
 Normal termination of Gaussian 16 at Fri Feb  9 17:58:52 2024.
