 Gaussian 16, Revision A.03,
 Gaussian 16:  ES64L-G16RevA.03 25-Dec-2016

 ------------------
 #p CCSD(T)/cc-pVTZ
 ------------------

 --------
 N2_N2_25
 --------
 Symbolic Z-matrix:
 Charge =  0 Multiplicity = 1

                         Standard orientation:
 ---------------------------------------------------------------------
 Center     Atomic      Atomic             Coordinates (Angstroms)
 Number     Number       Type             X           Y           Z
 ---------------------------------------------------------------------
      1          7           0        0.578060   -1.510560    0.000000
      2          7           0       -0.192687   -0.739813    0.000000
      3          7           0       -0.192687    0.580187   -0.000000
      4          7           0       -0.192687    1.670186   -0.000000
 ---------------------------------------------------------------------

 SCF Done:  E(RHF) =  -217.629204182     A.U. after   17 cycles
 E2 =    -0.7623656298D+00 EUMP2 =    -0.21839156981143D+03
 CCSD(T)
 CCSD(T)= -0.21843128458D+03

 The electronic state is 1-A'.
 Alpha  occ. eigenvalues --  -15.79593 -15.74822 -15.67208 -15.56340  -1.57840
 Alpha  occ. eigenvalues --   -1.45607  -1.13890  -0.76290  -0.74821  -0.74553
 Alpha  occ. eigenvalues --   -0.63621  -0.58161  -0.56403  -0.30820
 Alpha virt. eigenvalues --    0.06365   0.10540   0.25903   0.31351   0.40776
 Alpha virt. eigenvalues --    0.48842   0.50714   0.51814   0.57794   0.58500
 Alpha virt. eigenvalues --    0.62398   0.65516   0.70144   0.74246   0.75140

 Mulliken charges:
               1
     1  N   -0.322144
     2  N   -0.014334
     3  N    0.300156
     4  N    0.036321
 Sum of Mulliken charges =  -0.00000

 Dipole moment (field-independent basis, Debye):
    X=             -0.8159    Y=              3.2944    Z=             -0.0000  Tot=              3.3939
 Quadrupole moment (field-independent basis, Debye-Ang):
   XX=            -22.8071   YY=            -26.4369   ZZ=            -19.6799
   XY=              1.3030   XZ=             -0.0000   YZ=              0.0000

 4DQ=-218.3779279\MP4SDQ=-218.3919058\CCSD=-218.3880972\CCSD(T)=-218.43
 Normal termination of Gaussian 16 at Fri Feb  9 17:54:28 2024.
