 Gaussian 16, Revision A.03,
 Gaussian 16:  ES64L-G16RevA.03 25-Dec-2016

 ------------------
 #p CCSD(T)/cc-pVTZ
 ------------------

 ---------
 N2_N2_240
 ---------
 Symbolic Z-matrix:
 Charge =  0 Multiplicity = 1

                         Standard orientation:
 ---------------------------------------------------------------------
 Center     Atomic      Atomic             Coordinates (Angstroms)
 Number     Number       Type             X           Y           Z
 ---------------------------------------------------------------------
      1          7           0        0.000000    0.000000    3.190000
      2          7           0        0.000000    0.000000    2.100000
      3          7           0        0.000000    0.000000   -2.100000
      4          7           0        0.000000    0.000000   -3.190000
 ---------------------------------------------------------------------

 SCF Done:  E(RHF) =  -217.969536084     A.U. after    9 cycles
 E2 =    -0.7434144393D+00 EUMP2 =    -0.21871295052353D+03
 CCSD(T)
 CCSD(T)= -0.21874696000D+03

 The electronic state is 1-SGG.
 Alpha  occ. eigenvalues --  -15.67775 -15.67775 -15.67404 -15.67404  -1.47415
 Alpha  occ. eigenvalues --   -1.47413  -0.77434  -0.77306  -0.63289  -0.63069
 Alpha  occ. eigenvalues --   -0.61431  -0.61431  -0.61418  -0.61418
 Alpha virt. eigenvalues --    0.16530   0.16530   0.16842   0.16842   0.35631
 Alpha virt. eigenvalues --    0.47626   0.53519   0.55967   0.55967   0.56461
 Alpha virt. eigenvalues --    0.56461   0.64237   0.67306   0.68472   0.72530

 Mulliken charges:
               1
     1  N    0.003902
     2  N   -0.003902
     3  N   -0.003902
     4  N    0.003902
 Sum of Mulliken charges =  -0.00000

 Dipole moment (field-independent basis, Debye):
    X=              0.0000    Y=              0.0000    Z=             -0.0000  Tot=              0.0000
 Quadrupole moment (field-independent basis, Debye-Ang):
   XX=            -20.4984   YY=            -20.4984   ZZ=            -23.4093
   XY=              0.0000   XZ=              0.0000   YZ=             -0.0000

 4SDQ=-218.7148816\CCSD=-218.7105464\CCSD(T)=-218.74696\RMSD=9.967e-09\
 Normal termination of Gaussian 16 at Fri Feb  9 19:51:15 2024.
