 Gaussian 16, Revision A.03,
 Gaussian 16:  ES64L-G16RevA.03 25-Dec-2016

 ------------------
 #p CCSD(T)/cc-pVTZ
 ------------------

 ---------
 N2_N2_252
 ---------
 Symbolic Z-matrix:
 Charge =  0 Multiplicity = 1

                         Standard orientation:
 ---------------------------------------------------------------------
 Center     Atomic      Atomic             Coordinates (Angstroms)
 Number     Number       Type             X           Y           Z
 ---------------------------------------------------------------------
      1          7           0        0.000000    0.000000    3.270000
      2          7           0        0.000000    0.000000    2.180000
      3          7           0        0.000000    0.000000   -2.180000
      4          7           0        0.000000    0.000000   -3.270000
 ---------------------------------------------------------------------

 SCF Done:  E(RHF) =  -217.969553881     A.U. after    9 cycles
 E2 =    -0.7433703803D+00 EUMP2 =    -0.21871292426116D+03
 CCSD(T)
 CCSD(T)= -0.21874694052D+03

 The electronic state is 1-SGG.
 Alpha  occ. eigenvalues --  -15.67786 -15.67786 -15.67415 -15.67415  -1.47424
 Alpha  occ. eigenvalues --   -1.47424  -0.77427  -0.77336  -0.63271  -0.63112
 Alpha  occ. eigenvalues --   -0.61439  -0.61439  -0.61430  -0.61430
 Alpha virt. eigenvalues --    0.16565   0.16565   0.16788   0.16788   0.36210
 Alpha virt. eigenvalues --    0.47348   0.53835   0.56038   0.56038   0.56383
 Alpha virt. eigenvalues --    0.56383   0.62437   0.67320   0.67874   0.72765

 Mulliken charges:
               1
     1  N    0.002540
     2  N   -0.002540
     3  N   -0.002540
     4  N    0.002540
 Sum of Mulliken charges =  -0.00000

 Dipole moment (field-independent basis, Debye):
    X=              0.0000    Y=              0.0000    Z=              0.0000  Tot=              0.0000
 Quadrupole moment (field-independent basis, Debye-Ang):
   XX=            -20.4980   YY=            -20.4980   ZZ=            -23.3970
   XY=              0.0000   XZ=              0.0000   YZ=             -0.0000

 P4SDQ=-218.7148639\CCSD=-218.7105329\CCSD(T)=-218.7469405\RMSD=9.894e-
 Normal termination of Gaussian 16 at Fri Feb  9 19:57:24 2024.
