 Gaussian 16, Revision A.03,
 Gaussian 16:  ES64L-G16RevA.03 25-Dec-2016

 ------------------
 #p CCSD(T)/cc-pVTZ
 ------------------

 --------
 N2_N2_55
 --------
 Symbolic Z-matrix:
 Charge =  0 Multiplicity = 1

                         Standard orientation:
 ---------------------------------------------------------------------
 Center     Atomic      Atomic             Coordinates (Angstroms)
 Number     Number       Type             X           Y           Z
 ---------------------------------------------------------------------
      1          7           0        0.578060   -1.710560    0.000000
      2          7           0       -0.192687   -0.939814    0.000000
      3          7           0       -0.192687    0.780187   -0.000000
      4          7           0       -0.192687    1.870186   -0.000000
 ---------------------------------------------------------------------

 SCF Done:  E(RHF) =  -217.820672427     A.U. after   14 cycles
 E2 =    -0.7632574901D+00 EUMP2 =    -0.21858392991719D+03
 CCSD(T)
 CCSD(T)= -0.21861537179D+03

 The electronic state is 1-A'.
 Alpha  occ. eigenvalues --  -15.68707 -15.66944 -15.64557 -15.63592  -1.48773
 Alpha  occ. eigenvalues --   -1.45259  -0.92350  -0.72721  -0.67448  -0.63950
 Alpha  occ. eigenvalues --   -0.63871  -0.59276  -0.58500  -0.45889
 Alpha virt. eigenvalues --    0.11973   0.14638   0.22237   0.22558   0.43852
 Alpha virt. eigenvalues --    0.46706   0.52353   0.53631   0.60208   0.61396
 Alpha virt. eigenvalues --    0.62211   0.64171   0.68599   0.74772   0.81211

 Mulliken charges:
               1
     1  N   -0.063044
     2  N    0.001130
     3  N    0.034397
     4  N    0.027516
 Sum of Mulliken charges =   0.00000

 Dipole moment (field-independent basis, Debye):
    X=             -0.2297    Y=              0.9458    Z=             -0.0000  Tot=              0.9733
 Quadrupole moment (field-independent basis, Debye-Ang):
   XX=            -21.5481   YY=            -24.0253   ZZ=            -20.3467
   XY=              0.8109   XZ=              0.0000   YZ=              0.0000

 Q=-218.5706771\MP4SDQ=-218.5821119\CCSD=-218.5762218\CCSD(T)=-218.6153
 Normal termination of Gaussian 16 at Fri Feb  9 18:13:55 2024.
