 Gaussian 16, Revision A.03,
 Gaussian 16:  ES64L-G16RevA.03 25-Dec-2016

 ------------------
 #p CCSD(T)/cc-pVTZ
 ------------------

 --------
 N2_N2_82
 --------
 Symbolic Z-matrix:
 Charge =  0 Multiplicity = 1

                         Standard orientation:
 ---------------------------------------------------------------------
 Center     Atomic      Atomic             Coordinates (Angstroms)
 Number     Number       Type             X           Y           Z
 ---------------------------------------------------------------------
      1          7           0        0.578060   -1.890560    0.000000
      2          7           0       -0.192687   -1.119813    0.000000
      3          7           0       -0.192687    0.960187   -0.000000
      4          7           0       -0.192687    2.050186   -0.000000
 ---------------------------------------------------------------------

 SCF Done:  E(RHF) =  -217.921379807     A.U. after   13 cycles
 E2 =    -0.7516538931D+00 EUMP2 =    -0.21867303369990D+03
 CCSD(T)
 CCSD(T)= -0.21870582545D+03

 The electronic state is 1-A'.
 Alpha  occ. eigenvalues --  -15.67530 -15.66434 -15.66075 -15.65648  -1.47429
 Alpha  occ. eigenvalues --   -1.46273  -0.83519  -0.73969  -0.66596  -0.62203
 Alpha  occ. eigenvalues --   -0.61966  -0.60363  -0.59936  -0.54827
 Alpha virt. eigenvalues --    0.13899   0.15704   0.19661   0.20417   0.45105
 Alpha virt. eigenvalues --    0.45903   0.52259   0.53585   0.60236   0.60237
 Alpha virt. eigenvalues --    0.63211   0.64867   0.66323   0.73029   0.80987

 Mulliken charges:
               1
     1  N   -0.013859
     2  N    0.001382
     3  N    0.007854
     4  N    0.004623
 Sum of Mulliken charges =  -0.00000

 Dipole moment (field-independent basis, Debye):
    X=             -0.1171    Y=              0.2667    Z=             -0.0000  Tot=              0.2913
 Quadrupole moment (field-independent basis, Debye-Ang):
   XX=            -21.3006   YY=            -23.5207   ZZ=            -20.4610
   XY=              0.7736   XZ=             -0.0000   YZ=              0.0000

 4DQ=-218.6624087\MP4SDQ=-218.6733035\CCSD=-218.6683839\CCSD(T)=-218.70
 Normal termination of Gaussian 16 at Fri Feb  9 18:28:16 2024.
