 Gaussian 16, Revision A.03,
 Gaussian 16:  ES64L-G16RevA.03 25-Dec-2016

 ------------------
 #p CCSD(T)/cc-pVTZ
 ------------------

 --------
 N2_N2_83
 --------
 Symbolic Z-matrix:
 Charge =  0 Multiplicity = 1

                         Standard orientation:
 ---------------------------------------------------------------------
 Center     Atomic      Atomic             Coordinates (Angstroms)
 Number     Number       Type             X           Y           Z
 ---------------------------------------------------------------------
      1          7           0       -0.817500   -1.312500    0.000000
      2          7           0        0.272500   -1.312500    0.000000
      3          7           0        0.272500    0.767500    0.000000
      4          7           0        0.272500    1.857500    0.000000
 ---------------------------------------------------------------------

 SCF Done:  E(RHF) =  -217.912629354     A.U. after   13 cycles
 E2 =    -0.7552439319D+00 EUMP2 =    -0.21866787328611D+03
 CCSD(T)
 CCSD(T)= -0.21870016425D+03

 The electronic state is 1-A'.
 Alpha  occ. eigenvalues --  -15.67754 -15.66524 -15.66484 -15.65453  -1.47953
 Alpha  occ. eigenvalues --   -1.46331  -0.81948  -0.75958  -0.67712  -0.62627
 Alpha  occ. eigenvalues --   -0.62462  -0.61183  -0.59721  -0.53373
 Alpha virt. eigenvalues --    0.13741   0.15258   0.18252   0.21168   0.41974
 Alpha virt. eigenvalues --    0.45189   0.53140   0.54808   0.55769   0.57694
 Alpha virt. eigenvalues --    0.60984   0.66449   0.72944   0.73441   0.75714

 Mulliken charges:
               1
     1  N   -0.031713
     2  N    0.031041
     3  N   -0.002350
     4  N    0.003021
 Sum of Mulliken charges =  -0.00000

 Dipole moment (field-independent basis, Debye):
    X=              0.1747    Y=              0.1875    Z=              0.0000  Tot=              0.2563
 Quadrupole moment (field-independent basis, Debye-Ang):
   XX=            -22.0082   YY=            -22.6150   ZZ=            -20.4266
   XY=             -0.2569   XZ=              0.0000   YZ=              0.0000

 SDQ=-218.6669236\CCSD=-218.6623605\CCSD(T)=-218.7001642\RMSD=5.980e-09
 Normal termination of Gaussian 16 at Fri Feb  9 18:28:48 2024.
