 Gaussian 16, Revision A.03,
 Gaussian 16:  ES64L-G16RevA.03 25-Dec-2016

 ------------------
 #p CCSD(T)/cc-pVTZ
 ------------------

 --------
 N2_N2_66
 --------
 Symbolic Z-matrix:
 Charge =  0 Multiplicity = 1

                         Standard orientation:
 ---------------------------------------------------------------------
 Center     Atomic      Atomic             Coordinates (Angstroms)
 Number     Number       Type             X           Y           Z
 ---------------------------------------------------------------------
      1          7           0        0.000000    0.000000    2.030000
      2          7           0        0.000000    0.000000    0.940000
      3          7           0        0.000000    0.000000   -0.940000
      4          7           0        0.000000    0.000000   -2.030000
 ---------------------------------------------------------------------

 SCF Done:  E(RHF) =  -217.857279504     A.U. after   10 cycles
 E2 =    -0.7565738488D+00 EUMP2 =    -0.21861385335260D+03
 CCSD(T)
 CCSD(T)= -0.21864627945D+03

 The electronic state is 1-SGG.
 Alpha  occ. eigenvalues --  -15.66231 -15.66231 -15.64092 -15.64091  -1.46569
 Alpha  occ. eigenvalues --   -1.45771  -0.87510  -0.72506  -0.66906  -0.61659
 Alpha  occ. eigenvalues --   -0.61659  -0.59108  -0.59108  -0.49838
 Alpha virt. eigenvalues --    0.13070   0.13070   0.22503   0.22503   0.44165
 Alpha virt. eigenvalues --    0.45943   0.54321   0.54321   0.60602   0.60602
 Alpha virt. eigenvalues --    0.63553   0.66937   0.73629   0.73629   0.80312

 Mulliken charges:
               1
     1  N    0.002910
     2  N   -0.002910
     3  N   -0.002910
     4  N    0.002910
 Sum of Mulliken charges =   0.00000

 Dipole moment (field-independent basis, Debye):
    X=              0.0000    Y=              0.0000    Z=             -0.0000  Tot=              0.0000
 Quadrupole moment (field-independent basis, Debye-Ang):
   XX=            -20.4735   YY=            -20.4735   ZZ=            -24.5414
   XY=              0.0000   XZ=              0.0000   YZ=             -0.0000

 DQ=-218.6137427\CCSD=-218.6082996\CCSD(T)=-218.6462794\RMSD=2.183e-09\
 Normal termination of Gaussian 16 at Fri Feb  9 18:19:46 2024.
