 Gaussian 16, Revision A.03,
 Gaussian 16:  ES64L-G16RevA.03 25-Dec-2016

 ------------------
 #p CCSD(T)/cc-pVTZ
 ------------------

 --------
 N2_N2_39
 --------
 Symbolic Z-matrix:
 Charge =  0 Multiplicity = 1

                         Standard orientation:
 ---------------------------------------------------------------------
 Center     Atomic      Atomic             Coordinates (Angstroms)
 Number     Number       Type             X           Y           Z
 ---------------------------------------------------------------------
      1          7           0        0.000000    0.000000    1.850000
      2          7           0        0.000000    0.000000    0.760000
      3          7           0        0.000000    0.000000   -0.760000
      4          7           0        0.000000    0.000000   -1.850000
 ---------------------------------------------------------------------

 SCF Done:  E(RHF) =  -217.613932045     A.U. after   11 cycles
 E2 =    -0.7801443944D+00 EUMP2 =    -0.21839407643975D+03
 CCSD(T)
 CCSD(T)= -0.21842372770D+03

 The electronic state is 1-SGG.
 Alpha  occ. eigenvalues --  -15.65628 -15.65627 -15.61787 -15.61781  -1.47020
 Alpha  occ. eigenvalues --   -1.44612  -1.00226  -0.71066  -0.67689  -0.63388
 Alpha  occ. eigenvalues --   -0.63388  -0.57090  -0.57090  -0.33206
 Alpha virt. eigenvalues --    0.10768   0.10768   0.26000   0.26000   0.43466
 Alpha virt. eigenvalues --    0.44894   0.54701   0.54701   0.58031   0.61664
 Alpha virt. eigenvalues --    0.61664   0.65597   0.75385   0.75385   0.80901

 Mulliken charges:
               1
     1  N    0.104938
     2  N   -0.104938
     3  N   -0.104938
     4  N    0.104938
 Sum of Mulliken charges =  -0.00000

 Dipole moment (field-independent basis, Debye):
    X=              0.0000    Y=              0.0000    Z=             -0.0000  Tot=              0.0000
 Quadrupole moment (field-independent basis, Debye-Ang):
   XX=            -20.4408   YY=            -20.4408   ZZ=            -24.5406
   XY=              0.0000   XZ=              0.0000   YZ=             -0.0000

 Q=-218.389822\CCSD=-218.3823374\CCSD(T)=-218.4237277\RMSD=2.229e-09\PG
 Normal termination of Gaussian 16 at Fri Feb  9 18:04:34 2024.
