 Gaussian 16, Revision A.03,
 Gaussian 16:  ES64L-G16RevA.03 25-Dec-2016

 ------------------
 #p CCSD(T)/cc-pVTZ
 ------------------

 --------
 N2_N2_29
 --------
 Symbolic Z-matrix:
 Charge =  0 Multiplicity = 1

                         Standard orientation:
 ---------------------------------------------------------------------
 Center     Atomic      Atomic             Coordinates (Angstroms)
 Number     Number       Type             X           Y           Z
 ---------------------------------------------------------------------
      1          7           0       -0.817500   -0.952500    0.000000
      2          7           0        0.272500   -0.952500    0.000000
      3          7           0        0.272500    0.407500    0.000000
      4          7           0        0.272500    1.497500    0.000000
 ---------------------------------------------------------------------

 SCF Done:  E(RHF) =  -217.617352436     A.U. after   16 cycles
 E2 =    -0.7581622908D+00 EUMP2 =    -0.21837551472652D+03
 CCSD(T)
 CCSD(T)= -0.21841624027D+03

 The electronic state is 1-A'.
 Alpha  occ. eigenvalues --  -15.77577 -15.71679 -15.69471 -15.56734  -1.60141
 Alpha  occ. eigenvalues --   -1.48510  -1.03276  -0.79693  -0.74490  -0.72494
 Alpha  occ. eigenvalues --   -0.64365  -0.59534  -0.56892  -0.33805
 Alpha virt. eigenvalues --    0.10370   0.13893   0.20482   0.28301   0.40801
 Alpha virt. eigenvalues --    0.42389   0.49186   0.51516   0.56134   0.58772
 Alpha virt. eigenvalues --    0.60664   0.65909   0.70948   0.73005   0.75612

 Mulliken charges:
               1
     1  N   -0.322244
     2  N    0.075062
     3  N    0.259538
     4  N   -0.012355
 Sum of Mulliken charges =  -0.00000

 Dipole moment (field-independent basis, Debye):
    X=              1.4248    Y=              1.6481    Z=              0.0000  Tot=              2.1786
 Quadrupole moment (field-independent basis, Debye-Ang):
   XX=            -23.4338   YY=            -24.6175   ZZ=            -19.6839
   XY=             -0.9972   XZ=              0.0000   YZ=              0.0000

 DQ=-218.3764007\CCSD=-218.3739705\CCSD(T)=-218.4162403\RMSD=9.045e-09\
 Normal termination of Gaussian 16 at Fri Feb  9 17:56:59 2024.
