 Gaussian 16, Revision A.03,
 Gaussian 16:  ES64L-G16RevA.03 25-Dec-2016

 ------------------
 #p CCSD(T)/cc-pVTZ
 ------------------

 --------
 N2_N2_67
 --------
 Symbolic Z-matrix:
 Charge =  0 Multiplicity = 1

                         Standard orientation:
 ---------------------------------------------------------------------
 Center     Atomic      Atomic             Coordinates (Angstroms)
 Number     Number       Type             X           Y           Z
 ---------------------------------------------------------------------
      1          7           0        0.578060   -1.790560    0.000000
      2          7           0       -0.192687   -1.019813    0.000000
      3          7           0       -0.192687    0.860187   -0.000000
      4          7           0       -0.192687    1.950186   -0.000000
 ---------------------------------------------------------------------

 SCF Done:  E(RHF) =  -217.877815979     A.U. after   14 cycles
 E2 =    -0.7569618951D+00 EUMP2 =    -0.21863477787399D+03
 CCSD(T)
 CCSD(T)= -0.21866684003D+03

 The electronic state is 1-A'.
 Alpha  occ. eigenvalues --  -15.67856 -15.66306 -15.65214 -15.64842  -1.47832
 Alpha  occ. eigenvalues --   -1.45793  -0.87493  -0.73125  -0.67197  -0.62855
 Alpha  occ. eigenvalues --   -0.62650  -0.59807  -0.59260  -0.50695
 Alpha virt. eigenvalues --    0.13035   0.15292   0.20825   0.21499   0.44563
 Alpha virt. eigenvalues --    0.46269   0.52362   0.53713   0.60408   0.60853
 Alpha virt. eigenvalues --    0.63052   0.64312   0.67529   0.74085   0.81511

 Mulliken charges:
               1
     1  N   -0.033049
     2  N    0.004865
     3  N    0.015345
     4  N    0.012838
 Sum of Mulliken charges =  -0.00000

 Dipole moment (field-independent basis, Debye):
    X=             -0.1657    Y=              0.5163    Z=             -0.0000  Tot=              0.5422
 Quadrupole moment (field-independent basis, Debye-Ang):
   XX=            -21.3893   YY=            -23.7719   ZZ=            -20.4156
   XY=              0.7935   XZ=             -0.0000   YZ=              0.0000

 Q=-218.6229826\MP4SDQ=-218.6340391\CCSD=-218.6286926\CCSD(T)=-218.6668
 Normal termination of Gaussian 16 at Fri Feb  9 18:20:18 2024.
