 Gaussian 16, Revision A.03,
 Gaussian 16:  ES64L-G16RevA.03 25-Dec-2016

 ------------------
 #p CCSD(T)/cc-pVTZ
 ------------------

 --------
 N2_N2_38
 --------
 Symbolic Z-matrix:
 Charge =  0 Multiplicity = 1

                         Standard orientation:
 ---------------------------------------------------------------------
 Center     Atomic      Atomic             Coordinates (Angstroms)
 Number     Number       Type             X           Y           Z
 ---------------------------------------------------------------------
      1          7           0       -0.817500   -1.012500    0.000000
      2          7           0        0.272500   -1.012500    0.000000
      3          7           0        0.272500    0.467500    0.000000
      4          7           0        0.272500    1.557500    0.000000
 ---------------------------------------------------------------------

 SCF Done:  E(RHF) =  -217.672529759     A.U. after   15 cycles
 E2 =    -0.7597018241D+00 EUMP2 =    -0.21843223158304D+03
 CCSD(T)
 CCSD(T)= -0.21847193368D+03

 The electronic state is 1-A'.
 Alpha  occ. eigenvalues --  -15.72373 -15.70855 -15.69056 -15.57440  -1.55250
 Alpha  occ. eigenvalues --   -1.47125  -0.97860  -0.77243  -0.71732  -0.70256
 Alpha  occ. eigenvalues --   -0.63836  -0.59686  -0.57429  -0.36774
 Alpha virt. eigenvalues --    0.11907   0.13672   0.20092   0.24881   0.41258
 Alpha virt. eigenvalues --    0.42909   0.50005   0.52400   0.56126   0.58595
 Alpha virt. eigenvalues --    0.61202   0.66027   0.72834   0.73631   0.75878

 Mulliken charges:
               1
     1  N   -0.247314
     2  N    0.087716
     3  N    0.150178
     4  N    0.009420
 Sum of Mulliken charges =  -0.00000

 Dipole moment (field-independent basis, Debye):
    X=              1.1737    Y=              1.4233    Z=              0.0000  Tot=              1.8448
 Quadrupole moment (field-independent basis, Debye-Ang):
   XX=            -23.0261   YY=            -23.9074   ZZ=            -19.9462
   XY=             -0.9851   XZ=              0.0000   YZ=              0.0000

 SDQ=-218.434071\CCSD=-218.4307159\CCSD(T)=-218.4719337\RMSD=6.574e-09\
 Normal termination of Gaussian 16 at Fri Feb  9 18:04:01 2024.
