 Gaussian 16, Revision A.03,
 Gaussian 16:  ES64L-G16RevA.03 25-Dec-2016

 ------------------
 #p CCSD(T)/cc-pVTZ
 ------------------

 ---------
 N2_N2_131
 ---------
 Symbolic Z-matrix:
 Charge =  0 Multiplicity = 1

                         Standard orientation:
 ---------------------------------------------------------------------
 Center     Atomic      Atomic             Coordinates (Angstroms)
 Number     Number       Type             X           Y           Z
 ---------------------------------------------------------------------
      1          7           0       -0.817500   -1.632500    0.000000
      2          7           0        0.272500   -1.632500    0.000000
      3          7           0        0.272500    1.087500    0.000000
      4          7           0        0.272500    2.177500    0.000000
 ---------------------------------------------------------------------

 SCF Done:  E(RHF) =  -217.963216893     A.U. after   12 cycles
 E2 =    -0.7465648774D+00 EUMP2 =    -0.21870978177041D+03
 CCSD(T)
 CCSD(T)= -0.21874331315D+03

 The electronic state is 1-A'.
 Alpha  occ. eigenvalues --  -15.67934 -15.67488 -15.67256 -15.66868  -1.47659
 Alpha  occ. eigenvalues --   -1.46955  -0.78270  -0.76838  -0.65037  -0.62581
 Alpha  occ. eigenvalues --   -0.61803  -0.61665  -0.60894  -0.59417
 Alpha virt. eigenvalues --    0.14740   0.16016   0.17277   0.18892   0.42052
 Alpha virt. eigenvalues --    0.45746   0.52933   0.54336   0.55570   0.58326
 Alpha virt. eigenvalues --    0.59261   0.59470   0.66345   0.71123   0.72862

 Mulliken charges:
               1
     1  N   -0.008447
     2  N    0.009217
     3  N   -0.001974
     4  N    0.001204
 Sum of Mulliken charges =  -0.00000

 Dipole moment (field-independent basis, Debye):
    X=              0.0457    Y=              0.0796    Z=              0.0000  Tot=              0.0918
 Quadrupole moment (field-independent basis, Debye-Ang):
   XX=            -21.9293   YY=            -22.1605   ZZ=            -20.4905
   XY=             -0.0662   XZ=              0.0000   YZ=              0.0000

 SDQ=-218.7108702\CCSD=-218.706515\CCSD(T)=-218.7433132\RMSD=3.093e-09\
 Normal termination of Gaussian 16 at Fri Feb  9 18:54:05 2024.
