 Gaussian 16, Revision A.03,
 Gaussian 16:  ES64L-G16RevA.03 25-Dec-2016

 ------------------
 #p CCSD(T)/cc-pVTZ
 ------------------

 ---------
 N2_N2_250
 ---------
 Symbolic Z-matrix:
 Charge =  0 Multiplicity = 1

                         Standard orientation:
 ---------------------------------------------------------------------
 Center     Atomic      Atomic             Coordinates (Angstroms)
 Number     Number       Type             X           Y           Z
 ---------------------------------------------------------------------
      1          7           0        0.578060   -3.010560   -0.000000
      2          7           0       -0.192687   -2.239813   -0.000000
      3          7           0       -0.192687    2.080186    0.000000
      4          7           0       -0.192687    3.170187    0.000000
 ---------------------------------------------------------------------

 SCF Done:  E(RHF) =  -217.969598946     A.U. after   11 cycles
 E2 =    -0.7433855342D+00 EUMP2 =    -0.21871298448022D+03
 CCSD(T)
 CCSD(T)= -0.21874699698D+03

 The electronic state is 1-A'.
 Alpha  occ. eigenvalues --  -15.67858 -15.67779 -15.67487 -15.67409  -1.47493
 Alpha  occ. eigenvalues --   -1.47415  -0.77476  -0.77359  -0.63312  -0.63147
 Alpha  occ. eigenvalues --   -0.61504  -0.61503  -0.61426  -0.61421
 Alpha virt. eigenvalues --    0.16524   0.16542   0.16658   0.16762   0.38310
 Alpha virt. eigenvalues --    0.45692   0.53765   0.55890   0.55978   0.56385
 Alpha virt. eigenvalues --    0.56464   0.60279   0.67234   0.67739   0.72719

 Mulliken charges:
               1
     1  N    0.000312
     2  N   -0.000250
     3  N   -0.001662
     4  N    0.001600
 Sum of Mulliken charges =   0.00000

 Dipole moment (field-independent basis, Debye):
    X=             -0.0075    Y=              0.0056    Z=             -0.0000  Tot=              0.0093
 Quadrupole moment (field-independent basis, Debye-Ang):
   XX=            -21.1966   YY=            -22.6530   ZZ=            -20.4974
   XY=              0.7034   XZ=              0.0000   YZ=              0.0000

 P4DQ=-218.7041118\MP4SDQ=-218.7149144\CCSD=-218.7105882\CCSD(T)=-218.7
 Normal termination of Gaussian 16 at Fri Feb  9 19:56:23 2024.
