 Gaussian 16, Revision A.03,
 Gaussian 16:  ES64L-G16RevA.03 25-Dec-2016

 ------------------
 #p CCSD(T)/cc-pVTZ
 ------------------

 --------
 N2_N2_59
 --------
 Symbolic Z-matrix:
 Charge =  0 Multiplicity = 1

                         Standard orientation:
 ---------------------------------------------------------------------
 Center     Atomic      Atomic             Coordinates (Angstroms)
 Number     Number       Type             X           Y           Z
 ---------------------------------------------------------------------
      1          7           0       -0.817500   -1.152500    0.000000
      2          7           0        0.272500   -1.152500    0.000000
      3          7           0        0.272500    0.607500    0.000000
      4          7           0        0.272500    1.697500    0.000000
 ---------------------------------------------------------------------

 SCF Done:  E(RHF) =  -217.818628326     A.U. after   14 cycles
 E2 =    -0.7639327372D+00 EUMP2 =    -0.21858256106335D+03
 CCSD(T)
 CCSD(T)= -0.21861493935D+03

 The electronic state is 1-A'.
 Alpha  occ. eigenvalues --  -15.68164 -15.66926 -15.66372 -15.62943  -1.49518
 Alpha  occ. eigenvalues --   -1.45992  -0.87986  -0.75608  -0.69199  -0.64544
 Alpha  occ. eigenvalues --   -0.62882  -0.60559  -0.58535  -0.46099
 Alpha virt. eigenvalues --    0.13441   0.14274   0.19106   0.22676   0.41743
 Alpha virt. eigenvalues --    0.44395   0.52105   0.53465   0.55546   0.58565
 Alpha virt. eigenvalues --    0.61558   0.66560   0.73406   0.75516   0.76343

 Mulliken charges:
               1
     1  N   -0.081681
     2  N    0.063872
     3  N    0.014439
     4  N    0.003369
 Sum of Mulliken charges =  -0.00000

 Dipole moment (field-independent basis, Debye):
    X=              0.4423    Y=              0.4682    Z=              0.0000  Tot=              0.6441
 Quadrupole moment (field-independent basis, Debye-Ang):
   XX=            -22.2122   YY=            -23.0263   ZZ=            -20.2959
   XY=             -0.5376   XZ=              0.0000   YZ=              0.0000

 DQ=-218.5804227\CCSD=-218.5756442\CCSD(T)=-218.6149393\RMSD=6.381e-09\
 Normal termination of Gaussian 16 at Fri Feb  9 18:16:07 2024.
