 Gaussian 16, Revision A.03,
 Gaussian 16:  ES64L-G16RevA.03 25-Dec-2016

 ------------------
 #p CCSD(T)/cc-pVTZ
 ------------------

 ---------
 N2_N2_175
 ---------
 Symbolic Z-matrix:
 Charge =  0 Multiplicity = 1

                         Standard orientation:
 ---------------------------------------------------------------------
 Center     Atomic      Atomic             Coordinates (Angstroms)
 Number     Number       Type             X           Y           Z
 ---------------------------------------------------------------------
      1          7           0        0.578060   -2.510560    0.000000
      2          7           0       -0.192687   -1.739814    0.000000
      3          7           0       -0.192687    1.580187    0.000000
      4          7           0       -0.192687    2.670187    0.000000
 ---------------------------------------------------------------------

 SCF Done:  E(RHF) =  -217.969034163     A.U. after   12 cycles
 E2 =    -0.7439857423D+00 EUMP2 =    -0.21871301990510D+03
 CCSD(T)
 CCSD(T)= -0.21874694884D+03

 The electronic state is 1-A'.
 Alpha  occ. eigenvalues --  -15.67803 -15.67632 -15.67432 -15.67261  -1.47455
 Alpha  occ. eigenvalues --   -1.47284  -0.77727  -0.76974  -0.63679  -0.62648
 Alpha  occ. eigenvalues --   -0.61483  -0.61473  -0.61287  -0.61219
 Alpha virt. eigenvalues --    0.16047   0.16349   0.17014   0.17358   0.40234
 Alpha virt. eigenvalues --    0.45951   0.52292   0.54340   0.54815   0.57391
 Alpha virt. eigenvalues --    0.57919   0.63732   0.67045   0.69937   0.70807

 Mulliken charges:
               1
     1  N    0.005022
     2  N   -0.005234
     3  N   -0.007726
     4  N    0.007939
 Sum of Mulliken charges =  -0.00000

 Dipole moment (field-independent basis, Debye):
    X=             -0.0205    Y=              0.0196    Z=              0.0000  Tot=              0.0283
 Quadrupole moment (field-independent basis, Debye-Ang):
   XX=            -21.2042   YY=            -22.7620   ZZ=            -20.4990
   XY=              0.7125   XZ=              0.0000   YZ=              0.0000

 P4DQ=-218.7040123\MP4SDQ=-218.7148261\CCSD=-218.7104577\CCSD(T)=-218.7
 Normal termination of Gaussian 16 at Fri Feb  9 19:17:53 2024.
