 Gaussian 16, Revision A.03,
 Gaussian 16:  ES64L-G16RevA.03 25-Dec-2016

 ------------------
 #p CCSD(T)/cc-pVTZ
 ------------------

 --------
 N2_N2_65
 --------
 Symbolic Z-matrix:
 Charge =  0 Multiplicity = 1

                         Standard orientation:
 ---------------------------------------------------------------------
 Center     Atomic      Atomic             Coordinates (Angstroms)
 Number     Number       Type             X           Y           Z
 ---------------------------------------------------------------------
      1          7           0       -0.817500   -1.192500    0.000000
      2          7           0        0.272500   -1.192500    0.000000
      3          7           0        0.272500    0.647500    0.000000
      4          7           0        0.272500    1.737500    0.000000
 ---------------------------------------------------------------------

 SCF Done:  E(RHF) =  -217.849948531     A.U. after   14 cycles
 E2 =    -0.7618683489D+00 EUMP2 =    -0.21861181688026D+03
 CCSD(T)
 CCSD(T)= -0.21864378961D+03

 The electronic state is 1-A'.
 Alpha  occ. eigenvalues --  -15.67927 -15.66662 -15.66164 -15.63854  -1.48871
 Alpha  occ. eigenvalues --   -1.46037  -0.86031  -0.75634  -0.68790  -0.63825
 Alpha  occ. eigenvalues --   -0.62742  -0.60719  -0.58869  -0.48324
 Alpha virt. eigenvalues --    0.13468   0.14606   0.18870   0.22290   0.41813
 Alpha virt. eigenvalues --    0.44658   0.52790   0.53450   0.55554   0.58387
 Alpha virt. eigenvalues --    0.61468   0.66586   0.73431   0.75598   0.76181

 Mulliken charges:
               1
     1  N   -0.061785
     2  N    0.053929
     3  N    0.005045
     4  N    0.002811
 Sum of Mulliken charges =  -0.00000

 Dipole moment (field-independent basis, Debye):
    X=              0.3407    Y=              0.3507    Z=              0.0000  Tot=              0.4890
 Quadrupole moment (field-independent basis, Debye-Ang):
   XX=            -22.1265   YY=            -22.8977   ZZ=            -20.3428
   XY=             -0.4430   XZ=              0.0000   YZ=              0.0000

 SDQ=-218.6097364\CCSD=-218.6049821\CCSD(T)=-218.6437896\RMSD=3.501e-09
 Normal termination of Gaussian 16 at Fri Feb  9 18:19:18 2024.
