 Gaussian 16, Revision A.03,
 Gaussian 16:  ES64L-G16RevA.03 25-Dec-2016

 ------------------
 #p CCSD(T)/cc-pVTZ
 ------------------

 ---------
 N2_N2_258
 ---------
 Symbolic Z-matrix:
 Charge =  0 Multiplicity = 1

                         Standard orientation:
 ---------------------------------------------------------------------
 Center     Atomic      Atomic             Coordinates (Angstroms)
 Number     Number       Type             X           Y           Z
 ---------------------------------------------------------------------
      1          7           0        0.000000    0.000000    3.310000
      2          7           0        0.000000    0.000000    2.220000
      3          7           0        0.000000    0.000000   -2.220000
      4          7           0        0.000000    0.000000   -3.310000
 ---------------------------------------------------------------------

 SCF Done:  E(RHF) =  -217.969559214     A.U. after    9 cycles
 E2 =    -0.7433513641D+00 EUMP2 =    -0.21871291057786D+03
 CCSD(T)
 CCSD(T)= -0.21874693000D+03

 The electronic state is 1-SGG.
 Alpha  occ. eigenvalues --  -15.67790 -15.67790 -15.67420 -15.67420  -1.47429
 Alpha  occ. eigenvalues --   -1.47428  -0.77425  -0.77349  -0.63265  -0.63129
 Alpha  occ. eigenvalues --   -0.61443  -0.61443  -0.61435  -0.61435
 Alpha virt. eigenvalues --    0.16578   0.16578   0.16766   0.16766   0.36600
 Alpha virt. eigenvalues --    0.47155   0.54000   0.56065   0.56065   0.56352
 Alpha virt. eigenvalues --    0.56352   0.61567   0.67327   0.67732   0.72863

 Mulliken charges:
               1
     1  N    0.001955
     2  N   -0.001955
     3  N   -0.001955
     4  N    0.001955
 Sum of Mulliken charges =  -0.00000

 Dipole moment (field-independent basis, Debye):
    X=              0.0000    Y=              0.0000    Z=              0.0000  Tot=              0.0000
 Quadrupole moment (field-independent basis, Debye-Ang):
   XX=            -20.4979   YY=            -20.4979   ZZ=            -23.3918
   XY=              0.0000   XZ=              0.0000   YZ=             -0.0000

 P4SDQ=-218.7148541\CCSD=-218.7105249\CCSD(T)=-218.74693\RMSD=9.864e-09
 Normal termination of Gaussian 16 at Fri Feb  9 20:00:31 2024.
