 Gaussian 16, Revision A.03,
 Gaussian 16:  ES64L-G16RevA.03 25-Dec-2016

 ------------------
 #p CCSD(T)/cc-pVTZ
 ------------------

 ---------
 N2_N2_139
 ---------
 Symbolic Z-matrix:
 Charge =  0 Multiplicity = 1

                         Standard orientation:
 ---------------------------------------------------------------------
 Center     Atomic      Atomic             Coordinates (Angstroms)
 Number     Number       Type             X           Y           Z
 ---------------------------------------------------------------------
      1          7           0        0.578060   -2.270560    0.000000
      2          7           0       -0.192687   -1.499813    0.000000
      3          7           0       -0.192687    1.340186   -0.000000
      4          7           0       -0.192687    2.430187   -0.000000
 ---------------------------------------------------------------------

 SCF Done:  E(RHF) =  -217.966206673     A.U. after   12 cycles
 E2 =    -0.7448924357D+00 EUMP2 =    -0.21871109910897D+03
 CCSD(T)
 CCSD(T)= -0.21874489580D+03

 The electronic state is 1-A'.
 Alpha  occ. eigenvalues --  -15.67695 -15.67402 -15.67306 -15.67031  -1.47399
 Alpha  occ. eigenvalues --   -1.47113  -0.78354  -0.76358  -0.64335  -0.62072
 Alpha  occ. eigenvalues --   -0.61485  -0.61394  -0.61078  -0.60661
 Alpha virt. eigenvalues --    0.15524   0.16211   0.17568   0.18044   0.43735
 Alpha virt. eigenvalues --    0.46182   0.52936   0.53849   0.54708   0.58309
 Alpha virt. eigenvalues --    0.59376   0.63729   0.66924   0.70516   0.72327

 Mulliken charges:
               1
     1  N    0.005583
     2  N   -0.006055
     3  N   -0.001279
     4  N    0.001752
 Sum of Mulliken charges =  -0.00000

 Dipole moment (field-independent basis, Debye):
    X=             -0.0370    Y=              0.0428    Z=              0.0000  Tot=              0.0565
 Quadrupole moment (field-independent basis, Debye-Ang):
   XX=            -21.2174   YY=            -22.9144   ZZ=            -20.5001
   XY=              0.7234   XZ=              0.0000   YZ=              0.0000

 DQ=-218.7018978\MP4SDQ=-218.712717\CCSD=-218.7082835\CCSD(T)=-218.7448
 Normal termination of Gaussian 16 at Fri Feb  9 18:58:04 2024.
