 Gaussian 16, Revision A.03,
 Gaussian 16:  ES64L-G16RevA.03 25-Dec-2016

 ------------------
 #p CCSD(T)/cc-pVTZ
 ------------------

 --------
 N2_N2_44
 --------
 Symbolic Z-matrix:
 Charge =  0 Multiplicity = 1

                         Standard orientation:
 ---------------------------------------------------------------------
 Center     Atomic      Atomic             Coordinates (Angstroms)
 Number     Number       Type             X           Y           Z
 ---------------------------------------------------------------------
      1          7           0       -0.817500   -1.052500    0.000000
      2          7           0        0.272500   -1.052500    0.000000
      3          7           0        0.272500    0.507500    0.000000
      4          7           0        0.272500    1.597500    0.000000
 ---------------------------------------------------------------------

 SCF Done:  E(RHF) =  -217.716651439     A.U. after   15 cycles
 E2 =    -0.7632278329D+00 EUMP2 =    -0.21847987927192D+03
 CCSD(T)
 CCSD(T)= -0.21851689672D+03

 The electronic state is 1-A'.
 Alpha  occ. eigenvalues --  -15.69861 -15.69339 -15.68349 -15.59187  -1.52832
 Alpha  occ. eigenvalues --   -1.46458  -0.94544  -0.76282  -0.70809  -0.67925
 Alpha  occ. eigenvalues --   -0.63419  -0.60050  -0.57710  -0.39467
 Alpha virt. eigenvalues --    0.12859   0.13600   0.19778   0.23863   0.41483
 Alpha virt. eigenvalues --    0.43402   0.50552   0.52938   0.55881   0.58673
 Alpha virt. eigenvalues --    0.61450   0.66220   0.73563   0.73961   0.76225

 Mulliken charges:
               1
     1  N   -0.183196
     2  N    0.086282
     3  N    0.087149
     4  N    0.009765
 Sum of Mulliken charges =  -0.00000

 Dipole moment (field-independent basis, Debye):
    X=              0.9091    Y=              1.0771    Z=              0.0000  Tot=              1.4095
 Quadrupole moment (field-independent basis, Debye-Ang):
   XX=            -22.6953   YY=            -23.5479   ZZ=            -20.0871
   XY=             -0.8652   XZ=              0.0000   YZ=              0.0000

 SDQ=-218.4802429\CCSD=-218.4761649\CCSD(T)=-218.5168967\RMSD=6.706e-09
 Normal termination of Gaussian 16 at Fri Feb  9 18:07:41 2024.
