 Gaussian 16, Revision A.03,
 Gaussian 16:  ES64L-G16RevA.03 25-Dec-2016

 ------------------
 #p CCSD(T)/cc-pVTZ
 ------------------

 ---------
 N2_N2_117
 ---------
 Symbolic Z-matrix:
 Charge =  0 Multiplicity = 1

                         Standard orientation:
 ---------------------------------------------------------------------
 Center     Atomic      Atomic             Coordinates (Angstroms)
 Number     Number       Type             X           Y           Z
 ---------------------------------------------------------------------
      1          7           0        0.000000    0.000000    2.370000
      2          7           0        0.000000    0.000000    1.280000
      3          7           0        0.000000    0.000000   -1.280000
      4          7           0        0.000000    0.000000   -2.370000
 ---------------------------------------------------------------------

 SCF Done:  E(RHF) =  -217.958424988     A.U. after   10 cycles
 E2 =    -0.7457840021D+00 EUMP2 =    -0.21870420898985D+03
 CCSD(T)
 CCSD(T)= -0.21873792767D+03

 The electronic state is 1-SGG.
 Alpha  occ. eigenvalues --  -15.67185 -15.67185 -15.66688 -15.66688  -1.47045
 Alpha  occ. eigenvalues --   -1.46925  -0.79285  -0.75413  -0.64947  -0.61283
 Alpha  occ. eigenvalues --   -0.61283  -0.60770  -0.60770  -0.59960
 Alpha virt. eigenvalues --    0.15022   0.15022   0.19048   0.19048   0.45212
 Alpha virt. eigenvalues --    0.47062   0.53790   0.53790   0.58829   0.58829
 Alpha virt. eigenvalues --    0.60439   0.66741   0.67003   0.70449   0.70449

 Mulliken charges:
               1
     1  N   -0.008965
     2  N    0.008965
     3  N    0.008965
     4  N   -0.008965
 Sum of Mulliken charges =  -0.00000

 Dipole moment (field-independent basis, Debye):
    X=             -0.0000    Y=              0.0000    Z=             -0.0000  Tot=              0.0000
 Quadrupole moment (field-independent basis, Debye-Ang):
   XX=            -20.5053   YY=            -20.5053   ZZ=            -23.9286
   XY=              0.0000   XZ=              0.0000   YZ=             -0.0000

 SDQ=-218.7057555\CCSD=-218.701202\CCSD(T)=-218.7379277\RMSD=8.611e-10\
 Normal termination of Gaussian 16 at Fri Feb  9 18:46:43 2024.
