 Gaussian 16, Revision A.03,
 Gaussian 16:  ES64L-G16RevA.03 25-Dec-2016

 ------------------
 #p CCSD(T)/cc-pVTZ
 ------------------

 ---------
 N2_N2_183
 ---------
 Symbolic Z-matrix:
 Charge =  0 Multiplicity = 1

                         Standard orientation:
 ---------------------------------------------------------------------
 Center     Atomic      Atomic             Coordinates (Angstroms)
 Number     Number       Type             X           Y           Z
 ---------------------------------------------------------------------
      1          7           0        0.000000    0.000000    2.810000
      2          7           0        0.000000    0.000000    1.720000
      3          7           0        0.000000    0.000000   -1.720000
      4          7           0        0.000000    0.000000   -2.810000
 ---------------------------------------------------------------------

 SCF Done:  E(RHF) =  -217.969031602     A.U. after   10 cycles
 E2 =    -0.7437988148D+00 EUMP2 =    -0.21871283041665D+03
 CCSD(T)
 CCSD(T)= -0.21874679266D+03

 The electronic state is 1-SGG.
 Alpha  occ. eigenvalues --  -15.67671 -15.67671 -15.67300 -15.67300  -1.47334
 Alpha  occ. eigenvalues --   -1.47323  -0.77609  -0.76967  -0.63560  -0.62585
 Alpha  occ. eigenvalues --   -0.61376  -0.61376  -0.61306  -0.61306
 Alpha virt. eigenvalues --    0.16154   0.16154   0.17357   0.17357   0.38620
 Alpha virt. eigenvalues --    0.47063   0.52450   0.55166   0.55166   0.57184
 Alpha virt. eigenvalues --    0.57184   0.66578   0.67238   0.70839   0.70839

 Mulliken charges:
               1
     1  N    0.007183
     2  N   -0.007183
     3  N   -0.007183
     4  N    0.007183
 Sum of Mulliken charges =   0.00000

 Dipole moment (field-independent basis, Debye):
    X=              0.0000    Y=              0.0000    Z=             -0.0000  Tot=              0.0000
 Quadrupole moment (field-independent basis, Debye-Ang):
   XX=            -20.5006   YY=            -20.5006   ZZ=            -23.5245
   XY=              0.0000   XZ=              0.0000   YZ=             -0.0000

 P4SDQ=-218.714698\CCSD=-218.7103249\CCSD(T)=-218.7467927\RMSD=7.218e-1
 Normal termination of Gaussian 16 at Fri Feb  9 19:21:57 2024.
