 Gaussian 16, Revision A.03,
 Gaussian 16:  ES64L-G16RevA.03 25-Dec-2016

 ------------------
 #p CCSD(T)/cc-pVTZ
 ------------------

 ---------
 N2_N2_152
 ---------
 Symbolic Z-matrix:
 Charge =  0 Multiplicity = 1

                         Standard orientation:
 ---------------------------------------------------------------------
 Center     Atomic      Atomic             Coordinates (Angstroms)
 Number     Number       Type             X           Y           Z
 ---------------------------------------------------------------------
      1          7           0       -0.817500   -1.772500    0.000000
      2          7           0        0.272500   -1.772500    0.000000
      3          7           0        0.272500    1.227500    0.000000
      4          7           0        0.272500    2.317500    0.000000
 ---------------------------------------------------------------------

 SCF Done:  E(RHF) =  -217.967437607     A.U. after   12 cycles
 E2 =    -0.7452407554D+00 EUMP2 =    -0.21871267836242D+03
 CCSD(T)
 CCSD(T)= -0.21874641796D+03

 The electronic state is 1-A'.
 Alpha  occ. eigenvalues --  -15.67982 -15.67595 -15.67465 -15.67089  -1.47653
 Alpha  occ. eigenvalues --   -1.47112  -0.77893  -0.77051  -0.64316  -0.62743
 Alpha  occ. eigenvalues --   -0.61720  -0.61674  -0.61105  -0.60394
 Alpha virt. eigenvalues --    0.15143   0.16186   0.17061   0.18245   0.41756
 Alpha virt. eigenvalues --    0.44626   0.51837   0.53463   0.55097   0.57243
 Alpha virt. eigenvalues --    0.58545   0.60631   0.66529   0.69731   0.72750

 Mulliken charges:
               1
     1  N   -0.006348
     2  N    0.007094
     3  N   -0.006094
     4  N    0.005348
 Sum of Mulliken charges =  -0.00000

 Dipole moment (field-independent basis, Debye):
    X=              0.0283    Y=              0.0564    Z=              0.0000  Tot=              0.0631
 Quadrupole moment (field-independent basis, Debye-Ang):
   XX=            -21.9153   YY=            -22.0489   ZZ=            -20.4943
   XY=             -0.0373   XZ=              0.0000   YZ=              0.0000

 Q=-218.7141099\CCSD=-218.7097747\CCSD(T)=-218.746418\RMSD=2.034e-09\PG
 Normal termination of Gaussian 16 at Fri Feb  9 19:06:10 2024.
