 Gaussian 16, Revision A.03,
 Gaussian 16:  ES64L-G16RevA.03 25-Dec-2016

 ------------------
 #p CCSD(T)/cc-pVTZ
 ------------------

 ---------
 N2_N2_178
 ---------
 Symbolic Z-matrix:
 Charge =  0 Multiplicity = 1

                         Standard orientation:
 ---------------------------------------------------------------------
 Center     Atomic      Atomic             Coordinates (Angstroms)
 Number     Number       Type             X           Y           Z
 ---------------------------------------------------------------------
      1          7           0        0.578060   -2.530560    0.000000
      2          7           0       -0.192687   -1.759813   -0.000000
      3          7           0       -0.192687    1.600187   -0.000000
      4          7           0       -0.192687    2.690186   -0.000000
 ---------------------------------------------------------------------

 SCF Done:  E(RHF) =  -217.969115086     A.U. after   12 cycles
 E2 =    -0.7439408224D+00 EUMP2 =    -0.21871305590829D+03
 CCSD(T)
 CCSD(T)= -0.21874699092D+03

 The electronic state is 1-A'.
 Alpha  occ. eigenvalues --  -15.67808 -15.67643 -15.67438 -15.67272  -1.47458
 Alpha  occ. eigenvalues --   -1.47293  -0.77701  -0.77006  -0.63646  -0.62686
 Alpha  occ. eigenvalues --   -0.61484  -0.61475  -0.61298  -0.61239
 Alpha virt. eigenvalues --    0.16080   0.16359   0.16982   0.17317   0.39922
 Alpha virt. eigenvalues --    0.45952   0.52284   0.54434   0.54894   0.57326
 Alpha virt. eigenvalues --    0.57824   0.63713   0.67053   0.69811   0.70876

 Mulliken charges:
               1
     1  N    0.004841
     2  N   -0.005030
     3  N   -0.007771
     4  N    0.007960
 Sum of Mulliken charges =  -0.00000

 Dipole moment (field-independent basis, Debye):
    X=             -0.0196    Y=              0.0185    Z=             -0.0000  Tot=              0.0269
 Quadrupole moment (field-independent basis, Debye-Ang):
   XX=            -21.2035   YY=            -22.7536   ZZ=            -20.4989
   XY=              0.7119   XZ=              0.0000   YZ=              0.0000

 P4DQ=-218.7040578\MP4SDQ=-218.7148712\CCSD=-218.710506\CCSD(T)=-218.74
 Normal termination of Gaussian 16 at Fri Feb  9 19:19:22 2024.
