 Gaussian 16, Revision A.03,
 Gaussian 16:  ES64L-G16RevA.03 25-Dec-2016

 ------------------
 #p CCSD(T)/cc-pVTZ
 ------------------

 --------
 N2_N2_77
 --------
 Symbolic Z-matrix:
 Charge =  0 Multiplicity = 1

                         Standard orientation:
 ---------------------------------------------------------------------
 Center     Atomic      Atomic             Coordinates (Angstroms)
 Number     Number       Type             X           Y           Z
 ---------------------------------------------------------------------
      1          7           0       -0.817500   -1.272500    0.000000
      2          7           0        0.272500   -1.272500    0.000000
      3          7           0        0.272500    0.727500    0.000000
      4          7           0        0.272500    1.817500    0.000000
 ---------------------------------------------------------------------

 SCF Done:  E(RHF) =  -217.896216652     A.U. after   13 cycles
 E2 =    -0.7572913834D+00 EUMP2 =    -0.21865350803496D+03
 CCSD(T)
 CCSD(T)= -0.21868559166D+03

 The electronic state is 1-A'.
 Alpha  occ. eigenvalues --  -15.67763 -15.66496 -15.66309 -15.65050  -1.48144
 Alpha  occ. eigenvalues --   -1.46226  -0.83052  -0.75831  -0.68070  -0.62916
 Alpha  occ. eigenvalues --   -0.62529  -0.61039  -0.59466  -0.51936
 Alpha virt. eigenvalues --    0.13630   0.15082   0.18442   0.21533   0.41929
 Alpha virt. eigenvalues --    0.45043   0.53264   0.54165   0.55679   0.57935
 Alpha virt. eigenvalues --    0.61170   0.66516   0.73466   0.74263   0.75838

 Mulliken charges:
               1
     1  N   -0.038730
     2  N    0.037431
     3  N   -0.001863
     4  N    0.003162
 Sum of Mulliken charges =   0.00000

 Dipole moment (field-independent basis, Debye):
    X=              0.2147    Y=              0.2228    Z=              0.0000  Tot=              0.3094
 Quadrupole moment (field-independent basis, Debye-Ang):
   XX=            -22.0340   YY=            -22.6978   ZZ=            -20.4054
   XY=             -0.3065   XZ=              0.0000   YZ=              0.0000

 -218.6521426\CCSD=-218.6475182\CCSD(T)=-218.6855917\RMSD=7.905e-09\PG=
 Normal termination of Gaussian 16 at Fri Feb  9 18:25:38 2024.
