 Gaussian 16, Revision A.03,
 Gaussian 16:  ES64L-G16RevA.03 25-Dec-2016

 ------------------
 #p CCSD(T)/cc-pVTZ
 ------------------

 --------
 N2_N2_15
 --------
 Symbolic Z-matrix:
 Charge =  0 Multiplicity = 1

                         Standard orientation:
 ---------------------------------------------------------------------
 Center     Atomic      Atomic             Coordinates (Angstroms)
 Number     Number       Type             X           Y           Z
 ---------------------------------------------------------------------
      1          7           0        0.000000    0.000000    1.690000
      2          7           0        0.000000    0.000000    0.600000
      3          7           0        0.000000    0.000000   -0.600000
      4          7           0        0.000000    0.000000   -1.690000
 ---------------------------------------------------------------------

 SCF Done:  E(RHF) =  -217.593275216     A.U. after   11 cycles
 E2 =    -0.7632008007D+00 EUMP2 =    -0.21835647601678D+03
 CCSD(T)
 CCSD(T)= -0.21839540914D+03

 Unable to determine electronic state:  an orbital has unidentified symmetry.
 Alpha  occ. eigenvalues --  -15.77226 -15.77078 -15.64452 -15.64452  -1.58336
 Alpha  occ. eigenvalues --   -1.47293  -1.24848  -0.80193  -0.77790  -0.68076
 Alpha  occ. eigenvalues --   -0.66211  -0.61450  -0.56942  -0.28323
 Alpha virt. eigenvalues --    0.05947   0.21650   0.27569   0.31914   0.45115
 Alpha virt. eigenvalues --    0.45423   0.46204   0.50499   0.51419   0.59546
 Alpha virt. eigenvalues --    0.61659   0.63196   0.71823   0.72875   0.79674

 Mulliken charges:
               1
     1  N   -0.112036
     2  N    0.112036
     3  N    0.112036
     4  N   -0.112036
 Sum of Mulliken charges =  -0.00000

 Dipole moment (field-independent basis, Debye):
    X=             -0.0000    Y=             -0.0000    Z=             -0.0000  Tot=              0.0000
 Quadrupole moment (field-independent basis, Debye-Ang):
   XX=            -19.1726   YY=            -21.8994   ZZ=            -30.0067
   XY=              0.0000   XZ=              0.0000   YZ=             -0.0000

 35\CCSD=-218.3522619\CCSD(T)=-218.3954091\RMSD=4.435e-09\PG=D*H [C*(N1
 Normal termination of Gaussian 16 at Fri Feb  9 17:48:16 2024.
