 Gaussian 16, Revision A.03,
 Gaussian 16:  ES64L-G16RevA.03 25-Dec-2016

 ------------------
 #p CCSD(T)/cc-pVTZ
 ------------------

 --------
 N2_N2_61
 --------
 Symbolic Z-matrix:
 Charge =  0 Multiplicity = 1

                         Standard orientation:
 ---------------------------------------------------------------------
 Center     Atomic      Atomic             Coordinates (Angstroms)
 Number     Number       Type             X           Y           Z
 ---------------------------------------------------------------------
      1          7           0        0.578060   -1.750560    0.000000
      2          7           0       -0.192687   -0.979813    0.000000
      3          7           0       -0.192687    0.820186    0.000000
      4          7           0       -0.192687    1.910187    0.000000
 ---------------------------------------------------------------------

 SCF Done:  E(RHF) =  -217.852151003     A.U. after   14 cycles
 E2 =    -0.7598907520D+00 EUMP2 =    -0.21861204175480D+03
 CCSD(T)
 CCSD(T)= -0.21864376340D+03

 The electronic state is 1-A'.
 Alpha  occ. eigenvalues --  -15.68178 -15.66478 -15.64845 -15.64338  -1.48194
 Alpha  occ. eigenvalues --   -1.45547  -0.89696  -0.72857  -0.67366  -0.63313
 Alpha  occ. eigenvalues --   -0.63146  -0.59551  -0.58910  -0.48482
 Alpha virt. eigenvalues --    0.12563   0.15020   0.21457   0.22005   0.44250
 Alpha virt. eigenvalues --    0.46458   0.52383   0.53710   0.60339   0.61118
 Alpha virt. eigenvalues --    0.62746   0.64157   0.68071   0.74462   0.81469

 Mulliken charges:
               1
     1  N   -0.045442
     2  N    0.004269
     3  N    0.022447
     4  N    0.018726
 Sum of Mulliken charges =  -0.00000

 Dipole moment (field-independent basis, Debye):
    X=             -0.1934    Y=              0.6925    Z=             -0.0000  Tot=              0.7189
 Quadrupole moment (field-independent basis, Debye-Ang):
   XX=            -21.4536   YY=            -23.8887   ZZ=            -20.3865
   XY=              0.8016   XZ=             -0.0000   YZ=             -0.0000

 DQ=-218.5995762\MP4SDQ=-218.6107753\CCSD=-218.6051795\CCSD(T)=-218.643
 Normal termination of Gaussian 16 at Fri Feb  9 18:17:12 2024.
