 Gaussian 16, Revision A.03,
 Gaussian 16:  ES64L-G16RevA.03 25-Dec-2016

 ------------------
 #p CCSD(T)/cc-pVTZ
 ------------------

 ---------
 N2_N2_224
 ---------
 Symbolic Z-matrix:
 Charge =  0 Multiplicity = 1

                         Standard orientation:
 ---------------------------------------------------------------------
 Center     Atomic      Atomic             Coordinates (Angstroms)
 Number     Number       Type             X           Y           Z
 ---------------------------------------------------------------------
      1          7           0       -0.817500   -2.252500    0.000000
      2          7           0        0.272500   -2.252500    0.000000
      3          7           0        0.272500    1.707500    0.000000
      4          7           0        0.272500    2.797500    0.000000
 ---------------------------------------------------------------------

 SCF Done:  E(RHF) =  -217.969702679     A.U. after   11 cycles
 E2 =    -0.7436231160D+00 EUMP2 =    -0.21871332579474D+03
 CCSD(T)
 CCSD(T)= -0.21874730259D+03

 The electronic state is 1-A'.
 Alpha  occ. eigenvalues --  -15.67976 -15.67737 -15.67605 -15.67366  -1.47606
 Alpha  occ. eigenvalues --   -1.47360  -0.77589  -0.77335  -0.63461  -0.63116
 Alpha  occ. eigenvalues --   -0.61618  -0.61616  -0.61377  -0.61328
 Alpha virt. eigenvalues --    0.16154   0.16463   0.16736   0.17034   0.39271
 Alpha virt. eigenvalues --    0.42879   0.52278   0.55482   0.55722   0.56430
 Alpha virt. eigenvalues --    0.56771   0.62217   0.67028   0.69737   0.72994

 Mulliken charges:
               1
     1  N   -0.001668
     2  N    0.002079
     3  N   -0.003407
     4  N    0.002996
 Sum of Mulliken charges =  -0.00000

 Dipole moment (field-independent basis, Debye):
    X=              0.0070    Y=              0.0157    Z=              0.0000  Tot=              0.0172
 Quadrupole moment (field-independent basis, Debye-Ang):
   XX=            -21.8969   YY=            -21.8930   ZZ=            -20.4965
   XY=             -0.0068   XZ=              0.0000   YZ=              0.0000

 4SDQ=-218.7151796\CCSD=-218.7108635\CCSD(T)=-218.7473026\RMSD=9.520e-0
 Normal termination of Gaussian 16 at Fri Feb  9 19:43:04 2024.
