 Gaussian 16, Revision A.03,
 Gaussian 16:  ES64L-G16RevA.03 25-Dec-2016

 ------------------
 #p CCSD(T)/cc-pVTZ
 ------------------

 ---------
 N2_N2_161
 ---------
 Symbolic Z-matrix:
 Charge =  0 Multiplicity = 1

                         Standard orientation:
 ---------------------------------------------------------------------
 Center     Atomic      Atomic             Coordinates (Angstroms)
 Number     Number       Type             X           Y           Z
 ---------------------------------------------------------------------
      1          7           0       -0.817500   -1.832500    0.000000
      2          7           0        0.272500   -1.832500    0.000000
      3          7           0        0.272500    1.287500    0.000000
      4          7           0        0.272500    2.377500    0.000000
 ---------------------------------------------------------------------

 SCF Done:  E(RHF) =  -217.968300075     A.U. after   12 cycles
 E2 =    -0.7448665278D+00 EUMP2 =    -0.21871316660250D+03
 CCSD(T)
 CCSD(T)= -0.21874696308D+03

 The electronic state is 1-A'.
 Alpha  occ. eigenvalues --  -15.67992 -15.67613 -15.67528 -15.67154  -1.47649
 Alpha  occ. eigenvalues --   -1.47164  -0.77804  -0.77116  -0.64099  -0.62807
 Alpha  occ. eigenvalues --   -0.61698  -0.61670  -0.61168  -0.60658
 Alpha virt. eigenvalues --    0.15303   0.16243   0.16992   0.18018   0.41385
 Alpha virt. eigenvalues --    0.43949   0.51392   0.53751   0.55065   0.57070
 Alpha virt. eigenvalues --    0.58258   0.61097   0.66622   0.69402   0.72735

 Mulliken charges:
               1
     1  N   -0.005702
     2  N    0.006338
     3  N   -0.007111
     4  N    0.006476
 Sum of Mulliken charges =   0.00000

 Dipole moment (field-independent basis, Debye):
    X=              0.0234    Y=              0.0484    Z=              0.0000  Tot=              0.0537
 Quadrupole moment (field-independent basis, Debye-Ang):
   XX=            -21.9109   YY=            -22.0133   ZZ=            -20.4950
   XY=             -0.0293   XZ=              0.0000   YZ=              0.0000

 4SDQ=-218.7146956\CCSD=-218.7103654\CCSD(T)=-218.7469631\RMSD=2.016e-0
 Normal termination of Gaussian 16 at Fri Feb  9 19:10:47 2024.
