 Gaussian 16, Revision A.03,
 Gaussian 16:  ES64L-G16RevA.03 25-Dec-2016

 ------------------
 #p CCSD(T)/cc-pVTZ
 ------------------

 --------
 N2_N2_62
 --------
 Symbolic Z-matrix:
 Charge =  0 Multiplicity = 1

                         Standard orientation:
 ---------------------------------------------------------------------
 Center     Atomic      Atomic             Coordinates (Angstroms)
 Number     Number       Type             X           Y           Z
 ---------------------------------------------------------------------
      1          7           0       -0.817500   -1.172500    0.000000
      2          7           0        0.272500   -1.172500    0.000000
      3          7           0        0.272500    0.627500    0.000000
      4          7           0        0.272500    1.717500    0.000000
 ---------------------------------------------------------------------

 SCF Done:  E(RHF) =  -217.835029915     A.U. after   14 cycles
 E2 =    -0.7629639184D+00 EUMP2 =    -0.21859799383316D+03
 CCSD(T)
 CCSD(T)= -0.21863010491D+03

 The electronic state is 1-A'.
 Alpha  occ. eigenvalues --  -15.68027 -15.66775 -15.66230 -15.63433  -1.49162
 Alpha  occ. eigenvalues --   -1.46007  -0.86965  -0.75611  -0.68986  -0.64155
 Alpha  occ. eigenvalues --   -0.62810  -0.60639  -0.58704  -0.47248
 Alpha virt. eigenvalues --    0.13448   0.14450   0.18987   0.22483   0.41779
 Alpha virt. eigenvalues --    0.44534   0.52445   0.53467   0.55543   0.58482
 Alpha virt. eigenvalues --    0.61520   0.66580   0.73416   0.75610   0.76268

 Mulliken charges:
               1
     1  N   -0.070747
     2  N    0.058797
     3  N    0.008991
     4  N    0.002959
 Sum of Mulliken charges =   0.00000

 Dipole moment (field-independent basis, Debye):
    X=              0.3871    Y=              0.4032    Z=              0.0000  Tot=              0.5589
 Quadrupole moment (field-independent basis, Debye-Ang):
   XX=            -22.1646   YY=            -22.9586   ZZ=            -20.3210
   XY=             -0.4876   XZ=              0.0000   YZ=              0.0000

 Q=-218.5958388\CCSD=-218.5910643\CCSD(T)=-218.6301049\RMSD=4.635e-09\P
 Normal termination of Gaussian 16 at Fri Feb  9 18:17:44 2024.
