 Gaussian 16, Revision A.03,
 Gaussian 16:  ES64L-G16RevA.03 25-Dec-2016

 ------------------
 #p CCSD(T)/cc-pVTZ
 ------------------

 ---------
 N2_N2_269
 ---------
 Symbolic Z-matrix:
 Charge =  0 Multiplicity = 1

                         Standard orientation:
 ---------------------------------------------------------------------
 Center     Atomic      Atomic             Coordinates (Angstroms)
 Number     Number       Type             X           Y           Z
 ---------------------------------------------------------------------
      1          7           0       -0.817500   -2.552500    0.000000
      2          7           0        0.272500   -2.552500    0.000000
      3          7           0        0.272500    2.007500    0.000000
      4          7           0        0.272500    3.097500    0.000000
 ---------------------------------------------------------------------

 SCF Done:  E(RHF) =  -217.969669459     A.U. after    9 cycles
 E2 =    -0.7433625048D+00 EUMP2 =    -0.21871303196377D+03
 CCSD(T)
 CCSD(T)= -0.21874705236D+03

 The electronic state is 1-A'.
 Alpha  occ. eigenvalues --  -15.67950 -15.67782 -15.67580 -15.67412  -1.47581
 Alpha  occ. eigenvalues --   -1.47411  -0.77555  -0.77385  -0.63376  -0.63194
 Alpha  occ. eigenvalues --   -0.61592  -0.61591  -0.61425  -0.61411
 Alpha virt. eigenvalues --    0.16432   0.16510   0.16679   0.16762   0.41379
 Alpha virt. eigenvalues --    0.42789   0.53880   0.55953   0.56006   0.56227
 Alpha virt. eigenvalues --    0.56336   0.59305   0.67173   0.67836   0.72556

 Mulliken charges:
               1
     1  N   -0.000598
     2  N    0.000739
     3  N   -0.000578
     4  N    0.000436
 Sum of Mulliken charges =   0.00000

 Dipole moment (field-independent basis, Debye):
    X=              0.0037    Y=              0.0101    Z=              0.0000  Tot=              0.0107
 Quadrupole moment (field-independent basis, Debye-Ang):
   XX=            -21.8944   YY=            -21.8878   ZZ=            -20.4964
   XY=             -0.0039   XZ=              0.0000   YZ=              0.0000

 SDQ=-218.7149591\CCSD=-218.7106466\CCSD(T)=-218.7470524\RMSD=9.359e-09
 Normal termination of Gaussian 16 at Fri Feb  9 20:07:22 2024.
