 Gaussian 16, Revision A.03,
 Gaussian 16:  ES64L-G16RevA.03 25-Dec-2016

 ------------------
 #p CCSD(T)/cc-pVTZ
 ------------------

 ---------
 N2_N2_231
 ---------
 Symbolic Z-matrix:
 Charge =  0 Multiplicity = 1

                         Standard orientation:
 ---------------------------------------------------------------------
 Center     Atomic      Atomic             Coordinates (Angstroms)
 Number     Number       Type             X           Y           Z
 ---------------------------------------------------------------------
      1          7           0        0.000000    0.000000    3.130000
      2          7           0        0.000000    0.000000    2.040000
      3          7           0        0.000000    0.000000   -2.040000
      4          7           0        0.000000    0.000000   -3.130000
 ---------------------------------------------------------------------

 SCF Done:  E(RHF) =  -217.969513941     A.U. after   10 cycles
 E2 =    -0.7434532786D+00 EUMP2 =    -0.21871296721956D+03
 CCSD(T)
 CCSD(T)= -0.21874697124D+03

 The electronic state is 1-SGG.
 Alpha  occ. eigenvalues --  -15.67765 -15.67765 -15.67395 -15.67395  -1.47406
 Alpha  occ. eigenvalues --   -1.47404  -0.77443  -0.77277  -0.63308  -0.63028
 Alpha  occ. eigenvalues --   -0.61425  -0.61425  -0.61407  -0.61407
 Alpha virt. eigenvalues --    0.16496   0.16496   0.16891   0.16891   0.35428
 Alpha virt. eigenvalues --    0.47734   0.53299   0.55897   0.55897   0.56533
 Alpha virt. eigenvalues --    0.56533   0.65329   0.67295   0.69514   0.72317

 Mulliken charges:
               1
     1  N    0.004999
     2  N   -0.004999
     3  N   -0.004999
     4  N    0.004999
 Sum of Mulliken charges =  -0.00000

 Dipole moment (field-independent basis, Debye):
    X=              0.0000    Y=              0.0000    Z=              0.0000  Tot=              0.0000
 Quadrupole moment (field-independent basis, Debye-Ang):
   XX=            -20.4986   YY=            -20.4986   ZZ=            -23.4206
   XY=              0.0000   XZ=              0.0000   YZ=             -0.0000

 P4SDQ=-218.7148912\CCSD=-218.7105523\CCSD(T)=-218.7469712\RMSD=6.415e-
 Normal termination of Gaussian 16 at Fri Feb  9 19:46:37 2024.
