 Gaussian 16, Revision A.03,
 Gaussian 16:  ES64L-G16RevA.03 25-Dec-2016

 ------------------
 #p CCSD(T)/cc-pVTZ
 ------------------

 --------
 N2_N2_52
 --------
 Symbolic Z-matrix:
 Charge =  0 Multiplicity = 1

                         Standard orientation:
 ---------------------------------------------------------------------
 Center     Atomic      Atomic             Coordinates (Angstroms)
 Number     Number       Type             X           Y           Z
 ---------------------------------------------------------------------
      1          7           0        0.578060   -1.690560    0.000000
      2          7           0       -0.192687   -0.919813    0.000000
      3          7           0       -0.192687    0.760186   -0.000000
      4          7           0       -0.192687    1.850187   -0.000000
 ---------------------------------------------------------------------

 SCF Done:  E(RHF) =  -217.802644316     A.U. after   14 cycles
 E2 =    -0.7650304131D+00 EUMP2 =    -0.21856767472928D+03
 CCSD(T)
 CCSD(T)= -0.21859905315D+03

 The electronic state is 1-A'.
 Alpha  occ. eigenvalues --  -15.69083 -15.67348 -15.64451 -15.63106  -1.49180
 Alpha  occ. eigenvalues --   -1.45096  -0.93871  -0.72742  -0.67449  -0.64353
 Alpha  occ. eigenvalues --   -0.64346  -0.59132  -0.58268  -0.44444
 Alpha virt. eigenvalues --    0.11619   0.14389   0.22703   0.22853   0.43609
 Alpha virt. eigenvalues --    0.46865   0.52307   0.53548   0.60128   0.61542
 Alpha virt. eigenvalues --    0.61866   0.64228   0.68854   0.74892   0.80983

 Mulliken charges:
               1
     1  N   -0.074741
     2  N   -0.001825
     3  N    0.043271
     4  N    0.033295
 Sum of Mulliken charges =  -0.00000

 Dipole moment (field-independent basis, Debye):
    X=             -0.2529    Y=              1.1126    Z=             -0.0000  Tot=              1.1410
 Quadrupole moment (field-independent basis, Debye-Ang):
   XX=            -21.6116   YY=            -24.1066   ZZ=            -20.3212
   XY=              0.8170   XZ=             -0.0000   YZ=              0.0000

 4DQ=-218.5540022\MP4SDQ=-218.5656093\CCSD=-218.5595627\CCSD(T)=-218.59
 Normal termination of Gaussian 16 at Fri Feb  9 18:12:16 2024.
