 Gaussian 16, Revision A.03,
 Gaussian 16:  ES64L-G16RevA.03 25-Dec-2016

 ------------------
 #p CCSD(T)/cc-pVTZ
 ------------------

 ---------
 N2_N2_130
 ---------
 Symbolic Z-matrix:
 Charge =  0 Multiplicity = 1

                         Standard orientation:
 ---------------------------------------------------------------------
 Center     Atomic      Atomic             Coordinates (Angstroms)
 Number     Number       Type             X           Y           Z
 ---------------------------------------------------------------------
      1          7           0        0.578060   -2.210560    0.000000
      2          7           0       -0.192687   -1.439813    0.000000
      3          7           0       -0.192687    1.280186   -0.000000
      4          7           0       -0.192687    2.370187   -0.000000
 ---------------------------------------------------------------------

 SCF Done:  E(RHF) =  -217.964351718     A.U. after   12 cycles
 E2 =    -0.7453070788D+00 EUMP2 =    -0.21870965879677D+03
 CCSD(T)
 CCSD(T)= -0.21874339262D+03

 The electronic state is 1-A'.
 Alpha  occ. eigenvalues --  -15.67652 -15.67302 -15.67242 -15.66929  -1.47380
 Alpha  occ. eigenvalues --   -1.47044  -0.78665  -0.76114  -0.64596  -0.61950
 Alpha  occ. eigenvalues --   -0.61496  -0.61335  -0.60988  -0.60321
 Alpha virt. eigenvalues --    0.15352   0.16167   0.17768   0.18287   0.44245
 Alpha virt. eigenvalues --    0.46167   0.52741   0.53662   0.55981   0.58576
 Alpha virt. eigenvalues --    0.59907   0.63703   0.66868   0.70655   0.73414

 Mulliken charges:
               1
     1  N    0.005086
     2  N   -0.005857
     3  N    0.001470
     4  N   -0.000698
 Sum of Mulliken charges =  -0.00000

 Dipole moment (field-independent basis, Debye):
    X=             -0.0436    Y=              0.0540    Z=             -0.0000  Tot=              0.0694
 Quadrupole moment (field-independent basis, Debye-Ang):
   XX=            -21.2229   YY=            -22.9743   ZZ=            -20.4997
   XY=              0.7277   XZ=             -0.0000   YZ=              0.0000

 DQ=-218.7003692\MP4SDQ=-218.7111899\CCSD=-218.7067275\CCSD(T)=-218.743
 Normal termination of Gaussian 16 at Fri Feb  9 18:53:32 2024.
