 Gaussian 16, Revision A.03,
 Gaussian 16:  ES64L-G16RevA.03 25-Dec-2016

 ------------------
 #p CCSD(T)/cc-pVTZ
 ------------------

 ---------
 N2_N2_268
 ---------
 Symbolic Z-matrix:
 Charge =  0 Multiplicity = 1

                         Standard orientation:
 ---------------------------------------------------------------------
 Center     Atomic      Atomic             Coordinates (Angstroms)
 Number     Number       Type             X           Y           Z
 ---------------------------------------------------------------------
      1          7           0        0.578060   -3.130560    0.000000
      2          7           0       -0.192687   -2.359813    0.000000
      3          7           0       -0.192687    2.200187    0.000000
      4          7           0       -0.192687    3.290186    0.000000
 ---------------------------------------------------------------------

 SCF Done:  E(RHF) =  -217.969599648     A.U. after   10 cycles
 E2 =    -0.7433296703D+00 EUMP2 =    -0.21871292931785D+03
 CCSD(T)
 CCSD(T)= -0.21874695229D+03

 The electronic state is 1-A'.
 Alpha  occ. eigenvalues --  -15.67861 -15.67793 -15.67491 -15.67423  -1.47496
 Alpha  occ. eigenvalues --   -1.47428  -0.77470  -0.77384  -0.63295  -0.63184
 Alpha  occ. eigenvalues --   -0.61507  -0.61506  -0.61440  -0.61436
 Alpha virt. eigenvalues --    0.16560   0.16573   0.16647   0.16710   0.39252
 Alpha virt. eigenvalues --    0.45234   0.54331   0.56010   0.56060   0.56296
 Alpha virt. eigenvalues --    0.56338   0.58924   0.67274   0.67559   0.72979

 Mulliken charges:
               1
     1  N   -0.000209
     2  N    0.000248
     3  N   -0.000681
     4  N    0.000642
 Sum of Mulliken charges =  -0.00000

 Dipole moment (field-independent basis, Debye):
    X=             -0.0061    Y=              0.0046    Z=              0.0000  Tot=              0.0076
 Quadrupole moment (field-independent basis, Debye-Ang):
   XX=            -21.1960   YY=            -22.6450   ZZ=            -20.4971
   XY=              0.7023   XZ=              0.0000   YZ=             -0.0000

 P4DQ=-218.7040717\MP4SDQ=-218.7148728\CCSD=-218.7105506\CCSD(T)=-218.7
 Normal termination of Gaussian 16 at Fri Feb  9 20:06:51 2024.
