 Gaussian 16, Revision A.03,
 Gaussian 16:  ES64L-G16RevA.03 25-Dec-2016

 ------------------
 #p CCSD(T)/cc-pVTZ
 ------------------

 ---------
 N2_N2_166
 ---------
 Symbolic Z-matrix:
 Charge =  0 Multiplicity = 1

                         Standard orientation:
 ---------------------------------------------------------------------
 Center     Atomic      Atomic             Coordinates (Angstroms)
 Number     Number       Type             X           Y           Z
 ---------------------------------------------------------------------
      1          7           0        0.578060   -2.450560   -0.000000
      2          7           0       -0.192687   -1.679813   -0.000000
      3          7           0       -0.192687    1.520187    0.000000
      4          7           0       -0.192687    2.610186    0.000000
 ---------------------------------------------------------------------

 SCF Done:  E(RHF) =  -217.968706893     A.U. after   12 cycles
 E2 =    -0.7441405068D+00 EUMP2 =    -0.21871284739957D+03
 CCSD(T)
 CCSD(T)= -0.21874675494D+03

 The electronic state is 1-A'.
 Alpha  occ. eigenvalues --  -15.67785 -15.67592 -15.67413 -15.67221  -1.47445
 Alpha  occ. eigenvalues --   -1.47253  -0.77823  -0.76863  -0.63795  -0.62520
 Alpha  occ. eigenvalues --   -0.61480  -0.61463  -0.61251  -0.61147
 Alpha virt. eigenvalues --    0.15939   0.16320   0.17122   0.17495   0.41217
 Alpha virt. eigenvalues --    0.45971   0.52404   0.54064   0.54571   0.57596
 Alpha virt. eigenvalues --    0.58223   0.63762   0.67021   0.70358   0.70631

 Mulliken charges:
               1
     1  N    0.005470
     2  N   -0.005742
     3  N   -0.007173
     4  N    0.007445
 Sum of Mulliken charges =  -0.00000

 Dipole moment (field-independent basis, Debye):
    X=             -0.0235    Y=              0.0234    Z=              0.0000  Tot=              0.0332
 Quadrupole moment (field-independent basis, Debye-Ang):
   XX=            -21.2064   YY=            -22.7902   ZZ=            -20.4993
   XY=              0.7145   XZ=             -0.0000   YZ=              0.0000

 P4DQ=-218.7038069\MP4SDQ=-218.7146221\CCSD=-218.7102426\CCSD(T)=-218.7
 Normal termination of Gaussian 16 at Fri Feb  9 19:13:20 2024.
