 Gaussian 16, Revision A.03,
 Gaussian 16:  ES64L-G16RevA.03 25-Dec-2016

 ------------------
 #p CCSD(T)/cc-pVTZ
 ------------------

 ---------
 N2_N2_193
 ---------
 Symbolic Z-matrix:
 Charge =  0 Multiplicity = 1

                         Standard orientation:
 ---------------------------------------------------------------------
 Center     Atomic      Atomic             Coordinates (Angstroms)
 Number     Number       Type             X           Y           Z
 ---------------------------------------------------------------------
      1          7           0        0.578060   -2.630560    0.000000
      2          7           0       -0.192687   -1.859814    0.000000
      3          7           0       -0.192687    1.700186   -0.000000
      4          7           0       -0.192687    2.790187   -0.000000
 ---------------------------------------------------------------------

 SCF Done:  E(RHF) =  -217.969381403     A.U. after   12 cycles
 E2 =    -0.7437552292D+00 EUMP2 =    -0.21871313663197D+03
 CCSD(T)
 CCSD(T)= -0.21874709618D+03

 The electronic state is 1-A'.
 Alpha  occ. eigenvalues --  -15.67828 -15.67690 -15.67458 -15.67319  -1.47471
 Alpha  occ. eigenvalues --   -1.47332  -0.77602  -0.77136  -0.63514  -0.62849
 Alpha  occ. eigenvalues --   -0.61489  -0.61485  -0.61341  -0.61310
 Alpha virt. eigenvalues --    0.16226   0.16401   0.16849   0.17137   0.38603
 Alpha virt. eigenvalues --    0.46000   0.52389   0.54881   0.55249   0.57035
 Alpha virt. eigenvalues --    0.57400   0.63522   0.67090   0.69240   0.71276

 Mulliken charges:
               1
     1  N    0.003801
     2  N   -0.003870
     3  N   -0.007204
     4  N    0.007273
 Sum of Mulliken charges =  -0.00000

 Dipole moment (field-independent basis, Debye):
    X=             -0.0158    Y=              0.0140    Z=             -0.0000  Tot=              0.0211
 Quadrupole moment (field-independent basis, Debye-Ang):
   XX=            -21.2009   YY=            -22.7186   ZZ=            -20.4985
   XY=              0.7094   XZ=              0.0000   YZ=              0.0000

 =-218.704178\MP4SDQ=-218.7149889\CCSD=-218.7106369\CCSD(T)=-218.747096
 Normal termination of Gaussian 16 at Fri Feb  9 19:27:06 2024.
