 Gaussian 16, Revision A.03,
 Gaussian 16:  ES64L-G16RevA.03 25-Dec-2016

 ------------------
 #p CCSD(T)/cc-pVTZ
 ------------------

 ---------
 N2_N2_160
 ---------
 Symbolic Z-matrix:
 Charge =  0 Multiplicity = 1

                         Standard orientation:
 ---------------------------------------------------------------------
 Center     Atomic      Atomic             Coordinates (Angstroms)
 Number     Number       Type             X           Y           Z
 ---------------------------------------------------------------------
      1          7           0        0.578060   -2.410560    0.000000
      2          7           0       -0.192687   -1.639814    0.000000
      3          7           0       -0.192687    1.480186   -0.000000
      4          7           0       -0.192687    2.570187   -0.000000
 ---------------------------------------------------------------------

 SCF Done:  E(RHF) =  -217.968393959     A.U. after   12 cycles
 E2 =    -0.7442642677D+00 EUMP2 =    -0.21871265822630D+03
 CCSD(T)
 CCSD(T)= -0.21874654817D+03

 The electronic state is 1-A'.
 Alpha  occ. eigenvalues --  -15.67770 -15.67560 -15.67397 -15.67190  -1.47436
 Alpha  occ. eigenvalues --   -1.47228  -0.77904  -0.76775  -0.63888  -0.62426
 Alpha  occ. eigenvalues --   -0.61479  -0.61455  -0.61222  -0.61082
 Alpha virt. eigenvalues --    0.15858   0.16298   0.17204   0.17597   0.41875
 Alpha virt. eigenvalues --    0.46008   0.52570   0.53899   0.54403   0.57742
 Alpha virt. eigenvalues --    0.58445   0.63767   0.67004   0.70546   0.70684

 Mulliken charges:
               1
     1  N    0.005670
     2  N   -0.005972
     3  N   -0.006406
     4  N    0.006708
 Sum of Mulliken charges =  -0.00000

 Dipole moment (field-independent basis, Debye):
    X=             -0.0259    Y=              0.0264    Z=             -0.0000  Tot=              0.0370
 Quadrupole moment (field-independent basis, Debye-Ang):
   XX=            -21.2083   YY=            -22.8121   ZZ=            -20.4996
   XY=              0.7161   XZ=             -0.0000   YZ=             -0.0000

 Q=-218.7035913\MP4SDQ=-218.7144075\CCSD=-218.7100189\CCSD(T)=-218.7465
 Normal termination of Gaussian 16 at Fri Feb  9 19:10:14 2024.
