 Gaussian 16, Revision A.03,
 Gaussian 16:  ES64L-G16RevA.03 25-Dec-2016

 ------------------
 #p CCSD(T)/cc-pVTZ
 ------------------

 ---------
 N2_N2_151
 ---------
 Symbolic Z-matrix:
 Charge =  0 Multiplicity = 1

                         Standard orientation:
 ---------------------------------------------------------------------
 Center     Atomic      Atomic             Coordinates (Angstroms)
 Number     Number       Type             X           Y           Z
 ---------------------------------------------------------------------
      1          7           0        0.578060   -2.350560   -0.000000
      2          7           0       -0.192687   -1.579813   -0.000000
      3          7           0       -0.192687    1.420186    0.000000
      4          7           0       -0.192687    2.510187    0.000000
 ---------------------------------------------------------------------

 SCF Done:  E(RHF) =  -217.967715949     A.U. after   12 cycles
 E2 =    -0.7444891389D+00 EUMP2 =    -0.21871220508756D+03
 CCSD(T)
 CCSD(T)= -0.21874606222D+03

 The electronic state is 1-A'.
 Alpha  occ. eigenvalues --  -15.67742 -15.67503 -15.67366 -15.67132  -1.47422
 Alpha  occ. eigenvalues --   -1.47186  -0.78060  -0.76619  -0.64055  -0.62273
 Alpha  occ. eigenvalues --   -0.61479  -0.61437  -0.61169  -0.60948
 Alpha virt. eigenvalues --    0.15726   0.16263   0.17345   0.17771   0.42786
 Alpha virt. eigenvalues --    0.46091   0.52915   0.53806   0.54154   0.57975
 Alpha virt. eigenvalues --    0.58808   0.63758   0.66975   0.70477   0.71273

 Mulliken charges:
               1
     1  N    0.005792
     2  N   -0.006134
     3  N   -0.004623
     4  N    0.004966
 Sum of Mulliken charges =  -0.00000

 Dipole moment (field-independent basis, Debye):
    X=             -0.0301    Y=              0.0322    Z=              0.0000  Tot=              0.0440
 Quadrupole moment (field-independent basis, Debye-Ang):
   XX=            -21.2116   YY=            -22.8504   ZZ=            -20.4999
   XY=              0.7188   XZ=             -0.0000   YZ=             -0.0000

 DQ=-218.7030901\MP4SDQ=-218.7139075\CCSD=-218.7095028\CCSD(T)=-218.746
 Normal termination of Gaussian 16 at Fri Feb  9 19:05:36 2024.
