 Gaussian 16, Revision A.03,
 Gaussian 16:  ES64L-G16RevA.03 25-Dec-2016

 ------------------
 #p CCSD(T)/cc-pVTZ
 ------------------

 ---------
 N2_N2_203
 ---------
 Symbolic Z-matrix:
 Charge =  0 Multiplicity = 1

                         Standard orientation:
 ---------------------------------------------------------------------
 Center     Atomic      Atomic             Coordinates (Angstroms)
 Number     Number       Type             X           Y           Z
 ---------------------------------------------------------------------
      1          7           0       -0.817500   -2.112500    0.000000
      2          7           0        0.272500   -2.112500    0.000000
      3          7           0        0.272500    1.567500    0.000000
      4          7           0        0.272500    2.657500    0.000000
 ---------------------------------------------------------------------

 SCF Done:  E(RHF) =  -217.969622997     A.U. after   12 cycles
 E2 =    -0.7438708319D+00 EUMP2 =    -0.21871349382900D+03
 CCSD(T)
 CCSD(T)= -0.21874743411D+03

 The electronic state is 1-A'.
 Alpha  occ. eigenvalues --  -15.67989 -15.67697 -15.67619 -15.67326  -1.47621
 Alpha  occ. eigenvalues --   -1.47318  -0.77622  -0.77293  -0.63562  -0.63043
 Alpha  occ. eigenvalues --   -0.61637  -0.61633  -0.61336  -0.61234
 Alpha virt. eigenvalues --    0.15931   0.16417   0.16789   0.17264   0.39035
 Alpha virt. eigenvalues --    0.42959   0.51714   0.55042   0.55473   0.56588
 Alpha virt. eigenvalues --    0.57147   0.62424   0.66946   0.69530   0.72866

 Mulliken charges:
               1
     1  N   -0.002665
     2  N    0.003137
     3  N   -0.005688
     4  N    0.005216
 Sum of Mulliken charges =  -0.00000

 Dipole moment (field-independent basis, Debye):
    X=              0.0102    Y=              0.0226    Z=              0.0000  Tot=              0.0248
 Quadrupole moment (field-independent basis, Debye-Ang):
   XX=            -21.8994   YY=            -21.9134   ZZ=            -20.4963
   XY=             -0.0104   XZ=              0.0000   YZ=              0.0000

 DQ=-218.7152818\CCSD=-218.7109629\CCSD(T)=-218.7474341\RMSD=1.810e-09\
 Normal termination of Gaussian 16 at Fri Feb  9 19:32:13 2024.
