 Gaussian 16, Revision A.03,
 Gaussian 16:  ES64L-G16RevA.03 25-Dec-2016

 ------------------
 #p CCSD(T)/cc-pVTZ
 ------------------

 ---------
 N2_N2_235
 ---------
 Symbolic Z-matrix:
 Charge =  0 Multiplicity = 1

                         Standard orientation:
 ---------------------------------------------------------------------
 Center     Atomic      Atomic             Coordinates (Angstroms)
 Number     Number       Type             X           Y           Z
 ---------------------------------------------------------------------
      1          7           0        0.578060   -2.910560    0.000000
      2          7           0       -0.192687   -2.139813    0.000000
      3          7           0       -0.192687    1.980187    0.000000
      4          7           0       -0.192687    3.070186    0.000000
 ---------------------------------------------------------------------

 SCF Done:  E(RHF) =  -217.969588805     A.U. after   11 cycles
 E2 =    -0.7434487218D+00 EUMP2 =    -0.21871303752670D+03
 CCSD(T)
 CCSD(T)= -0.21874703947D+03

 The electronic state is 1-A'.
 Alpha  occ. eigenvalues --  -15.67854 -15.67764 -15.67483 -15.67393  -1.47489
 Alpha  occ. eigenvalues --   -1.47400  -0.77488  -0.77326  -0.63337  -0.63102
 Alpha  occ. eigenvalues --   -0.61501  -0.61500  -0.61411  -0.61404
 Alpha virt. eigenvalues --    0.16477   0.16507   0.16678   0.16825   0.37747
 Alpha virt. eigenvalues --    0.45937   0.53315   0.55731   0.55869   0.56494
 Alpha virt. eigenvalues --    0.56619   0.61475   0.67196   0.67994   0.72421

 Mulliken charges:
               1
     1  N    0.000997
     2  N   -0.000923
     3  N   -0.002926
     4  N    0.002853
 Sum of Mulliken charges =  -0.00000

 Dipole moment (field-independent basis, Debye):
    X=             -0.0090    Y=              0.0069    Z=              0.0000  Tot=              0.0113
 Quadrupole moment (field-independent basis, Debye-Ang):
   XX=            -21.1972   YY=            -22.6630   ZZ=            -20.4976
   XY=              0.7046   XZ=              0.0000   YZ=             -0.0000

 DQ=-218.7041487\MP4SDQ=-218.7149529\CCSD=-218.7106223\CCSD(T)=-218.747
 Normal termination of Gaussian 16 at Fri Feb  9 19:48:41 2024.
