 Gaussian 16, Revision A.03,
 Gaussian 16:  ES64L-G16RevA.03 25-Dec-2016

 ------------------
 #p CCSD(T)/cc-pVTZ
 ------------------

 ---------
 N2_N2_167
 ---------
 Symbolic Z-matrix:
 Charge =  0 Multiplicity = 1

                         Standard orientation:
 ---------------------------------------------------------------------
 Center     Atomic      Atomic             Coordinates (Angstroms)
 Number     Number       Type             X           Y           Z
 ---------------------------------------------------------------------
      1          7           0       -0.817500   -1.872500    0.000000
      2          7           0        0.272500   -1.872500    0.000000
      3          7           0        0.272500    1.327500    0.000000
      4          7           0        0.272500    2.417500    0.000000
 ---------------------------------------------------------------------

 SCF Done:  E(RHF) =  -217.968697454     A.U. after   12 cycles
 E2 =    -0.7446600737D+00 EUMP2 =    -0.21871335752769D+03
 CCSD(T)
 CCSD(T)= -0.21874718469D+03

 The electronic state is 1-A'.
 Alpha  occ. eigenvalues --  -15.67996 -15.67620 -15.67563 -15.67191  -1.47646
 Alpha  occ. eigenvalues --   -1.47194  -0.77759  -0.77153  -0.63979  -0.62848
 Alpha  occ. eigenvalues --   -0.61686  -0.61665  -0.61203  -0.60796
 Alpha virt. eigenvalues --    0.15406   0.16276   0.16952   0.17881   0.41013
 Alpha virt. eigenvalues --    0.43603   0.51273   0.53950   0.55079   0.56978
 Alpha virt. eigenvalues --    0.58074   0.61382   0.66684   0.69267   0.72735

 Mulliken charges:
               1
     1  N   -0.005256
     2  N    0.005829
     3  N   -0.007473
     4  N    0.006899
 Sum of Mulliken charges =  -0.00000

 Dipole moment (field-independent basis, Debye):
    X=              0.0206    Y=              0.0436    Z=              0.0000  Tot=              0.0482
 Quadrupole moment (field-independent basis, Debye-Ang):
   XX=            -21.9085   YY=            -21.9930   ZZ=            -20.4954
   XY=             -0.0250   XZ=              0.0000   YZ=              0.0000

 SDQ=-218.7149403\CCSD=-218.7106126\CCSD(T)=-218.7471847\RMSD=2.013e-09
 Normal termination of Gaussian 16 at Fri Feb  9 19:13:51 2024.
