 Gaussian 16, Revision A.03,
 Gaussian 16:  ES64L-G16RevA.03 25-Dec-2016

 ------------------
 #p CCSD(T)/cc-pVTZ
 ------------------

 ---------
 N2_N2_218
 ---------
 Symbolic Z-matrix:
 Charge =  0 Multiplicity = 1

                         Standard orientation:
 ---------------------------------------------------------------------
 Center     Atomic      Atomic             Coordinates (Angstroms)
 Number     Number       Type             X           Y           Z
 ---------------------------------------------------------------------
      1          7           0       -0.817500   -2.212500    0.000000
      2          7           0        0.272500   -2.212500    0.000000
      3          7           0        0.272500    1.667500    0.000000
      4          7           0        0.272500    2.757500    0.000000
 ---------------------------------------------------------------------

 SCF Done:  E(RHF) =  -217.969692900     A.U. after   12 cycles
 E2 =    -0.7436830482D+00 EUMP2 =    -0.21871337594842D+03
 CCSD(T)
 CCSD(T)= -0.21874734365D+03

 The electronic state is 1-A'.
 Alpha  occ. eigenvalues --  -15.67980 -15.67727 -15.67609 -15.67357  -1.47610
 Alpha  occ. eigenvalues --   -1.47350  -0.77597  -0.77325  -0.63484  -0.63098
 Alpha  occ. eigenvalues --   -0.61623  -0.61621  -0.61367  -0.61308
 Alpha virt. eigenvalues --    0.16097   0.16452   0.16749   0.17092   0.39103
 Alpha virt. eigenvalues --    0.42897   0.52104   0.55373   0.55658   0.56471
 Alpha virt. eigenvalues --    0.56866   0.62361   0.67007   0.69766   0.72957

 Mulliken charges:
               1
     1  N   -0.001912
     2  N    0.002348
     3  N   -0.004041
     4  N    0.003605
 Sum of Mulliken charges =  -0.00000

 Dipole moment (field-independent basis, Debye):
    X=              0.0078    Y=              0.0173    Z=              0.0000  Tot=              0.0190
 Quadrupole moment (field-independent basis, Debye-Ang):
   XX=            -21.8975   YY=            -21.8972   ZZ=            -20.4964
   XY=             -0.0076   XZ=              0.0000   YZ=              0.0000

 4SDQ=-218.7152136\CCSD=-218.7108969\CCSD(T)=-218.7473437\RMSD=1.697e-0
 Normal termination of Gaussian 16 at Fri Feb  9 19:39:59 2024.
