 Gaussian 16, Revision A.03,
 Gaussian 16:  ES64L-G16RevA.03 25-Dec-2016

 ------------------
 #p CCSD(T)/cc-pVTZ
 ------------------

 ---------
 N2_N2_270
 ---------
 Symbolic Z-matrix:
 Charge =  0 Multiplicity = 1

                         Standard orientation:
 ---------------------------------------------------------------------
 Center     Atomic      Atomic             Coordinates (Angstroms)
 Number     Number       Type             X           Y           Z
 ---------------------------------------------------------------------
      1          7           0        0.000000    0.000000    3.390000
      2          7           0        0.000000    0.000000    2.300000
      3          7           0        0.000000    0.000000   -2.300000
      4          7           0        0.000000    0.000000   -3.390000
 ---------------------------------------------------------------------

 SCF Done:  E(RHF) =  -217.969565227     A.U. after    9 cycles
 E2 =    -0.7433188947D+00 EUMP2 =    -0.21871288412211D+03
 CCSD(T)
 CCSD(T)= -0.21874690934D+03

 The electronic state is 1-SGG.
 Alpha  occ. eigenvalues --  -15.67799 -15.67799 -15.67428 -15.67428  -1.47436
 Alpha  occ. eigenvalues --   -1.47436  -0.77422  -0.77370  -0.63255  -0.63158
 Alpha  occ. eigenvalues --   -0.61449  -0.61449  -0.61444  -0.61444
 Alpha virt. eigenvalues --    0.16599   0.16599   0.16730   0.16730   0.37503
 Alpha virt. eigenvalues --    0.46675   0.54339   0.56106   0.56106   0.56301
 Alpha virt. eigenvalues --    0.56301   0.60053   0.67339   0.67573   0.73023

 Mulliken charges:
               1
     1  N    0.001029
     2  N   -0.001029
     3  N   -0.001029
     4  N    0.001029
 Sum of Mulliken charges =  -0.00000

 Dipole moment (field-independent basis, Debye):
    X=              0.0000    Y=             -0.0000    Z=             -0.0000  Tot=              0.0000
 Quadrupole moment (field-independent basis, Debye-Ang):
   XX=            -20.4976   YY=            -20.4976   ZZ=            -23.3830
   XY=              0.0000   XZ=              0.0000   YZ=             -0.0000

 4SDQ=-218.7148345\CCSD=-218.7105085\CCSD(T)=-218.7469093\RMSD=9.817e-0
 Normal termination of Gaussian 16 at Fri Feb  9 20:07:52 2024.
