 Gaussian 16, Revision A.03,
 Gaussian 16:  ES64L-G16RevA.03 25-Dec-2016

 ------------------
 #p CCSD(T)/cc-pVTZ
 ------------------

 ---------
 N2_N2_208
 ---------
 Symbolic Z-matrix:
 Charge =  0 Multiplicity = 1

                         Standard orientation:
 ---------------------------------------------------------------------
 Center     Atomic      Atomic             Coordinates (Angstroms)
 Number     Number       Type             X           Y           Z
 ---------------------------------------------------------------------
      1          7           0        0.578060   -2.730560   -0.000000
      2          7           0       -0.192687   -1.959813    0.000000
      3          7           0       -0.192687    1.800186    0.000000
      4          7           0       -0.192687    2.890187    0.000000
 ---------------------------------------------------------------------

 SCF Done:  E(RHF) =  -217.969508440     A.U. after   11 cycles
 E2 =    -0.7436177762D+00 EUMP2 =    -0.21871312621581D+03
 CCSD(T)
 CCSD(T)= -0.21874710386D+03

 The electronic state is 1-A'.
 Alpha  occ. eigenvalues --  -15.67841 -15.67724 -15.67471 -15.67353  -1.47479
 Alpha  occ. eigenvalues --   -1.47362  -0.77541  -0.77228  -0.63425  -0.62967
 Alpha  occ. eigenvalues --   -0.61494  -0.61492  -0.61373  -0.61356
 Alpha virt. eigenvalues --    0.16339   0.16440   0.16760   0.16998   0.37804
 Alpha virt. eigenvalues --    0.46052   0.52645   0.55260   0.55533   0.56797
 Alpha virt. eigenvalues --    0.57055   0.63087   0.67127   0.68731   0.71713

 Mulliken charges:
               1
     1  N    0.002704
     2  N   -0.002682
     3  N   -0.005823
     4  N    0.005800
 Sum of Mulliken charges =  -0.00000

 Dipole moment (field-independent basis, Debye):
    X=             -0.0128    Y=              0.0107    Z=              0.0000  Tot=              0.0167
 Quadrupole moment (field-independent basis, Debye-Ang):
   XX=            -21.1992   YY=            -22.6928   ZZ=            -20.4981
   XY=              0.7074   XZ=              0.0000   YZ=             -0.0000

 P4DQ=-218.7041977\MP4SDQ=-218.715006\CCSD=-218.7106637\CCSD(T)=-218.74
 Normal termination of Gaussian 16 at Fri Feb  9 19:34:47 2024.
