 Gaussian 16, Revision A.03,
 Gaussian 16:  ES64L-G16RevA.03 25-Dec-2016

 ------------------
 #p CCSD(T)/cc-pVTZ
 ------------------

 --------
 N2_N2_30
 --------
 Symbolic Z-matrix:
 Charge =  0 Multiplicity = 1

                         Standard orientation:
 ---------------------------------------------------------------------
 Center     Atomic      Atomic             Coordinates (Angstroms)
 Number     Number       Type             X           Y           Z
 ---------------------------------------------------------------------
      1          7           0        0.000000    0.000000    1.790000
      2          7           0        0.000000    0.000000    0.700000
      3          7           0        0.000000    0.000000   -0.700000
      4          7           0        0.000000    0.000000   -1.790000
 ---------------------------------------------------------------------

 SCF Done:  E(RHF) =  -217.523158378     A.U. after   11 cycles
 E2 =    -0.7952248756D+00 EUMP2 =    -0.21831838325343D+03
 CCSD(T)
 CCSD(T)= -0.21835588136D+03

 Unable to determine electronic state:  an orbital has unidentified symmetry.
 Alpha  occ. eigenvalues --  -15.78891 -15.78833 -15.66086 -15.66085  -1.53838
 Alpha  occ. eigenvalues --   -1.48314  -1.12952  -0.75663  -0.72929  -0.69376
 Alpha  occ. eigenvalues --   -0.66415  -0.63481  -0.60240  -0.25377
 Alpha virt. eigenvalues --    0.07354   0.14489   0.15885   0.23566   0.44541
 Alpha virt. eigenvalues --    0.45357   0.50676   0.50785   0.51988   0.60991
 Alpha virt. eigenvalues --    0.62032   0.63082   0.71991   0.73021   0.79296

 Mulliken charges:
               1
     1  N   -0.099313
     2  N    0.099313
     3  N    0.099313
     4  N   -0.099313
 Sum of Mulliken charges =  -0.00000

 Dipole moment (field-independent basis, Debye):
    X=             -0.0000    Y=              0.0000    Z=             -0.0000  Tot=              0.0000
 Quadrupole moment (field-independent basis, Debye-Ang):
   XX=            -22.4246   YY=            -19.5180   ZZ=            -29.3873
   XY=              0.0000   XZ=              0.0000   YZ=             -0.0000

 45\CCSD=-218.3058773\CCSD(T)=-218.3558814\RMSD=7.583e-10\PG=D*H [C*(N1
 Normal termination of Gaussian 16 at Fri Feb  9 17:57:33 2024.
