 Gaussian 16, Revision A.03,
 Gaussian 16:  ES64L-G16RevA.03 25-Dec-2016

 ------------------
 #p CCSD(T)/cc-pVTZ
 ------------------

 ---------
 N2_N2_157
 ---------
 Symbolic Z-matrix:
 Charge =  0 Multiplicity = 1

                         Standard orientation:
 ---------------------------------------------------------------------
 Center     Atomic      Atomic             Coordinates (Angstroms)
 Number     Number       Type             X           Y           Z
 ---------------------------------------------------------------------
      1          7           0        0.578060   -2.390560    0.000000
      2          7           0       -0.192687   -1.619813    0.000000
      3          7           0       -0.192687    1.460187   -0.000000
      4          7           0       -0.192687    2.550186   -0.000000
 ---------------------------------------------------------------------

 SCF Done:  E(RHF) =  -217.968200133     A.U. after   12 cycles
 E2 =    -0.7443329658D+00 EUMP2 =    -0.21871253309909D+03
 CCSD(T)
 CCSD(T)= -0.21874641313D+03

 The electronic state is 1-A'.
 Alpha  occ. eigenvalues --  -15.67761 -15.67543 -15.67387 -15.67172  -1.47432
 Alpha  occ. eigenvalues --   -1.47215  -0.77951  -0.76727  -0.63940  -0.62376
 Alpha  occ. eigenvalues --   -0.61479  -0.61450  -0.61205  -0.61043
 Alpha virt. eigenvalues --    0.15816   0.16287   0.17249   0.17652   0.42193
 Alpha virt. eigenvalues --    0.46033   0.52681   0.53835   0.54319   0.57818
 Alpha virt. eigenvalues --    0.58561   0.63765   0.66995   0.70514   0.70866

 Mulliken charges:
               1
     1  N    0.005735
     2  N   -0.006051
     3  N   -0.005895
     4  N    0.006211
 Sum of Mulliken charges =  -0.00000

 Dipole moment (field-independent basis, Debye):
    X=             -0.0272    Y=              0.0282    Z=              0.0000  Tot=              0.0392
 Quadrupole moment (field-independent basis, Debye-Ang):
   XX=            -21.2093   YY=            -22.8241   ZZ=            -20.4997
   XY=              0.7169   XZ=              0.0000   YZ=             -0.0000

 P4DQ=-218.7034516\MP4SDQ=-218.7142681\CCSD=-218.7098746\CCSD(T)=-218.7
 Normal termination of Gaussian 16 at Fri Feb  9 19:08:40 2024.
