 Gaussian 16, Revision A.03,
 Gaussian 16:  ES64L-G16RevA.03 25-Dec-2016

 ------------------
 #p CCSD(T)/cc-pVTZ
 ------------------

 ---------
 N2_N2_247
 ---------
 Symbolic Z-matrix:
 Charge =  0 Multiplicity = 1

                         Standard orientation:
 ---------------------------------------------------------------------
 Center     Atomic      Atomic             Coordinates (Angstroms)
 Number     Number       Type             X           Y           Z
 ---------------------------------------------------------------------
      1          7           0        0.578060   -2.990560    0.000000
      2          7           0       -0.192687   -2.219813    0.000000
      3          7           0       -0.192687    2.060187   -0.000000
      4          7           0       -0.192687    3.150186   -0.000000
 ---------------------------------------------------------------------

 SCF Done:  E(RHF) =  -217.969598081     A.U. after   11 cycles
 E2 =    -0.7433964815D+00 EUMP2 =    -0.21871299456275D+03
 CCSD(T)
 CCSD(T)= -0.21874700514D+03

 The electronic state is 1-A'.
 Alpha  occ. eigenvalues --  -15.67857 -15.67777 -15.67486 -15.67406  -1.47492
 Alpha  occ. eigenvalues --   -1.47412  -0.77478  -0.77353  -0.63316  -0.63139
 Alpha  occ. eigenvalues --   -0.61503  -0.61502  -0.61423  -0.61418
 Alpha virt. eigenvalues --    0.16516   0.16535   0.16661   0.16773   0.38175
 Alpha virt. eigenvalues --    0.45752   0.53672   0.55863   0.55960   0.56404
 Alpha virt. eigenvalues --    0.56491   0.60521   0.67226   0.67781   0.72666

 Mulliken charges:
               1
     1  N    0.000431
     2  N   -0.000366
     3  N   -0.001883
     4  N    0.001818
 Sum of Mulliken charges =  -0.00000

 Dipole moment (field-independent basis, Debye):
    X=             -0.0077    Y=              0.0058    Z=             -0.0000  Tot=              0.0097
 Quadrupole moment (field-independent basis, Debye-Ang):
   XX=            -21.1967   YY=            -22.6547   ZZ=            -20.4974
   XY=              0.7036   XZ=              0.0000   YZ=              0.0000

 P4DQ=-218.7041191\MP4SDQ=-218.7149219\CCSD=-218.7105949\CCSD(T)=-218.7
 Normal termination of Gaussian 16 at Fri Feb  9 19:54:48 2024.
