 Gaussian 16, Revision A.03,
 Gaussian 16:  ES64L-G16RevA.03 25-Dec-2016

 ------------------
 #p CCSD(T)/cc-pVTZ
 ------------------

 --------
 N2_N2_96
 --------
 Symbolic Z-matrix:
 Charge =  0 Multiplicity = 1

                         Standard orientation:
 ---------------------------------------------------------------------
 Center     Atomic      Atomic             Coordinates (Angstroms)
 Number     Number       Type             X           Y           Z
 ---------------------------------------------------------------------
      1          7           0        0.000000    0.000000    2.230000
      2          7           0        0.000000    0.000000    1.140000
      3          7           0        0.000000    0.000000   -1.140000
      4          7           0        0.000000    0.000000   -2.230000
 ---------------------------------------------------------------------

 SCF Done:  E(RHF) =  -217.940256992     A.U. after   10 cycles
 E2 =    -0.7480546699D+00 EUMP2 =    -0.21868831166224D+03
 CCSD(T)
 CCSD(T)= -0.21872177416D+03

 The electronic state is 1-SGG.
 Alpha  occ. eigenvalues --  -15.66862 -15.66861 -15.66011 -15.66010  -1.46855
 Alpha  occ. eigenvalues --   -1.46596  -0.81190  -0.74377  -0.65764  -0.61295
 Alpha  occ. eigenvalues --   -0.61295  -0.60314  -0.60314  -0.57517
 Alpha virt. eigenvalues --    0.14413   0.14413   0.20113   0.20113   0.44725
 Alpha virt. eigenvalues --    0.46778   0.53827   0.53827   0.59505   0.59505
 Alpha virt. eigenvalues --    0.65973   0.66873   0.69798   0.71402   0.71402

 Mulliken charges:
               1
     1  N   -0.010341
     2  N    0.010341
     3  N    0.010341
     4  N   -0.010341
 Sum of Mulliken charges =   0.00000

 Dipole moment (field-independent basis, Debye):
    X=             -0.0000    Y=             -0.0000    Z=              0.0000  Tot=              0.0000
 Quadrupole moment (field-independent basis, Debye-Ang):
   XX=            -20.5000   YY=            -20.5000   ZZ=            -24.1753
   XY=              0.0000   XZ=              0.0000   YZ=             -0.0000

 DQ=-218.6895185\CCSD=-218.6847826\CCSD(T)=-218.7217742\RMSD=8.293e-10\
 Normal termination of Gaussian 16 at Fri Feb  9 18:35:45 2024.
