 Gaussian 16, Revision A.03,
 Gaussian 16:  ES64L-G16RevA.03 25-Dec-2016

 ------------------
 #p CCSD(T)/cc-pVTZ
 ------------------

 ---------
 N2_N2_187
 ---------
 Symbolic Z-matrix:
 Charge =  0 Multiplicity = 1

                         Standard orientation:
 ---------------------------------------------------------------------
 Center     Atomic      Atomic             Coordinates (Angstroms)
 Number     Number       Type             X           Y           Z
 ---------------------------------------------------------------------
      1          7           0        0.578060   -2.590560    0.000000
      2          7           0       -0.192687   -1.819814   -0.000000
      3          7           0       -0.192687    1.660187   -0.000000
      4          7           0       -0.192687    2.750186   -0.000000
 ---------------------------------------------------------------------

 SCF Done:  E(RHF) =  -217.969297651     A.U. after   12 cycles
 E2 =    -0.7438223311D+00 EUMP2 =    -0.21871311998216D+03
 CCSD(T)
 CCSD(T)= -0.21874707075D+03

 The electronic state is 1-A'.
 Alpha  occ. eigenvalues --  -15.67821 -15.67673 -15.67451 -15.67302  -1.47466
 Alpha  occ. eigenvalues --   -1.47318  -0.77635  -0.77090  -0.63560  -0.62790
 Alpha  occ. eigenvalues --   -0.61487  -0.61481  -0.61325  -0.61286
 Alpha virt. eigenvalues --    0.16172   0.16385   0.16897   0.17204   0.39076
 Alpha virt. eigenvalues --    0.45976   0.52323   0.54708   0.55115   0.57145
 Alpha virt. eigenvalues --    0.57560   0.63621   0.67075   0.69459   0.71108

 Mulliken charges:
               1
     1  N    0.004236
     2  N   -0.004351
     3  N   -0.007565
     4  N    0.007681
 Sum of Mulliken charges =   0.00000

 Dipole moment (field-independent basis, Debye):
    X=             -0.0172    Y=              0.0157    Z=             -0.0000  Tot=              0.0232
 Quadrupole moment (field-independent basis, Debye-Ang):
   XX=            -21.2018   YY=            -22.7314   ZZ=            -20.4986
   XY=              0.7103   XZ=              0.0000   YZ=              0.0000

 DQ=-218.7041471\MP4SDQ=-218.7149589\CCSD=-218.7106022\CCSD(T)=-218.747
 Normal termination of Gaussian 16 at Fri Feb  9 19:23:58 2024.
