 Gaussian 16, Revision A.03,
 Gaussian 16:  ES64L-G16RevA.03 25-Dec-2016

 ------------------
 #p CCSD(T)/cc-pVTZ
 ------------------

 --------
 N2_N2_56
 --------
 Symbolic Z-matrix:
 Charge =  0 Multiplicity = 1

                         Standard orientation:
 ---------------------------------------------------------------------
 Center     Atomic      Atomic             Coordinates (Angstroms)
 Number     Number       Type             X           Y           Z
 ---------------------------------------------------------------------
      1          7           0       -0.817500   -1.132500    0.000000
      2          7           0        0.272500   -1.132500    0.000000
      3          7           0        0.272500    0.587500    0.000000
      4          7           0        0.272500    1.677500    0.000000
 ---------------------------------------------------------------------

 SCF Done:  E(RHF) =  -217.800728260     A.U. after   14 cycles
 E2 =    -0.7646838370D+00 EUMP2 =    -0.21856541209742D+03
 CCSD(T)
 CCSD(T)= -0.21859823222D+03

 The electronic state is 1-A'.
 Alpha  occ. eigenvalues --  -15.68351 -15.67122 -15.66616 -15.62374  -1.49950
 Alpha  occ. eigenvalues --   -1.46000  -0.89097  -0.75632  -0.69437  -0.65005
 Alpha  occ. eigenvalues --   -0.62960  -0.60481  -0.58363  -0.44880
 Alpha virt. eigenvalues --    0.13447   0.14073   0.19229   0.22872   0.41705
 Alpha virt. eigenvalues --    0.44238   0.51771   0.53437   0.55566   0.58631
 Alpha virt. eigenvalues --    0.61581   0.66524   0.73405   0.75339   0.76398

 Mulliken charges:
               1
     1  N   -0.095065
     2  N    0.069048
     3  N    0.021902
     4  N    0.004116
 Sum of Mulliken charges =  -0.00000

 Dipole moment (field-independent basis, Debye):
    X=              0.5080    Y=              0.5489    Z=              0.0000  Tot=              0.7479
 Quadrupole moment (field-independent basis, Debye-Ang):
   XX=            -22.2720   YY=            -23.1024   ZZ=            -20.2666
   XY=             -0.5933   XZ=              0.0000   YZ=              0.0000

 SDQ=-218.5634175\CCSD=-218.5586623\CCSD(T)=-218.5982322\RMSD=9.193e-09
 Normal termination of Gaussian 16 at Fri Feb  9 18:14:30 2024.
