 Gaussian 16, Revision A.03,
 Gaussian 16:  ES64L-G16RevA.03 25-Dec-2016

 ------------------
 #p CCSD(T)/cc-pVTZ
 ------------------

 --------
 N2_N2_72
 --------
 Symbolic Z-matrix:
 Charge =  0 Multiplicity = 1

                         Standard orientation:
 ---------------------------------------------------------------------
 Center     Atomic      Atomic             Coordinates (Angstroms)
 Number     Number       Type             X           Y           Z
 ---------------------------------------------------------------------
      1          7           0        0.000000    0.000000    2.070000
      2          7           0        0.000000    0.000000    0.980000
      3          7           0        0.000000    0.000000   -0.980000
      4          7           0        0.000000    0.000000   -2.070000
 ---------------------------------------------------------------------

 SCF Done:  E(RHF) =  -217.883356267     A.U. after   10 cycles
 E2 =    -0.7540204077D+00 EUMP2 =    -0.21863737667502D+03
 CCSD(T)
 CCSD(T)= -0.21867012454D+03

 The electronic state is 1-SGG.
 Alpha  occ. eigenvalues --  -15.66371 -15.66371 -15.64577 -15.64575  -1.46610
 Alpha  occ. eigenvalues --   -1.45977  -0.85746  -0.72892  -0.66704  -0.61520
 Alpha  occ. eigenvalues --   -0.61520  -0.59419  -0.59419  -0.51994
 Alpha virt. eigenvalues --    0.13406   0.13406   0.21919   0.21919   0.44269
 Alpha virt. eigenvalues --    0.46150   0.54204   0.54204   0.60371   0.60371
 Alpha virt. eigenvalues --    0.64322   0.66971   0.73135   0.73135   0.79124

 Mulliken charges:
               1
     1  N   -0.002470
     2  N    0.002470
     3  N    0.002470
     4  N   -0.002470
 Sum of Mulliken charges =  -0.00000

 Dipole moment (field-independent basis, Debye):
    X=              0.0000    Y=              0.0000    Z=              0.0000  Tot=              0.0000
 Quadrupole moment (field-independent basis, Debye-Ang):
   XX=            -20.4809   YY=            -20.4809   ZZ=            -24.4803
   XY=              0.0000   XZ=              0.0000   YZ=             -0.0000

 4SDQ=-218.6376737\CCSD=-218.6324478\CCSD(T)=-218.6701245\RMSD=1.424e-0
 Normal termination of Gaussian 16 at Fri Feb  9 18:22:54 2024.
