 Gaussian 16, Revision A.03,
 Gaussian 16:  ES64L-G16RevA.03 25-Dec-2016

 ------------------
 #p CCSD(T)/cc-pVTZ
 ------------------

 ---------
 N2_N2_176
 ---------
 Symbolic Z-matrix:
 Charge =  0 Multiplicity = 1

                         Standard orientation:
 ---------------------------------------------------------------------
 Center     Atomic      Atomic             Coordinates (Angstroms)
 Number     Number       Type             X           Y           Z
 ---------------------------------------------------------------------
      1          7           0       -0.817500   -1.932500    0.000000
      2          7           0        0.272500   -1.932500    0.000000
      3          7           0        0.272500    1.387500    0.000000
      4          7           0        0.272500    2.477500    0.000000
 ---------------------------------------------------------------------

 SCF Done:  E(RHF) =  -217.969109712     A.U. after   12 cycles
 E2 =    -0.7444007308D+00 EUMP2 =    -0.21871351044310D+03
 CCSD(T)
 CCSD(T)= -0.21874737535D+03

 The electronic state is 1-A'.
 Alpha  occ. eigenvalues --  -15.67998 -15.67625 -15.67608 -15.67236  -1.47640
 Alpha  occ. eigenvalues --   -1.47233  -0.77708  -0.77200  -0.63832  -0.62905
 Alpha  occ. eigenvalues --   -0.61671  -0.61658  -0.61247  -0.60960
 Alpha virt. eigenvalues --    0.15552   0.16321   0.16900   0.17696   0.40354
 Alpha virt. eigenvalues --    0.43280   0.51257   0.54249   0.55142   0.56862
 Alpha virt. eigenvalues --    0.57812   0.61760   0.66769   0.69181   0.72749

 Mulliken charges:
               1
     1  N   -0.004559
     2  N    0.005071
     3  N   -0.007578
     4  N    0.007066
 Sum of Mulliken charges =  -0.00000

 Dipole moment (field-independent basis, Debye):
    X=              0.0172    Y=              0.0372    Z=              0.0000  Tot=              0.0410
 Quadrupole moment (field-independent basis, Debye-Ang):
   XX=            -21.9054   YY=            -21.9668   ZZ=            -20.4957
   XY=             -0.0198   XZ=              0.0000   YZ=              0.0000

 4SDQ=-218.7151606\CCSD=-218.7108359\CCSD(T)=-218.7473754\RMSD=1.991e-0
 Normal termination of Gaussian 16 at Fri Feb  9 19:18:22 2024.
