 Gaussian 16, Revision A.03,
 Gaussian 16:  ES64L-G16RevA.03 25-Dec-2016

 ------------------
 #p CCSD(T)/cc-pVTZ
 ------------------

 ------------
 H2O_H2O_4708
 ------------
 Symbolic Z-matrix:
 Charge =  0 Multiplicity = 1

                         Standard orientation:
 ---------------------------------------------------------------------
 Center     Atomic      Atomic             Coordinates (Angstroms)
 Number     Number       Type             X           Y           Z
 ---------------------------------------------------------------------
      1          8           0        0.070182    2.981955    0.000000
      2          1           0        0.069516    1.999354    0.000000
      3          1           0       -0.859094    3.301252    0.000000
      4          8           0        0.070182   -2.811684   -0.000000
      5          1           0        0.560906   -3.662975   -0.000000
      6          1           0       -0.894244   -2.999803   -0.000000
 ---------------------------------------------------------------------

 SCF Done:  E(RHF) =  -152.108098357     A.U. after   10 cycles
 E2 =    -0.5258286800D+00 EUMP2 =    -0.15263392703661D+03
 CCSD(T)
 CCSD(T)= -0.15266113179D+03

 The electronic state is 1-A'.
 Alpha  occ. eigenvalues --  -20.56158 -20.55074  -1.33460  -1.32379  -0.70868
 Alpha  occ. eigenvalues --   -0.69778  -0.56939  -0.55842  -0.50576  -0.49498
 Alpha virt. eigenvalues --    0.13364   0.14776   0.19591   0.20985   0.53590
 Alpha virt. eigenvalues --    0.54819   0.56659   0.57736   0.66969   0.68566
 Alpha virt. eigenvalues --    0.78310   0.79365   0.79615   0.80584   0.82301

 Mulliken charges:
               1
     1  O   -0.512139
     2  H    0.259381
     3  H    0.252695
     4  O   -0.513017
     5  H    0.258205
     6  H    0.254875
 Sum of Mulliken charges =  -0.00000

 Dipole moment (field-independent basis, Debye):
    X=             -2.4079    Y=             -2.9839    Z=             -0.0000  Tot=              3.8343
 Quadrupole moment (field-independent basis, Debye-Ang):
   XX=             -9.6787   YY=             -6.7075   ZZ=            -14.7137
   XY=             -4.2616   XZ=             -0.0000   YZ=              0.0000

 Normal termination of Gaussian 16 at Sun Aug 28 05:15:29 2022.
