 Gaussian 16, Revision A.03,
 Gaussian 16:  ES64L-G16RevA.03 25-Dec-2016

 ------------------
 #p CCSD(T)/cc-pVTZ
 ------------------

 ------------
 H2O_H2O_4664
 ------------
 Symbolic Z-matrix:
 Charge =  0 Multiplicity = 1

                         Standard orientation:
 ---------------------------------------------------------------------
 Center     Atomic      Atomic             Coordinates (Angstroms)
 Number     Number       Type             X           Y           Z
 ---------------------------------------------------------------------
      1          8           0        0.048550    2.967528    0.000000
      2          1           0        0.047241    1.984927    0.000000
      3          1           0       -0.880518    3.287432   -0.000000
      4          8           0        0.048550   -2.787104    0.000000
      5          1           0        0.827303   -3.386312    0.000000
      6          1           0       -0.770828   -3.329438   -0.000000
 ---------------------------------------------------------------------

 SCF Done:  E(RHF) =  -152.108341213     A.U. after   10 cycles
 E2 =    -0.5258081183D+00 EUMP2 =    -0.15263414933118D+03
 CCSD(T)
 CCSD(T)= -0.15266134890D+03

 The electronic state is 1-A'.
 Alpha  occ. eigenvalues --  -20.56158 -20.54976  -1.33459  -1.32283  -0.70864
 Alpha  occ. eigenvalues --   -0.69685  -0.56950  -0.55753  -0.50578  -0.49405
 Alpha virt. eigenvalues --    0.13438   0.14867   0.19719   0.20979   0.53688
 Alpha virt. eigenvalues --    0.54832   0.56685   0.57789   0.66922   0.68661
 Alpha virt. eigenvalues --    0.78308   0.79452   0.79714   0.80271   0.82548

 Mulliken charges:
               1
     1  O   -0.513555
     2  H    0.260126
     3  H    0.253346
     4  O   -0.514279
     5  H    0.258064
     6  H    0.256297
 Sum of Mulliken charges =  -0.00000

 Dipole moment (field-independent basis, Debye):
    X=             -1.6657    Y=             -3.1630    Z=             -0.0000  Tot=              3.5748
 Quadrupole moment (field-independent basis, Debye-Ang):
   XX=             -9.1821   YY=             -6.1092   ZZ=            -14.7146
   XY=             -5.6682   XZ=              0.0000   YZ=             -0.0000

 Normal termination of Gaussian 16 at Sun Aug 28 04:45:20 2022.
