 Gaussian 16, Revision A.03,
 Gaussian 16:  ES64L-G16RevA.03 25-Dec-2016

 ------------------
 #p CCSD(T)/cc-pVTZ
 ------------------

 ------------
 H2O_H2O_1728
 ------------
 Symbolic Z-matrix:
 Charge =  0 Multiplicity = 1

                         Standard orientation:
 ---------------------------------------------------------------------
 Center     Atomic      Atomic             Coordinates (Angstroms)
 Number     Number       Type             X           Y           Z
 ---------------------------------------------------------------------
      1          8           0        0.085608   -1.784058    0.000000
      2          1           0        0.085243   -0.801456    0.000000
      3          1           0       -0.843767   -2.103069    0.000000
      4          8           0        0.085608    1.634476    0.000000
      5          1           0        0.276947    2.598269    0.000000
      6          1           0       -0.888146    1.502907    0.000000
 ---------------------------------------------------------------------

 SCF Done:  E(RHF) =  -152.110343746     A.U. after   10 cycles
 E2 =    -0.5270148271D+00 EUMP2 =    -0.15263735857272D+03
 CCSD(T)
 CCSD(T)= -0.15266444297D+03

 The electronic state is 1-A'.
 Alpha  occ. eigenvalues --  -20.57603 -20.54215  -1.34908  -1.31562  -0.72442
 Alpha  occ. eigenvalues --   -0.68908  -0.58480  -0.54962  -0.52002  -0.48680
 Alpha virt. eigenvalues --    0.11654   0.16440   0.19947   0.26864   0.50718
 Alpha virt. eigenvalues --    0.55304   0.57193   0.57801   0.68672   0.74397
 Alpha virt. eigenvalues --    0.75067   0.77914   0.80500   0.82765   0.83506

 Mulliken charges:
               1
     1  O   -0.522243
     2  H    0.270188
     3  H    0.242486
     4  O   -0.495261
     5  H    0.256121
     6  H    0.248709
 Sum of Mulliken charges =  -0.00000

 Dipole moment (field-independent basis, Debye):
    X=             -2.8751    Y=              2.8569    Z=              0.0000  Tot=              4.0531
 Quadrupole moment (field-independent basis, Debye-Ang):
   XX=            -10.4374   YY=             -8.6851   ZZ=            -14.7194
   XY=              2.6387   XZ=              0.0000   YZ=              0.0000

 Normal termination of Gaussian 16 at Sun Aug 28 00:59:35 2022.
