 Gaussian 16, Revision A.03,
 Gaussian 16:  ES64L-G16RevA.03 25-Dec-2016

 ------------------
 #p CCSD(T)/cc-pVTZ
 ------------------

 ------------
 H2O_H2O_4167
 ------------
 Symbolic Z-matrix:
 Charge =  0 Multiplicity = 1

                         Standard orientation:
 ---------------------------------------------------------------------
 Center     Atomic      Atomic             Coordinates (Angstroms)
 Number     Number       Type             X           Y           Z
 ---------------------------------------------------------------------
      1          8           0        0.037417    2.767312    0.000000
      2          1           0        0.035658    1.784712    0.000000
      3          1           0       -0.891504    3.087642    0.000000
      4          8           0        0.037417   -2.588323    0.000000
      5          1           0        0.917906   -3.024494    0.000000
      6          1           0       -0.660730   -3.279769    0.000000
 ---------------------------------------------------------------------

 SCF Done:  E(RHF) =  -152.108672108     A.U. after   10 cycles
 E2 =    -0.5258080428D+00 EUMP2 =    -0.15263448015059D+03
 CCSD(T)
 CCSD(T)= -0.15266166927D+03

 The electronic state is 1-A'.
 Alpha  occ. eigenvalues --  -20.56250 -20.54866  -1.33549  -1.32175  -0.70952
 Alpha  occ. eigenvalues --   -0.69577  -0.57052  -0.55651  -0.50670  -0.49301
 Alpha virt. eigenvalues --    0.13182   0.15110   0.19644   0.21237   0.53565
 Alpha virt. eigenvalues --    0.54913   0.56624   0.57820   0.66695   0.68981
 Alpha virt. eigenvalues --    0.78221   0.79443   0.79549   0.79951   0.82825

 Mulliken charges:
               1
     1  O   -0.515053
     2  H    0.261172
     3  H    0.253570
     4  O   -0.515576
     5  H    0.258499
     6  H    0.257388
 Sum of Mulliken charges =  -0.00000

 Dipole moment (field-independent basis, Debye):
    X=             -1.2823    Y=             -3.1526    Z=             -0.0000  Tot=              3.4034
 Quadrupole moment (field-independent basis, Debye-Ang):
   XX=             -9.1593   YY=             -6.5048   ZZ=            -14.7157
   XY=             -5.9722   XZ=             -0.0000   YZ=             -0.0000

 Normal termination of Gaussian 16 at Sun Aug 28 00:23:16 2022.
