 Gaussian 16, Revision A.03,
 Gaussian 16:  ES64L-G16RevA.03 25-Dec-2016

 ------------------
 #p CCSD(T)/cc-pVTZ
 ------------------

 ------------
 H2O_H2O_1458
 ------------
 Symbolic Z-matrix:
 Charge =  0 Multiplicity = 1

                         Standard orientation:
 ---------------------------------------------------------------------
 Center     Atomic      Atomic             Coordinates (Angstroms)
 Number     Number       Type             X           Y           Z
 ---------------------------------------------------------------------
      1          8           0        0.070229    1.685566    0.000000
      2          1           0        0.069022    0.702966    0.000000
      3          1           0       -0.858872    2.005374    0.000000
      4          8           0        0.070229   -1.515372   -0.000000
      5          1           0        0.560485   -2.366932   -0.000000
      6          1           0       -0.894300   -1.702961   -0.000000
 ---------------------------------------------------------------------

 SCF Done:  E(RHF) =  -152.112620339     A.U. after   10 cycles
 E2 =    -0.5273615371D+00 EUMP2 =    -0.15263998187569D+03
 CCSD(T)
 CCSD(T)= -0.15266699073D+03

 The electronic state is 1-A'.
 Alpha  occ. eigenvalues --  -20.57997 -20.53216  -1.35310  -1.30645  -0.72733
 Alpha  occ. eigenvalues --   -0.68226  -0.59025  -0.53976  -0.52417  -0.47777
 Alpha virt. eigenvalues --    0.11853   0.17059   0.19415   0.28866   0.49427
 Alpha virt. eigenvalues --    0.55094   0.56990   0.58803   0.69695   0.73506
 Alpha virt. eigenvalues --    0.74099   0.76708   0.81367   0.82790   0.84306

 Mulliken charges:
               1
     1  O   -0.536057
     2  H    0.278049
     3  H    0.241523
     4  O   -0.496470
     5  H    0.258848
     6  H    0.254106
 Sum of Mulliken charges =  -0.00000

 Dipole moment (field-independent basis, Debye):
    X=             -2.3483    Y=             -3.3468    Z=             -0.0000  Tot=              4.0885
 Quadrupole moment (field-independent basis, Debye-Ang):
   XX=             -9.7066   YY=             -8.4194   ZZ=            -14.7286
   XY=             -3.2217   XZ=             -0.0000   YZ=              0.0000

 CCSD(T)=-152.6669907\RMSD=6.949e-09\PG=CS [SG(H4O2)]\\@
 Normal termination of Gaussian 16 at Sat Aug 27 00:42:25 2022.
