 Gaussian 16, Revision A.03,
 Gaussian 16:  ES64L-G16RevA.03 25-Dec-2016

 ------------------
 #p CCSD(T)/cc-pVTZ
 ------------------

 -----------
 H2O_H2O_108
 -----------
 Symbolic Z-matrix:
 Charge =  0 Multiplicity = 1

                         Standard orientation:
 ---------------------------------------------------------------------
 Center     Atomic      Atomic             Coordinates (Angstroms)
 Number     Number       Type             X           Y           Z
 ---------------------------------------------------------------------
      1          8           0        0.070282    1.147039    0.000000
      2          1           0        0.068464    0.164439    0.000000
      3          1           0       -0.858620    1.467424    0.000000
      4          8           0        0.070282   -0.976932    0.000000
      5          1           0        0.560008   -1.828797    0.000000
      6          1           0       -0.894363   -1.163920    0.000000
 ---------------------------------------------------------------------

 SCF Done:  E(RHF) =  -152.049172618     A.U. after   11 cycles
 E2 =    -0.5364236221D+00 EUMP2 =    -0.15258559623962D+03
 CCSD(T)
 CCSD(T)= -0.15261123725D+03

 The electronic state is 1-A'.
 Alpha  occ. eigenvalues --  -20.61796 -20.45543  -1.43144  -1.25347  -0.80698
 Alpha  occ. eigenvalues --   -0.74616  -0.58125  -0.55361  -0.45936  -0.41963
 Alpha virt. eigenvalues --    0.10458   0.16119   0.21319   0.32339   0.48865
 Alpha virt. eigenvalues --    0.51833   0.60567   0.64323   0.70998   0.71812
 Alpha virt. eigenvalues --    0.77680   0.79122   0.81434   0.84205   0.87306

 Mulliken charges:
               1
     1  O   -0.642841
     2  H    0.283990
     3  H    0.196776
     4  O   -0.314555
     5  H    0.235008
     6  H    0.241623
 Sum of Mulliken charges =  -0.00000

 Dipole moment (field-independent basis, Debye):
    X=             -2.1437    Y=             -4.7271    Z=             -0.0000  Tot=              5.1905
 Quadrupole moment (field-independent basis, Debye-Ang):
   XX=             -9.6493   YY=            -10.0244   ZZ=            -14.5566
   XY=             -2.6098   XZ=             -0.0000   YZ=             -0.0000

 Normal termination of Gaussian 16 at Fri Aug 26 15:54:48 2022.
