 Gaussian 16, Revision A.03,
 Gaussian 16:  ES64L-G16RevA.03 25-Dec-2016

 ------------------
 #p CCSD(T)/cc-pVTZ
 ------------------

 ------------
 H2O_H2O_2158
 ------------
 Symbolic Z-matrix:
 Charge =  0 Multiplicity = 1

                         Standard orientation:
 ---------------------------------------------------------------------
 Center     Atomic      Atomic             Coordinates (Angstroms)
 Number     Number       Type             X           Y           Z
 ---------------------------------------------------------------------
      1          8           0        0.070214    1.964793    0.000000
      2          1           0        0.069186    0.982192    0.000000
      3          1           0       -0.858946    2.284431    0.000000
      4          8           0        0.070214   -1.794573   -0.000000
      5          1           0        0.560624   -2.646044   -0.000000
      6          1           0       -0.894282   -1.982338   -0.000000
 ---------------------------------------------------------------------

 SCF Done:  E(RHF) =  -152.110986652     A.U. after   10 cycles
 E2 =    -0.5263784453D+00 EUMP2 =    -0.15263736509696D+03
 CCSD(T)
 CCSD(T)= -0.15266445755D+03

 The electronic state is 1-A'.
 Alpha  occ. eigenvalues --  -20.57208 -20.54087  -1.34471  -1.31424  -0.71886
 Alpha  occ. eigenvalues --   -0.68812  -0.58076  -0.54881  -0.51599  -0.48561
 Alpha virt. eigenvalues --    0.12030   0.16543   0.19402   0.25257   0.52168
 Alpha virt. eigenvalues --    0.55779   0.55991   0.58513   0.68873   0.72086
 Alpha virt. eigenvalues --    0.76683   0.78506   0.80364   0.83464   0.83572

 Mulliken charges:
               1
     1  O   -0.522534
     2  H    0.267354
     3  H    0.246834
     4  O   -0.506190
     5  H    0.260372
     6  H    0.254164
 Sum of Mulliken charges =  -0.00000

 Dipole moment (field-independent basis, Debye):
    X=             -2.3764    Y=             -3.1685    Z=             -0.0000  Tot=              3.9607
 Quadrupole moment (field-independent basis, Debye-Ang):
   XX=             -9.6955   YY=             -7.9955   ZZ=            -14.7234
   XY=             -3.4524   XZ=             -0.0000   YZ=              0.0000

 Normal termination of Gaussian 16 at Sun Aug 28 04:56:49 2022.
