 Gaussian 16, Revision A.03,
 Gaussian 16:  ES64L-G16RevA.03 25-Dec-2016

 ------------------
 #p CCSD(T)/cc-pVTZ
 ------------------

 ------------
 H2O_H2O_2026
 ------------
 Symbolic Z-matrix:
 Charge =  0 Multiplicity = 1

                         Standard orientation:
 ---------------------------------------------------------------------
 Center     Atomic      Atomic             Coordinates (Angstroms)
 Number     Number       Type             X           Y           Z
 ---------------------------------------------------------------------
      1          8           0        0.090686   -1.897812    0.000000
      2          1           0        0.090581   -0.915211    0.000000
      3          1           0       -0.838773   -2.216578    0.000000
      4          8           0        0.090686    1.759108    0.000000
      5          1           0        0.154846    2.739613    0.000000
      6          1           0       -0.857632    1.501813    0.000000
 ---------------------------------------------------------------------

 SCF Done:  E(RHF) =  -152.109189661     A.U. after   10 cycles
 E2 =    -0.5266814760D+00 EUMP2 =    -0.15263587113660D+03
 CCSD(T)
 CCSD(T)= -0.15266299848D+03

 The electronic state is 1-A'.
 Alpha  occ. eigenvalues --  -20.57287 -20.54722  -1.34582  -1.32036  -0.72101
 Alpha  occ. eigenvalues --   -0.69360  -0.58088  -0.55463  -0.51678  -0.49149
 Alpha virt. eigenvalues --    0.11517   0.16142   0.20083   0.25470   0.52084
 Alpha virt. eigenvalues --    0.55598   0.56972   0.57426   0.68225   0.73604
 Alpha virt. eigenvalues --    0.76160   0.78754   0.79950   0.82098   0.82992

 Mulliken charges:
               1
     1  O   -0.515899
     2  H    0.265896
     3  H    0.244573
     4  O   -0.499353
     5  H    0.258229
     6  H    0.246554
 Sum of Mulliken charges =  -0.00000

 Dipole moment (field-independent basis, Debye):
    X=             -3.0581    Y=              2.5884    Z=              0.0000  Tot=              4.0065
 Quadrupole moment (field-independent basis, Debye-Ang):
   XX=            -10.7353   YY=             -8.9544   ZZ=            -14.7154
   XY=              2.3222   XZ=              0.0000   YZ=              0.0000

 Normal termination of Gaussian 16 at Sun Aug 28 03:42:23 2022.
