 Gaussian 16, Revision A.03,
 Gaussian 16:  ES64L-G16RevA.03 25-Dec-2016

 ------------------
 #p CCSD(T)/cc-pVTZ
 ------------------

 -----------
 H2O_H2O_265
 -----------
 Symbolic Z-matrix:
 Charge =  0 Multiplicity = 1

                         Standard orientation:
 ---------------------------------------------------------------------
 Center     Atomic      Atomic             Coordinates (Angstroms)
 Number     Number       Type             X           Y           Z
 ---------------------------------------------------------------------
      1          8           0        0.045026    1.212378    0.000000
      2          1           0        0.041389    0.229783    0.000000
      3          1           0       -0.883281    1.534483    0.000000
      4          8           0        0.045026   -1.032146   -0.000000
      5          1           0        0.860004   -1.581070   -0.000000
      6          1           0       -0.738534   -1.625053   -0.000000
 ---------------------------------------------------------------------

 SCF Done:  E(RHF) =  -152.078599690     A.U. after   11 cycles
 E2 =    -0.5337890460D+00 EUMP2 =    -0.15261238873579D+03
 CCSD(T)
 CCSD(T)= -0.15263833811D+03

 The electronic state is 1-A'.
 Alpha  occ. eigenvalues --  -20.61179 -20.46405  -1.40921  -1.25742  -0.76672
 Alpha  occ. eigenvalues --   -0.74903  -0.56909  -0.56601  -0.46829  -0.42480
 Alpha virt. eigenvalues --    0.10807   0.17058   0.20521   0.33481   0.46992
 Alpha virt. eigenvalues --    0.52783   0.62404   0.65314   0.70454   0.71776
 Alpha virt. eigenvalues --    0.78149   0.79899   0.80407   0.82108   0.84230

 Mulliken charges:
               1
     1  O   -0.645098
     2  H    0.305876
     3  H    0.215722
     4  O   -0.378840
     5  H    0.257182
     6  H    0.245158
 Sum of Mulliken charges =  -0.00000

 Dipole moment (field-independent basis, Debye):
    X=             -1.3995    Y=             -4.7000    Z=             -0.0000  Tot=              4.9040
 Quadrupole moment (field-independent basis, Debye-Ang):
   XX=             -9.1151   YY=             -9.8539   ZZ=            -14.6217
   XY=             -2.8482   XZ=             -0.0000   YZ=              0.0000

 Normal termination of Gaussian 16 at Fri Aug 26 17:01:07 2022.
