 Gaussian 16, Revision A.03,
 Gaussian 16:  ES64L-G16RevA.03 25-Dec-2016

 ------------------
 #p CCSD(T)/cc-pVTZ
 ------------------

 ------------
 H2O_H2O_1596
 ------------
 Symbolic Z-matrix:
 Charge =  0 Multiplicity = 1

                         Standard orientation:
 ---------------------------------------------------------------------
 Center     Atomic      Atomic             Coordinates (Angstroms)
 Number     Number       Type             X           Y           Z
 ---------------------------------------------------------------------
      1          8           0       -0.023294    1.735515    0.000000
      2          1           0       -0.019707    0.752920    0.000000
      3          1           0        0.905030    2.057572    0.000000
      4          8           0       -0.023294   -1.565174    0.000000
      5          1           0       -0.986309   -1.760386    0.000000
      6          1           0        0.473682   -2.412830    0.000000
 ---------------------------------------------------------------------

 SCF Done:  E(RHF) =  -152.113390932     A.U. after   10 cycles
 E2 =    -0.5269055609D+00 EUMP2 =    -0.15264029649239D+03
 CCSD(T)
 CCSD(T)= -0.15266731568D+03

 The electronic state is 1-A'.
 Alpha  occ. eigenvalues --  -20.57773 -20.53284  -1.35066  -1.30702  -0.72477
 Alpha  occ. eigenvalues --   -0.68242  -0.58866  -0.54078  -0.52192  -0.47858
 Alpha virt. eigenvalues --    0.12171   0.17506   0.19054   0.28403   0.51008
 Alpha virt. eigenvalues --    0.54284   0.55927   0.60101   0.68941   0.73302
 Alpha virt. eigenvalues --    0.74642   0.77326   0.81229   0.83047   0.84401

 Mulliken charges:
               1
     1  O   -0.540969
     2  H    0.273719
     3  H    0.251574
     4  O   -0.505056
     5  H    0.263669
     6  H    0.257063
 Sum of Mulliken charges =  -0.00000

 Dipole moment (field-independent basis, Debye):
    X=              0.7889    Y=             -3.3082    Z=              0.0000  Tot=              3.4010
 Quadrupole moment (field-independent basis, Debye-Ang):
   XX=             -9.3619   YY=             -8.3287   ZZ=            -14.7324
   XY=              4.3267   XZ=              0.0000   YZ=              0.0000

 Normal termination of Gaussian 16 at Sat Aug 27 23:42:54 2022.
