 Gaussian 16, Revision A.03,
 Gaussian 16:  ES64L-G16RevA.03 25-Dec-2016

 ------------------
 #p CCSD(T)/cc-pVTZ
 ------------------

 ----------
 H2O_H2O_81
 ----------
 Symbolic Z-matrix:
 Charge =  0 Multiplicity = 1

                         Standard orientation:
 ---------------------------------------------------------------------
 Center     Atomic      Atomic             Coordinates (Angstroms)
 Number     Number       Type             X           Y           Z
 ---------------------------------------------------------------------
      1          8           0        0.076816   -1.133258    0.000000
      2          1           0        0.075510   -0.150657    0.000000
      3          1           0       -0.852252   -1.453160    0.000000
      4          8           0        0.076816    0.970159    0.000000
      5          1           0        0.451634    1.878464    0.000000
      6          1           0       -0.903953    1.030147    0.000000
 ---------------------------------------------------------------------

 SCF Done:  E(RHF) =  -152.040364707     A.U. after   11 cycles
 E2 =    -0.5373297202D+00 EUMP2 =    -0.15257769442695D+03
 CCSD(T)
 CCSD(T)= -0.15260327704D+03

 The electronic state is 1-A'.
 Alpha  occ. eigenvalues --  -20.61843 -20.45731  -1.43700  -1.25518  -0.81941
 Alpha  occ. eigenvalues --   -0.73782  -0.58310  -0.55383  -0.46157  -0.42156
 Alpha virt. eigenvalues --    0.10442   0.15936   0.21515   0.32005   0.49314
 Alpha virt. eigenvalues --    0.51532   0.60143   0.64681   0.70839   0.72008
 Alpha virt. eigenvalues --    0.76718   0.79052   0.81347   0.85125   0.87616

 Mulliken charges:
               1
     1  O   -0.635959
     2  H    0.273917
     3  H    0.192413
     4  O   -0.301433
     5  H    0.230922
     6  H    0.240140
 Sum of Mulliken charges =   0.00000

 Dipole moment (field-independent basis, Debye):
    X=             -2.3442    Y=              4.6083    Z=              0.0000  Tot=              5.1703
 Quadrupole moment (field-independent basis, Debye-Ang):
   XX=             -9.9131   YY=            -10.0182   ZZ=            -14.5373
   XY=              2.4931   XZ=              0.0000   YZ=              0.0000

 Normal termination of Gaussian 16 at Fri Aug 26 15:43:55 2022.
