 Gaussian 16, Revision A.03,
 Gaussian 16:  ES64L-G16RevA.03 25-Dec-2016

 ------------------
 #p CCSD(T)/cc-pVTZ
 ------------------

 ------------
 H2O_H2O_2746
 ------------
 Symbolic Z-matrix:
 Charge =  0 Multiplicity = 1

                         Standard orientation:
 ---------------------------------------------------------------------
 Center     Atomic      Atomic             Coordinates (Angstroms)
 Number     Number       Type             X           Y           Z
 ---------------------------------------------------------------------
      1          8           0       -0.023226    2.194240    0.000000
      2          1           0       -0.020420    1.211642    0.000000
      3          1           0        0.905353    2.515559    0.000000
      4          8           0       -0.023226   -2.023862    0.000000
      5          1           0       -0.986396   -2.218309    0.000000
      6          1           0        0.473077   -2.871912    0.000000
 ---------------------------------------------------------------------

 SCF Done:  E(RHF) =  -152.110365002     A.U. after   10 cycles
 E2 =    -0.5259861348D+00 EUMP2 =    -0.15263635113675D+03
 CCSD(T)
 CCSD(T)= -0.15266347790D+03

 The electronic state is 1-A'.
 Alpha  occ. eigenvalues --  -20.56766 -20.54406  -1.34043  -1.31731  -0.71446
 Alpha  occ. eigenvalues --   -0.69135  -0.57609  -0.55223  -0.51175  -0.48873
 Alpha virt. eigenvalues --    0.12328   0.16175   0.19308   0.23542   0.53526
 Alpha virt. eigenvalues --    0.55592   0.56389   0.58532   0.68848   0.69656
 Alpha virt. eigenvalues --    0.77655   0.79085   0.79965   0.80343   0.83364

 Mulliken charges:
               1
     1  O   -0.522271
     2  H    0.264630
     3  H    0.253628
     4  O   -0.513808
     5  H    0.259602
     6  H    0.258218
 Sum of Mulliken charges =  -0.00000

 Dipole moment (field-independent basis, Debye):
    X=              0.7935    Y=             -3.0909    Z=              0.0000  Tot=              3.1912
 Quadrupole moment (field-independent basis, Debye-Ang):
   XX=             -9.3613   YY=             -7.6751   ZZ=            -14.7212
   XY=              5.4383   XZ=              0.0000   YZ=              0.0000

 Normal termination of Gaussian 16 at Fri Aug 26 16:59:32 2022.
