 Gaussian 16, Revision A.03,
 Gaussian 16:  ES64L-G16RevA.03 25-Dec-2016

 ------------------
 #p CCSD(T)/cc-pVTZ
 ------------------

 ------------
 H2O_H2O_2494
 ------------
 Symbolic Z-matrix:
 Charge =  0 Multiplicity = 1

                         Standard orientation:
 ---------------------------------------------------------------------
 Center     Atomic      Atomic             Coordinates (Angstroms)
 Number     Number       Type             X           Y           Z
 ---------------------------------------------------------------------
      1          8           0        0.030215    2.097351   -0.000000
      2          1           0        0.027565    1.114753   -0.000000
      3          1           0       -0.898415    2.418523   -0.000000
      4          8           0        0.030215   -1.921761    0.000000
      5          1           0        0.959815   -2.240117    0.000000
      6          1           0       -0.572411   -2.697871    0.000000
 ---------------------------------------------------------------------

 SCF Done:  E(RHF) =  -152.111004746     A.U. after   10 cycles
 E2 =    -0.5260789225D+00 EUMP2 =    -0.15263708366851D+03
 CCSD(T)
 CCSD(T)= -0.15266418969D+03

 The electronic state is 1-A'.
 Alpha  occ. eigenvalues --  -20.56935 -20.54169  -1.34201  -1.31502  -0.71598
 Alpha  occ. eigenvalues --   -0.68907  -0.57800  -0.54992  -0.51336  -0.48649
 Alpha virt. eigenvalues --    0.12332   0.16460   0.19289   0.24250   0.53047
 Alpha virt. eigenvalues --    0.55505   0.56413   0.58735   0.69008   0.70727
 Alpha virt. eigenvalues --    0.77361   0.78851   0.80199   0.81121   0.83694

 Mulliken charges:
               1
     1  O   -0.524608
     2  H    0.266211
     3  H    0.252412
     4  O   -0.512068
     5  H    0.260384
     6  H    0.257670
 Sum of Mulliken charges =  -0.00000

 Dipole moment (field-independent basis, Debye):
    X=             -1.0285    Y=             -3.2189    Z=              0.0000  Tot=              3.3792
 Quadrupole moment (field-independent basis, Debye-Ang):
   XX=             -9.2296   YY=             -7.6518   ZZ=            -14.7234
   XY=             -4.9345   XZ=              0.0000   YZ=             -0.0000

 Normal termination of Gaussian 16 at Sun Aug 28 07:43:22 2022.
