 Gaussian 16, Revision A.03,
 Gaussian 16:  ES64L-G16RevA.03 25-Dec-2016

 ------------------
 #p CCSD(T)/cc-pVTZ
 ------------------

 ------------
 H2O_H2O_3207
 ------------
 Symbolic Z-matrix:
 Charge =  0 Multiplicity = 1

                         Standard orientation:
 ---------------------------------------------------------------------
 Center     Atomic      Atomic             Coordinates (Angstroms)
 Number     Number       Type             X           Y           Z
 ---------------------------------------------------------------------
      1          8           0        0.073535    2.381832    0.000000
      2          1           0        0.072818    1.399231    0.000000
      3          1           0       -0.855725    2.701177    0.000000
      4          8           0        0.073535   -2.214889   -0.000000
      5          1           0        0.507486   -3.096475   -0.000000
      6          1           0       -0.901136   -2.339479   -0.000000
 ---------------------------------------------------------------------

 SCF Done:  E(RHF) =  -152.108984377     A.U. after   10 cycles
 E2 =    -0.5259497216D+00 EUMP2 =    -0.15263493409877D+03
 CCSD(T)
 CCSD(T)= -0.15266209927D+03

 The electronic state is 1-A'.
 Alpha  occ. eigenvalues --  -20.56562 -20.54728  -1.33850  -1.32041  -0.71262
 Alpha  occ. eigenvalues --   -0.69428  -0.57356  -0.55512  -0.50970  -0.49166
 Alpha virt. eigenvalues --    0.12312   0.15641   0.19422   0.22297   0.53545
 Alpha virt. eigenvalues --    0.55136   0.56366   0.58308   0.67519   0.69290
 Alpha virt. eigenvalues --    0.77935   0.78720   0.79680   0.80283   0.82939

 Mulliken charges:
               1
     1  O   -0.514740
     2  H    0.262458
     3  H    0.250432
     4  O   -0.512608
     5  H    0.260016
     6  H    0.254441
 Sum of Mulliken charges =  -0.00000

 Dipole moment (field-independent basis, Debye):
    X=             -2.5088    Y=             -2.9881    Z=             -0.0000  Tot=              3.9017
 Quadrupole moment (field-independent basis, Debye-Ang):
   XX=             -9.8150   YY=             -7.5977   ZZ=            -14.7167
   XY=             -3.6027   XZ=             -0.0000   YZ=              0.0000

 Normal termination of Gaussian 16 at Fri Aug 26 20:24:01 2022.
