 Gaussian 16, Revision A.03,
 Gaussian 16:  ES64L-G16RevA.03 25-Dec-2016

 ------------------
 #p CCSD(T)/cc-pVTZ
 ------------------

 ------------
 H2O_H2O_4129
 ------------
 Symbolic Z-matrix:
 Charge =  0 Multiplicity = 1

                         Standard orientation:
 ---------------------------------------------------------------------
 Center     Atomic      Atomic             Coordinates (Angstroms)
 Number     Number       Type             X           Y           Z
 ---------------------------------------------------------------------
      1          8           0        0.082799    2.744049   -0.000000
      2          1           0        0.082476    1.761448   -0.000000
      3          1           0       -0.846589    3.063021    0.000000
      4          8           0        0.082799   -2.589522   -0.000000
      5          1           0        0.336804   -3.538725   -0.000000
      6          1           0       -0.897477   -2.521961    0.000000
 ---------------------------------------------------------------------

 SCF Done:  E(RHF) =  -152.108040669     A.U. after   10 cycles
 E2 =    -0.5258670012D+00 EUMP2 =    -0.15263390767016D+03
 CCSD(T)
 CCSD(T)= -0.15266111008D+03

 The electronic state is 1-A'.
 Alpha  occ. eigenvalues --  -20.56277 -20.55110  -1.33577  -1.32415  -0.70990
 Alpha  occ. eigenvalues --   -0.69810  -0.57052  -0.55874  -0.50691  -0.49532
 Alpha virt. eigenvalues --    0.12754   0.14983   0.19219   0.21557   0.53221
 Alpha virt. eigenvalues --    0.54969   0.56532   0.57832   0.66744   0.68808
 Alpha virt. eigenvalues --    0.78203   0.79191   0.79332   0.80958   0.82508

 Mulliken charges:
               1
     1  O   -0.511333
     2  H    0.259294
     3  H    0.251803
     4  O   -0.512359
     5  H    0.259018
     6  H    0.253577
 Sum of Mulliken charges =  -0.00000

 Dipole moment (field-independent basis, Debye):
    X=             -2.8361    Y=             -2.7218    Z=              0.0000  Tot=              3.9308
 Quadrupole moment (field-independent basis, Debye-Ang):
   XX=            -10.2457   YY=             -7.9024   ZZ=            -14.7133
   XY=             -3.1465   XZ=              0.0000   YZ=              0.0000

 Normal termination of Gaussian 16 at Sat Aug 27 23:58:24 2022.
