 Gaussian 16, Revision A.03,
 Gaussian 16:  ES64L-G16RevA.03 25-Dec-2016

 ------------------
 #p CCSD(T)/cc-pVTZ
 ------------------

 ------------
 H2O_H2O_1360
 ------------
 Symbolic Z-matrix:
 Charge =  0 Multiplicity = 1

                         Standard orientation:
 ---------------------------------------------------------------------
 Center     Atomic      Atomic             Coordinates (Angstroms)
 Number     Number       Type             X           Y           Z
 ---------------------------------------------------------------------
      1          8           0        0.063281    1.648531    0.000000
      2          1           0        0.061665    0.665931    0.000000
      3          1           0       -0.865687    1.968725   -0.000000
      4          8           0        0.063281   -1.473088    0.000000
      5          1           0        0.660168   -2.253621    0.000000
      6          1           0       -0.868641   -1.784581   -0.000000
 ---------------------------------------------------------------------

 SCF Done:  E(RHF) =  -152.113327726     A.U. after   10 cycles
 E2 =    -0.5275487707D+00 EUMP2 =    -0.15264087649706D+03
 CCSD(T)
 CCSD(T)= -0.15266785508D+03

 The electronic state is 1-A'.
 Alpha  occ. eigenvalues --  -20.58161 -20.52832  -1.35488  -1.30304  -0.72855
 Alpha  occ. eigenvalues --   -0.68052  -0.59232  -0.53590  -0.52596  -0.47438
 Alpha virt. eigenvalues --    0.11889   0.17334   0.19245   0.29650   0.49136
 Alpha virt. eigenvalues --    0.54967   0.56835   0.59193   0.69712   0.72672
 Alpha virt. eigenvalues --    0.73753   0.76605   0.81684   0.82767   0.84624

 Mulliken charges:
               1
     1  O   -0.542522
     2  H    0.282011
     3  H    0.241505
     4  O   -0.498423
     5  H    0.261537
     6  H    0.255891
 Sum of Mulliken charges =  -0.00000

 Dipole moment (field-independent basis, Debye):
    X=             -2.1113    Y=             -3.4929    Z=             -0.0000  Tot=              4.0814
 Quadrupole moment (field-independent basis, Debye-Ang):
   XX=             -9.4736   YY=             -8.4349   ZZ=            -14.7312
   XY=             -3.3599   XZ=             -0.0000   YZ=             -0.0000

 Normal termination of Gaussian 16 at Sat Aug 27 00:06:30 2022.
