 Gaussian 16, Revision A.03,
 Gaussian 16:  ES64L-G16RevA.03 25-Dec-2016

 ------------------
 #p CCSD(T)/cc-pVTZ
 ------------------

 ------------
 H2O_H2O_2680
 ------------
 Symbolic Z-matrix:
 Charge =  0 Multiplicity = 1

                         Standard orientation:
 ---------------------------------------------------------------------
 Center     Atomic      Atomic             Coordinates (Angstroms)
 Number     Number       Type             X           Y           Z
 ---------------------------------------------------------------------
      1          8           0        0.079855    2.168137    0.000000
      2          1           0        0.079323    1.185535    0.000000
      3          1           0       -0.849465    2.487307    0.000000
      4          8           0        0.079855   -2.009082   -0.000000
      5          1           0        0.395197   -2.939708   -0.000000
      6          1           0       -0.902740   -2.005571   -0.000000
 ---------------------------------------------------------------------

 SCF Done:  E(RHF) =  -152.109362740     A.U. after   10 cycles
 E2 =    -0.5261266919D+00 EUMP2 =    -0.15263548943235D+03
 CCSD(T)
 CCSD(T)= -0.15266263250D+03

 The electronic state is 1-A'.
 Alpha  occ. eigenvalues --  -20.56824 -20.54636  -1.34105  -1.31950  -0.71528
 Alpha  occ. eigenvalues --   -0.69328  -0.57621  -0.55415  -0.51223  -0.49076
 Alpha virt. eigenvalues --    0.11938   0.15966   0.19495   0.23446   0.53841
 Alpha virt. eigenvalues --    0.55261   0.56329   0.58415   0.68715   0.69807
 Alpha virt. eigenvalues --    0.77583   0.79039   0.79793   0.80577   0.83024

 Mulliken charges:
               1
     1  O   -0.515966
     2  H    0.263850
     3  H    0.248486
     4  O   -0.508681
     5  H    0.259588
     6  H    0.252722
 Sum of Mulliken charges =  -0.00000

 Dipole moment (field-independent basis, Debye):
    X=             -2.7145    Y=             -2.8886    Z=             -0.0000  Tot=              3.9639
 Quadrupole moment (field-independent basis, Debye-Ang):
   XX=            -10.1080   YY=             -8.1184   ZZ=            -14.7174
   XY=             -3.1191   XZ=             -0.0000   YZ=              0.0000

 Normal termination of Gaussian 16 at Fri Aug 26 16:31:02 2022.
