 Gaussian 16, Revision A.03,
 Gaussian 16:  ES64L-G16RevA.03 25-Dec-2016

 ------------------
 #p CCSD(T)/cc-pVTZ
 ------------------

 ------------
 H2O_H2O_4460
 ------------
 Symbolic Z-matrix:
 Charge =  0 Multiplicity = 1

                         Standard orientation:
 ---------------------------------------------------------------------
 Center     Atomic      Atomic             Coordinates (Angstroms)
 Number     Number       Type             X           Y           Z
 ---------------------------------------------------------------------
      1          8           0        0.063217    2.885096    0.000000
      2          1           0        0.062315    1.902495    0.000000
      3          1           0       -0.865983    3.204615    0.000000
      4          8           0        0.063217   -2.709561   -0.000000
      5          1           0        0.660672   -3.489660   -0.000000
      6          1           0       -0.868479   -3.021730   -0.000000
 ---------------------------------------------------------------------

 SCF Done:  E(RHF) =  -152.108291823     A.U. after   10 cycles
 E2 =    -0.5258232242D+00 EUMP2 =    -0.15263411504695D+03
 CCSD(T)
 CCSD(T)= -0.15266131437D+03

 The electronic state is 1-A'.
 Alpha  occ. eigenvalues --  -20.56198 -20.54981  -1.33499  -1.32288  -0.70905
 Alpha  occ. eigenvalues --   -0.69686  -0.56987  -0.55755  -0.50616  -0.49409
 Alpha virt. eigenvalues --    0.13288   0.14912   0.19628   0.21068   0.53578
 Alpha virt. eigenvalues --    0.54864   0.56637   0.57785   0.66828   0.68754
 Alpha virt. eigenvalues --    0.78271   0.79450   0.79518   0.80320   0.82640

 Mulliken charges:
               1
     1  O   -0.513051
     2  H    0.260224
     3  H    0.252689
     4  O   -0.513934
     5  H    0.258567
     6  H    0.255504
 Sum of Mulliken charges =  -0.00000

 Dipole moment (field-independent basis, Debye):
    X=             -2.1676    Y=             -3.0826    Z=             -0.0000  Tot=              3.7684
 Quadrupole moment (field-independent basis, Debye-Ang):
   XX=             -9.4538   YY=             -6.5242   ZZ=            -14.7144
   XY=             -4.6506   XZ=             -0.0000   YZ=              0.0000

 Normal termination of Gaussian 16 at Sun Aug 28 03:07:33 2022.
