 Gaussian 16, Revision A.03,
 Gaussian 16:  ES64L-G16RevA.03 25-Dec-2016

 ------------------
 #p CCSD(T)/cc-pVTZ
 ------------------

 ------------
 H2O_H2O_3501
 ------------
 Symbolic Z-matrix:
 Charge =  0 Multiplicity = 1

                         Standard orientation:
 ---------------------------------------------------------------------
 Center     Atomic      Atomic             Coordinates (Angstroms)
 Number     Number       Type             X           Y           Z
 ---------------------------------------------------------------------
      1          8           0        0.090684   -2.486159    0.000000
      2          1           0        0.090605   -1.503558    0.000000
      3          1           0       -0.838783   -2.804901    0.000000
      4          8           0        0.090684    2.347450    0.000000
      5          1           0        0.154870    3.327953    0.000000
      6          1           0       -0.857640    2.090180    0.000000
 ---------------------------------------------------------------------

 SCF Done:  E(RHF) =  -152.107968308     A.U. after   10 cycles
 E2 =    -0.5259563131D+00 EUMP2 =    -0.15263392462101D+03
 CCSD(T)
 CCSD(T)= -0.15266112120D+03

 The electronic state is 1-A'.
 Alpha  occ. eigenvalues --  -20.56456 -20.55169  -1.33754  -1.32472  -0.71176
 Alpha  occ. eigenvalues --   -0.69860  -0.57221  -0.55926  -0.50864  -0.49586
 Alpha virt. eigenvalues --    0.11890   0.15296   0.19077   0.22578   0.53448
 Alpha virt. eigenvalues --    0.54915   0.56458   0.57997   0.66993   0.68912
 Alpha virt. eigenvalues --    0.78042   0.78675   0.79283   0.81300   0.82490

 Mulliken charges:
               1
     1  O   -0.510309
     2  H    0.259052
     3  H    0.250603
     4  O   -0.510417
     5  H    0.259593
     6  H    0.251479
 Sum of Mulliken charges =  -0.00000

 Dipole moment (field-independent basis, Debye):
    X=             -3.0976    Y=              2.4634    Z=              0.0000  Tot=              3.9577
 Quadrupole moment (field-independent basis, Debye-Ang):
   XX=            -10.7065   YY=             -8.9116   ZZ=            -14.7127
   XY=              2.3829   XZ=              0.0000   YZ=              0.0000

 Normal termination of Gaussian 16 at Fri Aug 26 22:03:58 2022.
