 Gaussian 16, Revision A.03,
 Gaussian 16:  ES64L-G16RevA.03 25-Dec-2016

 ------------------
 #p CCSD(T)/cc-pVTZ
 ------------------

 -----------
 H2O_H2O_523
 -----------
 Symbolic Z-matrix:
 Charge =  0 Multiplicity = 1

                         Standard orientation:
 ---------------------------------------------------------------------
 Center     Atomic      Atomic             Coordinates (Angstroms)
 Number     Number       Type             X           Y           Z
 ---------------------------------------------------------------------
      1          8           0        0.016829   -1.302909    0.000000
      2          1           0        0.011526   -0.320322    0.000000
      3          1           0       -0.910930   -1.626587    0.000000
      4          8           0        0.016829    1.139602    0.000000
      5          1           0        0.996966    1.209159    0.000000
      6          1           0       -0.366834    2.044206    0.000000
 ---------------------------------------------------------------------

 SCF Done:  E(RHF) =  -152.098513930     A.U. after   11 cycles
 E2 =    -0.5318027811D+00 EUMP2 =    -0.15263031671107D+03
 CCSD(T)
 CCSD(T)= -0.15265672125D+03

 The electronic state is 1-A'.
 Alpha  occ. eigenvalues --  -20.60009 -20.49422  -1.38621  -1.27793  -0.76586
 Alpha  occ. eigenvalues --   -0.69219  -0.59403  -0.55140  -0.49896  -0.44785
 Alpha virt. eigenvalues --    0.11531   0.18020   0.19560   0.34005   0.47775
 Alpha virt. eigenvalues --    0.53306   0.58342   0.68170   0.69999   0.72107
 Alpha virt. eigenvalues --    0.74511   0.76614   0.79005   0.83867   0.84305

 Mulliken charges:
               1
     1  O   -0.615856
     2  H    0.296527
     3  H    0.241372
     4  O   -0.414405
     5  H    0.258730
     6  H    0.233632
 Sum of Mulliken charges =  -0.00000

 Dipole moment (field-independent basis, Debye):
    X=             -0.5509    Y=              3.9238    Z=              0.0000  Tot=              3.9622
 Quadrupole moment (field-independent basis, Debye-Ang):
   XX=             -9.4904   YY=             -9.3637   ZZ=            -14.6636
   XY=              3.3681   XZ=              0.0000   YZ=              0.0000

 Normal termination of Gaussian 16 at Fri Aug 26 18:49:26 2022.
