 Gaussian 16, Revision A.03,
 Gaussian 16:  ES64L-G16RevA.03 25-Dec-2016

 ------------------
 #p CCSD(T)/cc-pVTZ
 ------------------

 ------------
 H2O_H2O_4127
 ------------
 Symbolic Z-matrix:
 Charge =  0 Multiplicity = 1

                         Standard orientation:
 ---------------------------------------------------------------------
 Center     Atomic      Atomic             Coordinates (Angstroms)
 Number     Number       Type             X           Y           Z
 ---------------------------------------------------------------------
      1          8           0        0.088230   -2.738507    0.000000
      2          1           0        0.088079   -1.755905    0.000000
      3          1           0       -0.841214   -3.057315    0.000000
      4          8           0        0.088230    2.594183    0.000000
      5          1           0        0.216336    3.568397    0.000000
      6          1           0       -0.874877    2.399417    0.000000
 ---------------------------------------------------------------------

 SCF Done:  E(RHF) =  -152.107861887     A.U. after   10 cycles
 E2 =    -0.5258815689D+00 EUMP2 =    -0.15263374345603D+03
 CCSD(T)
 CCSD(T)= -0.15266095024D+03

 The electronic state is 1-A'.
 Alpha  occ. eigenvalues --  -20.56282 -20.55208  -1.33582  -1.32510  -0.70998
 Alpha  occ. eigenvalues --   -0.69905  -0.57050  -0.55966  -0.50694  -0.49625
 Alpha virt. eigenvalues --    0.12563   0.14952   0.19029   0.21802   0.53158
 Alpha virt. eigenvalues --    0.54948   0.56517   0.57816   0.66768   0.68722
 Alpha virt. eigenvalues --    0.78201   0.79244   0.79274   0.81281   0.82302

 Mulliken charges:
               1
     1  O   -0.510409
     2  H    0.258494
     3  H    0.251719
     4  O   -0.511469
     5  H    0.258898
     6  H    0.252767
 Sum of Mulliken charges =   0.00000

 Dipole moment (field-independent basis, Debye):
    X=             -3.0220    Y=              2.5415    Z=              0.0000  Tot=              3.9486
 Quadrupole moment (field-independent basis, Debye-Ang):
   XX=            -10.5514   YY=             -8.5281   ZZ=            -14.7126
   XY=              2.6549   XZ=              0.0000   YZ=              0.0000

 Normal termination of Gaussian 16 at Sat Aug 27 23:57:35 2022.
