 Gaussian 16, Revision A.03,
 Gaussian 16:  ES64L-G16RevA.03 25-Dec-2016

 ------------------
 #p CCSD(T)/cc-pVTZ
 ------------------

 -----------
 H2O_H2O_239
 -----------
 Symbolic Z-matrix:
 Charge =  0 Multiplicity = 1

                         Standard orientation:
 ---------------------------------------------------------------------
 Center     Atomic      Atomic             Coordinates (Angstroms)
 Number     Number       Type             X           Y           Z
 ---------------------------------------------------------------------
      1          8           0        0.048741    1.202397    0.000000
      2          1           0        0.045355    0.219801    0.000000
      3          1           0       -0.879649    1.524264   -0.000000
      4          8           0        0.048741   -1.022179    0.000000
      5          1           0        0.826225   -1.623032    0.000000
      6          1           0       -0.771782   -1.562779   -0.000000
 ---------------------------------------------------------------------

 SCF Done:  E(RHF) =  -152.075081082     A.U. after   11 cycles
 E2 =    -0.5340834816D+00 EUMP2 =    -0.15260916456371D+03
 CCSD(T)
 CCSD(T)= -0.15263506495D+03

 The electronic state is 1-A'.
 Alpha  occ. eigenvalues --  -20.61297 -20.46164  -1.41228  -1.25602  -0.76821
 Alpha  occ. eigenvalues --   -0.75415  -0.57110  -0.56330  -0.46581  -0.42311
 Alpha virt. eigenvalues --    0.10735   0.16915   0.20640   0.33350   0.47115
 Alpha virt. eigenvalues --    0.52663   0.62779   0.64599   0.70747   0.71674
 Alpha virt. eigenvalues --    0.78456   0.80298   0.80332   0.82045   0.84497

 Mulliken charges:
               1
     1  O   -0.646584
     2  H    0.304729
     3  H    0.212719
     4  O   -0.370872
     5  H    0.254773
     6  H    0.245235
 Sum of Mulliken charges =  -0.00000

 Dipole moment (field-independent basis, Debye):
    X=             -1.5088    Y=             -4.7434    Z=             -0.0000  Tot=              4.9776
 Quadrupole moment (field-independent basis, Debye-Ang):
   XX=             -9.1438   YY=             -9.8989   ZZ=            -14.6142
   XY=             -2.8185   XZ=             -0.0000   YZ=             -0.0000

 Normal termination of Gaussian 16 at Fri Aug 26 16:50:11 2022.
