 Gaussian 16, Revision A.03,
 Gaussian 16:  ES64L-G16RevA.03 25-Dec-2016

 ------------------
 #p CCSD(T)/cc-pVTZ
 ------------------

 -----------
 H2O_H2O_359
 -----------
 Symbolic Z-matrix:
 Charge =  0 Multiplicity = 1

                         Standard orientation:
 ---------------------------------------------------------------------
 Center     Atomic      Atomic             Coordinates (Angstroms)
 Number     Number       Type             X           Y           Z
 ---------------------------------------------------------------------
      1          8           0        0.066842    1.248318   -0.000000
      2          1           0        0.064929    0.265718   -0.000000
      3          1           0       -0.862029    1.568793   -0.000000
      4          8           0        0.066842   -1.075340    0.000000
      5          1           0        0.611156   -1.893404    0.000000
      6          1           0       -0.883532   -1.324926    0.000000
 ---------------------------------------------------------------------

 SCF Done:  E(RHF) =  -152.087602949     A.U. after   11 cycles
 E2 =    -0.5334862558D+00 EUMP2 =    -0.15262108920521D+03
 CCSD(T)
 CCSD(T)= -0.15264723812D+03

 The electronic state is 1-A'.
 Alpha  occ. eigenvalues --  -20.60742 -20.48047  -1.39940  -1.26854  -0.77105
 Alpha  occ. eigenvalues --   -0.72076  -0.57588  -0.56162  -0.48610  -0.43701
 Alpha virt. eigenvalues --    0.10949   0.16775   0.20522   0.33111   0.48280
 Alpha virt. eigenvalues --    0.52902   0.60663   0.63797   0.72009   0.72118
 Alpha virt. eigenvalues --    0.75865   0.79219   0.79558   0.83723   0.84101

 Mulliken charges:
               1
     1  O   -0.615851
     2  H    0.302381
     3  H    0.213672
     4  O   -0.386057
     5  H    0.242758
     6  H    0.243097
 Sum of Mulliken charges =  -0.00000

 Dipole moment (field-independent basis, Debye):
    X=             -2.1007    Y=             -4.3435    Z=              0.0000  Tot=              4.8248
 Quadrupole moment (field-independent basis, Debye-Ang):
   XX=             -9.5565   YY=             -9.6006   ZZ=            -14.6342
   XY=             -2.8071   XZ=              0.0000   YZ=              0.0000

 Normal termination of Gaussian 16 at Fri Aug 26 17:41:05 2022.
