 Gaussian 16, Revision A.03,
 Gaussian 16:  ES64L-G16RevA.03 25-Dec-2016

 ------------------
 #p CCSD(T)/cc-pVTZ
 ------------------

 ------------
 H2O_H2O_2171
 ------------
 Symbolic Z-matrix:
 Charge =  0 Multiplicity = 1

                         Standard orientation:
 ---------------------------------------------------------------------
 Center     Atomic      Atomic             Coordinates (Angstroms)
 Number     Number       Type             X           Y           Z
 ---------------------------------------------------------------------
      1          8           0       -0.023256    1.964879    0.000000
      2          1           0       -0.020107    0.982282    0.000000
      3          1           0        0.905211    2.286522    0.000000
      4          8           0       -0.023256   -1.794517    0.000000
      5          1           0       -0.986357   -1.989300    0.000000
      6          1           0        0.473343   -2.642394    0.000000
 ---------------------------------------------------------------------

 SCF Done:  E(RHF) =  -152.111743339     A.U. after   10 cycles
 E2 =    -0.5262561515D+00 EUMP2 =    -0.15263799949058D+03
 CCSD(T)
 CCSD(T)= -0.15266508214D+03

 The electronic state is 1-A'.
 Alpha  occ. eigenvalues --  -20.57168 -20.53994  -1.34433  -1.31340  -0.71837
 Alpha  occ. eigenvalues --   -0.68760  -0.58082  -0.54816  -0.51569  -0.48493
 Alpha virt. eigenvalues --    0.12247   0.16786   0.19216   0.25531   0.52910
 Alpha virt. eigenvalues --    0.54984   0.56220   0.58755   0.68910   0.72181
 Alpha virt. eigenvalues --    0.76705   0.78587   0.80420   0.83419   0.83547

 Mulliken charges:
               1
     1  O   -0.528553
     2  H    0.267043
     3  H    0.252904
     4  O   -0.510358
     5  H    0.260887
     6  H    0.258077
 Sum of Mulliken charges =  -0.00000

 Dipole moment (field-independent basis, Debye):
    X=              0.7922    Y=             -3.1703    Z=              0.0000  Tot=              3.2678
 Quadrupole moment (field-independent basis, Debye-Ang):
   XX=             -9.3623   YY=             -7.9809   ZZ=            -14.7262
   XY=              4.8848   XZ=              0.0000   YZ=              0.0000

 Normal termination of Gaussian 16 at Sun Aug 28 05:06:07 2022.
