 Gaussian 16, Revision A.03,
 Gaussian 16:  ES64L-G16RevA.03 25-Dec-2016

 ------------------
 #p CCSD(T)/cc-pVTZ
 ------------------

 ------------
 H2O_H2O_1048
 ------------
 Symbolic Z-matrix:
 Charge =  0 Multiplicity = 1

                         Standard orientation:
 ---------------------------------------------------------------------
 Center     Atomic      Atomic             Coordinates (Angstroms)
 Number     Number       Type             X           Y           Z
 ---------------------------------------------------------------------
      1          8           0       -0.016765    1.512331    0.000000
      2          1           0       -0.012238    0.529740    0.000000
      3          1           0        0.911250    1.835276    0.000000
      4          8           0       -0.016765   -1.348997    0.000000
      5          1           0       -0.996957   -1.417779    0.000000
      6          1           0        0.366184   -2.253904    0.000000
 ---------------------------------------------------------------------

 SCF Done:  E(RHF) =  -152.112433217     A.U. after   10 cycles
 E2 =    -0.5284710765D+00 EUMP2 =    -0.15264090429390D+03
 CCSD(T)
 CCSD(T)= -0.15266778491D+03

 The electronic state is 1-A'.
 Alpha  occ. eigenvalues --  -20.58634 -20.52158  -1.36177  -1.29798  -0.73777
 Alpha  occ. eigenvalues --   -0.67892  -0.59835  -0.53202  -0.52837  -0.46923
 Alpha virt. eigenvalues --    0.12009   0.18122   0.18968   0.31753   0.49113
 Alpha virt. eigenvalues --    0.54590   0.55903   0.63198   0.68428   0.72648
 Alpha virt. eigenvalues --    0.74133   0.76563   0.81532   0.82494   0.84264

 Mulliken charges:
               1
     1  O   -0.567663
     2  H    0.287749
     3  H    0.250422
     4  O   -0.473115
     5  H    0.261569
     6  H    0.241039
 Sum of Mulliken charges =  -0.00000

 Dipole moment (field-independent basis, Debye):
    X=              0.5678    Y=             -3.4236    Z=              0.0000  Tot=              3.4704
 Quadrupole moment (field-independent basis, Debye-Ang):
   XX=             -9.5329   YY=             -8.8151   ZZ=            -14.7188
   XY=              3.9480   XZ=              0.0000   YZ=              0.0000

 Normal termination of Gaussian 16 at Fri Aug 26 22:08:35 2022.
