 Gaussian 16, Revision A.03,
 Gaussian 16:  ES64L-G16RevA.03 25-Dec-2016

 ------------------
 #p CCSD(T)/cc-pVTZ
 ------------------

 -----------
 H2O_H2O_998
 -----------
 Symbolic Z-matrix:
 Charge =  0 Multiplicity = 1

                         Standard orientation:
 ---------------------------------------------------------------------
 Center     Atomic      Atomic             Coordinates (Angstroms)
 Number     Number       Type             X           Y           Z
 ---------------------------------------------------------------------
      1          8           0       -0.016770    1.492386    0.000000
      2          1           0       -0.012179    0.509795    0.000000
      3          1           0        0.911224    1.815391    0.000000
      4          8           0       -0.016770   -1.329054    0.000000
      5          1           0       -0.996957   -1.397900    0.000000
      6          1           0        0.366238   -2.233937    0.000000
 ---------------------------------------------------------------------

 SCF Done:  E(RHF) =  -152.112029094     A.U. after   10 cycles
 E2 =    -0.5286918820D+00 EUMP2 =    -0.15264072097593D+03
 CCSD(T)
 CCSD(T)= -0.15266757654D+03

 The electronic state is 1-A'.
 Alpha  occ. eigenvalues --  -20.58739 -20.51981  -1.36328  -1.29659  -0.73950
 Alpha  occ. eigenvalues --   -0.67891  -0.59905  -0.53333  -0.52645  -0.46778
 Alpha virt. eigenvalues --    0.11981   0.18174   0.18963   0.32052   0.48942
 Alpha virt. eigenvalues --    0.54525   0.56055   0.63600   0.68378   0.72541
 Alpha virt. eigenvalues --    0.74142   0.76530   0.81360   0.82637   0.84239

 Mulliken charges:
               1
     1  O   -0.571220
     2  H    0.289322
     3  H    0.249923
     4  O   -0.469264
     5  H    0.261135
     6  H    0.240105
 Sum of Mulliken charges =  -0.00000

 Dipole moment (field-independent basis, Debye):
    X=              0.5671    Y=             -3.4574    Z=              0.0000  Tot=              3.5036
 Quadrupole moment (field-independent basis, Debye-Ang):
   XX=             -9.5308   YY=             -8.8573   ZZ=            -14.7160
   XY=              3.8939   XZ=              0.0000   YZ=              0.0000

 Normal termination of Gaussian 16 at Fri Aug 26 21:49:09 2022.
