 Gaussian 16, Revision A.03,
 Gaussian 16:  ES64L-G16RevA.03 25-Dec-2016

 ------------------
 #p CCSD(T)/cc-pVTZ
 ------------------

 ------------
 H2O_H2O_2433
 ------------
 Symbolic Z-matrix:
 Charge =  0 Multiplicity = 1

                         Standard orientation:
 ---------------------------------------------------------------------
 Center     Atomic      Atomic             Coordinates (Angstroms)
 Number     Number       Type             X           Y           Z
 ---------------------------------------------------------------------
      1          8           0        0.070209    2.074488    0.000000
      2          1           0        0.069238    1.091887    0.000000
      3          1           0       -0.858969    2.394073    0.000000
      4          8           0        0.070209   -1.904260    0.000000
      5          1           0        0.560669   -2.755703    0.000000
      6          1           0       -0.894276   -2.092081    0.000000
 ---------------------------------------------------------------------

 SCF Done:  E(RHF) =  -152.110352798     A.U. after   10 cycles
 E2 =    -0.5261993854D+00 EUMP2 =    -0.15263655218330D+03
 CCSD(T)
 CCSD(T)= -0.15266366660D+03

 The electronic state is 1-A'.
 Alpha  occ. eigenvalues --  -20.56992 -20.54292  -1.34260  -1.31618  -0.71672
 Alpha  occ. eigenvalues --   -0.69000  -0.57825  -0.55088  -0.51387  -0.48752
 Alpha virt. eigenvalues --    0.12093   0.16305   0.19414   0.24211   0.52996
 Alpha virt. eigenvalues --    0.55734   0.56029   0.58660   0.68843   0.70913
 Alpha virt. eigenvalues --    0.77263   0.78893   0.80121   0.81357   0.83393

 Mulliken charges:
               1
     1  O   -0.520082
     2  H    0.266030
     3  H    0.248115
     4  O   -0.508274
     5  H    0.259913
     6  H    0.254298
 Sum of Mulliken charges =  -0.00000

 Dipole moment (field-independent basis, Debye):
    X=             -2.3828    Y=             -3.1262    Z=             -0.0000  Tot=              3.9308
 Quadrupole moment (field-independent basis, Debye-Ang):
   XX=             -9.6914   YY=             -7.8492   ZZ=            -14.7209
   XY=             -3.5402   XZ=             -0.0000   YZ=             -0.0000

 Normal termination of Gaussian 16 at Sun Aug 28 07:15:41 2022.
