 Gaussian 16, Revision A.03,
 Gaussian 16:  ES64L-G16RevA.03 25-Dec-2016

 ------------------
 #p CCSD(T)/cc-pVTZ
 ------------------

 ------------
 H2O_H2O_2845
 ------------
 Symbolic Z-matrix:
 Charge =  0 Multiplicity = 1

                         Standard orientation:
 ---------------------------------------------------------------------
 Center     Atomic      Atomic             Coordinates (Angstroms)
 Number     Number       Type             X           Y           Z
 ---------------------------------------------------------------------
      1          8           0        0.026668    2.235670    0.000000
      2          1           0        0.024050    1.253072    0.000000
      3          1           0       -0.901972    2.556811   -0.000000
      4          8           0        0.026668   -2.062452    0.000000
      5          1           0        0.975108   -2.319295    0.000000
      6          1           0       -0.523881   -2.876331   -0.000000
 ---------------------------------------------------------------------

 SCF Done:  E(RHF) =  -152.110219040     A.U. after   10 cycles
 E2 =    -0.5259584341D+00 EUMP2 =    -0.15263617747443D+03
 CCSD(T)
 CCSD(T)= -0.15266330940D+03

 The electronic state is 1-A'.
 Alpha  occ. eigenvalues --  -20.56716 -20.54422  -1.33994  -1.31745  -0.71395
 Alpha  occ. eigenvalues --   -0.69148  -0.57553  -0.55238  -0.51125  -0.48886
 Alpha virt. eigenvalues --    0.12389   0.16093   0.19345   0.23225   0.53403
 Alpha virt. eigenvalues --    0.55581   0.56413   0.58529   0.68718   0.69421
 Alpha virt. eigenvalues --    0.77737   0.79039   0.79946   0.80070   0.83308

 Mulliken charges:
               1
     1  O   -0.521407
     2  H    0.264487
     3  H    0.253338
     4  O   -0.514280
     5  H    0.259683
     6  H    0.258180
 Sum of Mulliken charges =  -0.00000

 Dipole moment (field-independent basis, Debye):
    X=             -0.9104    Y=             -3.1331    Z=             -0.0000  Tot=              3.2627
 Quadrupole moment (field-independent basis, Debye-Ang):
   XX=             -9.2883   YY=             -7.5246   ZZ=            -14.7209
   XY=             -5.3837   XZ=              0.0000   YZ=             -0.0000

 Normal termination of Gaussian 16 at Fri Aug 26 17:43:17 2022.
