 Gaussian 16, Revision A.03,
 Gaussian 16:  ES64L-G16RevA.03 25-Dec-2016

 ------------------
 #p CCSD(T)/cc-pVTZ
 ------------------

 ------------
 H2O_H2O_3434
 ------------
 Symbolic Z-matrix:
 Charge =  0 Multiplicity = 1

                         Standard orientation:
 ---------------------------------------------------------------------
 Center     Atomic      Atomic             Coordinates (Angstroms)
 Number     Number       Type             X           Y           Z
 ---------------------------------------------------------------------
      1          8           0        0.066756    2.474931   -0.000000
      2          1           0        0.065825    1.492330   -0.000000
      3          1           0       -0.862435    2.794477   -0.000000
      4          8           0        0.066756   -2.301819    0.000000
      5          1           0        0.611886   -3.119339    0.000000
      6          1           0       -0.883369   -2.552357    0.000000
 ---------------------------------------------------------------------

 SCF Done:  E(RHF) =  -152.108947024     A.U. after   10 cycles
 E2 =    -0.5258963843D+00 EUMP2 =    -0.15263484340799D+03
 CCSD(T)
 CCSD(T)= -0.15266201434D+03

 The electronic state is 1-A'.
 Alpha  occ. eigenvalues --  -20.56472 -20.54727  -1.33762  -1.32039  -0.71170
 Alpha  occ. eigenvalues --   -0.69431  -0.57270  -0.55514  -0.50884  -0.49165
 Alpha virt. eigenvalues --    0.12573   0.15516   0.19478   0.21904   0.53394
 Alpha virt. eigenvalues --    0.55105   0.56425   0.58125   0.67097   0.69300
 Alpha virt. eigenvalues --    0.78022   0.78786   0.79678   0.80015   0.82959

 Mulliken charges:
               1
     1  O   -0.514982
     2  H    0.262382
     3  H    0.251246
     4  O   -0.514005
     5  H    0.259959
     6  H    0.255400
 Sum of Mulliken charges =  -0.00000

 Dipole moment (field-independent basis, Debye):
    X=             -2.2804    Y=             -3.0843    Z=              0.0000  Tot=              3.8357
 Quadrupole moment (field-independent basis, Debye-Ang):
   XX=             -9.5631   YY=             -7.2191   ZZ=            -14.7167
   XY=             -4.0454   XZ=              0.0000   YZ=             -0.0000

 Normal termination of Gaussian 16 at Fri Aug 26 21:40:40 2022.
