 Gaussian 16, Revision A.03,
 Gaussian 16:  ES64L-G16RevA.03 25-Dec-2016

 ------------------
 #p CCSD(T)/cc-pVTZ
 ------------------

 ------------
 H2O_H2O_2572
 ------------
 Symbolic Z-matrix:
 Charge =  0 Multiplicity = 1

                         Standard orientation:
 ---------------------------------------------------------------------
 Center     Atomic      Atomic             Coordinates (Angstroms)
 Number     Number       Type             X           Y           Z
 ---------------------------------------------------------------------
      1          8           0       -0.019887    2.122653    0.000000
      2          1           0       -0.016845    1.140056    0.000000
      3          1           0        0.908615    2.444195    0.000000
      4          8           0       -0.019887   -1.955561    0.000000
      5          1           0       -0.993680   -2.086832    0.000000
      6          1           0        0.420100   -2.834150    0.000000
 ---------------------------------------------------------------------

 SCF Done:  E(RHF) =  -152.110657864     A.U. after   10 cycles
 E2 =    -0.5260468890D+00 EUMP2 =    -0.15263670475260D+03
 CCSD(T)
 CCSD(T)= -0.15266382140D+03

 The electronic state is 1-A'.
 Alpha  occ. eigenvalues --  -20.56865 -20.54351  -1.34140  -1.31679  -0.71547
 Alpha  occ. eigenvalues --   -0.69087  -0.57720  -0.55170  -0.51272  -0.48824
 Alpha virt. eigenvalues --    0.12258   0.16328   0.19272   0.24110   0.53657
 Alpha virt. eigenvalues --    0.55516   0.56303   0.58543   0.68842   0.70391
 Alpha virt. eigenvalues --    0.77466   0.79159   0.80030   0.80825   0.83539

 Mulliken charges:
               1
     1  O   -0.523859
     2  H    0.265022
     3  H    0.253897
     4  O   -0.512821
     5  H    0.259609
     6  H    0.258152
 Sum of Mulliken charges =  -0.00000

 Dipole moment (field-independent basis, Debye):
    X=              0.6805    Y=             -3.0497    Z=              0.0000  Tot=              3.1247
 Quadrupole moment (field-independent basis, Debye-Ang):
   XX=             -9.4471   YY=             -7.8704   ZZ=            -14.7221
   XY=              5.4137   XZ=              0.0000   YZ=              0.0000

 CCSD(T)=-152.6638214\RMSD=6.660e-09\PG=CS [SG(H4O2)]\\@
 Normal termination of Gaussian 16 at Fri Aug 26 15:42:09 2022.
