 Gaussian 16, Revision A.03,
 Gaussian 16:  ES64L-G16RevA.03 25-Dec-2016

 ------------------
 #p CCSD(T)/cc-pVTZ
 ------------------

 ------------
 H2O_H2O_1585
 ------------
 Symbolic Z-matrix:
 Charge =  0 Multiplicity = 1

                         Standard orientation:
 ---------------------------------------------------------------------
 Center     Atomic      Atomic             Coordinates (Angstroms)
 Number     Number       Type             X           Y           Z
 ---------------------------------------------------------------------
      1          8           0        0.063273    1.738284   -0.000000
      2          1           0        0.061745    0.755684   -0.000000
      3          1           0       -0.865723    2.058396    0.000000
      4          8           0        0.063273   -1.562830   -0.000000
      5          1           0        0.660230   -2.343309   -0.000000
      6          1           0       -0.868621   -1.874405    0.000000
 ---------------------------------------------------------------------

 SCF Done:  E(RHF) =  -152.112952427     A.U. after   10 cycles
 E2 =    -0.5270482941D+00 EUMP2 =    -0.15264000072079D+03
 CCSD(T)
 CCSD(T)= -0.15266702217D+03

 The electronic state is 1-A'.
 Alpha  occ. eigenvalues --  -20.57833 -20.53262  -1.35114  -1.30673  -0.72498
 Alpha  occ. eigenvalues --   -0.68214  -0.58862  -0.54044  -0.52238  -0.47815
 Alpha virt. eigenvalues --    0.11970   0.17174   0.19238   0.28292   0.49894
 Alpha virt. eigenvalues --    0.55089   0.56470   0.58956   0.69446   0.72747
 Alpha virt. eigenvalues --    0.74653   0.76859   0.81249   0.83039   0.84439

 Mulliken charges:
               1
     1  O   -0.534764
     2  H    0.275335
     3  H    0.243819
     4  O   -0.502990
     5  H    0.262604
     6  H    0.255996
 Sum of Mulliken charges =  -0.00000

 Dipole moment (field-independent basis, Debye):
    X=             -2.1228    Y=             -3.4080    Z=              0.0000  Tot=              4.0151
 Quadrupole moment (field-independent basis, Debye-Ang):
   XX=             -9.4721   YY=             -8.2566   ZZ=            -14.7314
   XY=             -3.4584   XZ=              0.0000   YZ=              0.0000

 Normal termination of Gaussian 16 at Sat Aug 27 23:29:32 2022.
