 Gaussian 16, Revision A.03,
 Gaussian 16:  ES64L-G16RevA.03 25-Dec-2016

 ------------------
 #p CCSD(T)/cc-pVTZ
 ------------------

 -----------
 H2O_H2O_281
 -----------
 Symbolic Z-matrix:
 Charge =  0 Multiplicity = 1

                         Standard orientation:
 ---------------------------------------------------------------------
 Center     Atomic      Atomic             Coordinates (Angstroms)
 Number     Number       Type             X           Y           Z
 ---------------------------------------------------------------------
      1          8           0        0.076809   -1.213040    0.000000
      2          1           0        0.075594   -0.230440    0.000000
      3          1           0       -0.852290   -1.532855    0.000000
      4          8           0        0.076809    1.049927    0.000000
      5          1           0        0.451711    1.958197    0.000000
      6          1           0       -0.903955    1.110007    0.000000
 ---------------------------------------------------------------------

 SCF Done:  E(RHF) =  -152.076295616     A.U. after   11 cycles
 E2 =    -0.5348748333D+00 EUMP2 =    -0.15261117044928D+03
 CCSD(T)
 CCSD(T)= -0.15263719670D+03

 The electronic state is 1-A'.
 Alpha  occ. eigenvalues --  -20.60982 -20.47969  -1.40825  -1.26892  -0.78939
 Alpha  occ. eigenvalues --   -0.71591  -0.57325  -0.56629  -0.48560  -0.43713
 Alpha virt. eigenvalues --    0.10828   0.16392   0.20926   0.32688   0.48946
 Alpha virt. eigenvalues --    0.52305   0.59838   0.64641   0.71777   0.72548
 Alpha virt. eigenvalues --    0.76764   0.77615   0.80037   0.84311   0.84942

 Mulliken charges:
               1
     1  O   -0.610605
     2  H    0.289716
     3  H    0.206365
     4  O   -0.356146
     5  H    0.232836
     6  H    0.237834
 Sum of Mulliken charges =  -0.00000

 Dipole moment (field-independent basis, Debye):
    X=             -2.4011    Y=              4.2367    Z=              0.0000  Tot=              4.8698
 Quadrupole moment (field-independent basis, Debye-Ang):
   XX=             -9.9465   YY=             -9.6652   ZZ=            -14.6030
   XY=              2.6023   XZ=              0.0000   YZ=              0.0000

 Normal termination of Gaussian 16 at Fri Aug 26 17:08:32 2022.
