 Gaussian 16, Revision A.03,
 Gaussian 16:  ES64L-G16RevA.03 25-Dec-2016

 ------------------
 #p CCSD(T)/cc-pVTZ
 ------------------

 ------------
 H2O_H2O_1178
 ------------
 Symbolic Z-matrix:
 Charge =  0 Multiplicity = 1

                         Standard orientation:
 ---------------------------------------------------------------------
 Center     Atomic      Atomic             Coordinates (Angstroms)
 Number     Number       Type             X           Y           Z
 ---------------------------------------------------------------------
      1          8           0        0.085612   -1.564671    0.000000
      2          1           0        0.085193   -0.582069    0.000000
      3          1           0       -0.843745   -1.883733    0.000000
      4          8           0        0.085612    1.415099    0.000000
      5          1           0        0.276897    2.378902    0.000000
      6          1           0       -0.888135    1.283475    0.000000
 ---------------------------------------------------------------------

 SCF Done:  E(RHF) =  -152.109871915     A.U. after   10 cycles
 E2 =    -0.5284919738D+00 EUMP2 =    -0.15263836388859D+03
 CCSD(T)
 CCSD(T)= -0.15266535304D+03

 The electronic state is 1-A'.
 Alpha  occ. eigenvalues --  -20.58392 -20.53380  -1.35863  -1.30854  -0.73647
 Alpha  occ. eigenvalues --   -0.68340  -0.59328  -0.54094  -0.52877  -0.47945
 Alpha virt. eigenvalues --    0.11562   0.16607   0.20153   0.29940   0.48785
 Alpha virt. eigenvalues --    0.54204   0.58185   0.59168   0.68723   0.72725
 Alpha virt. eigenvalues --    0.74551   0.77443   0.81265   0.81686   0.83570

 Mulliken charges:
               1
     1  O   -0.535993
     2  H    0.281942
     3  H    0.235351
     4  O   -0.464401
     5  H    0.240531
     6  H    0.242570
 Sum of Mulliken charges =  -0.00000

 Dipole moment (field-independent basis, Debye):
    X=             -2.8355    Y=              3.0486    Z=              0.0000  Tot=              4.1635
 Quadrupole moment (field-independent basis, Debye-Ang):
   XX=            -10.4500   YY=             -8.8772   ZZ=            -14.7096
   XY=              2.5598   XZ=              0.0000   YZ=              0.0000

 CCSD(T)=-152.665353\RMSD=7.492e-09\PG=CS [SG(H4O2)]\\@
 Normal termination of Gaussian 16 at Fri Aug 26 22:55:49 2022.
