 Gaussian 16, Revision A.03,
 Gaussian 16:  ES64L-G16RevA.03 25-Dec-2016

 ------------------
 #p CCSD(T)/cc-pVTZ
 ------------------

 ------------
 H2O_H2O_2730
 ------------
 Symbolic Z-matrix:
 Charge =  0 Multiplicity = 1

                         Standard orientation:
 ---------------------------------------------------------------------
 Center     Atomic      Atomic             Coordinates (Angstroms)
 Number     Number       Type             X           Y           Z
 ---------------------------------------------------------------------
      1          8           0        0.079855    2.188081    0.000000
      2          1           0        0.079328    1.205480    0.000000
      3          1           0       -0.849467    2.507246    0.000000
      4          8           0        0.079855   -2.029026   -0.000000
      5          1           0        0.395203   -2.959650   -0.000000
      6          1           0       -0.902741   -2.025519   -0.000000
 ---------------------------------------------------------------------

 SCF Done:  E(RHF) =  -152.109290516     A.U. after   10 cycles
 E2 =    -0.5261065826D+00 EUMP2 =    -0.15263539709830D+03
 CCSD(T)
 CCSD(T)= -0.15266254325D+03

 The electronic state is 1-A'.
 Alpha  occ. eigenvalues --  -20.56795 -20.54658  -1.34076  -1.31972  -0.71499
 Alpha  occ. eigenvalues --   -0.69350  -0.57590  -0.55437  -0.51195  -0.49097
 Alpha virt. eigenvalues --    0.11952   0.15929   0.19483   0.23322   0.53897
 Alpha virt. eigenvalues --    0.55203   0.56335   0.58429   0.68678   0.69622
 Alpha virt. eigenvalues --    0.77633   0.78984   0.79768   0.80562   0.82996

 Mulliken charges:
               1
     1  O   -0.515683
     2  H    0.263623
     3  H    0.248675
     4  O   -0.509053
     5  H    0.259636
     6  H    0.252801
 Sum of Mulliken charges =  -0.00000

 Dipole moment (field-independent basis, Debye):
    X=             -2.7155    Y=             -2.8836    Z=             -0.0000  Tot=              3.9610
 Quadrupole moment (field-independent basis, Debye-Ang):
   XX=            -10.1073   YY=             -8.1016   ZZ=            -14.7172
   XY=             -3.1284   XZ=             -0.0000   YZ=             -0.0000

 CCSD(T)=-152.6625432\RMSD=6.988e-09\PG=CS [SG(H4O2)]\\@
 Normal termination of Gaussian 16 at Fri Aug 26 16:52:56 2022.
