 Gaussian 16, Revision A.03,
 Gaussian 16:  ES64L-G16RevA.03 25-Dec-2016

 ------------------
 #p CCSD(T)/cc-pVTZ
 ------------------

 ------------
 H2O_H2O_2685
 ------------
 Symbolic Z-matrix:
 Charge =  0 Multiplicity = 1

                         Standard orientation:
 ---------------------------------------------------------------------
 Center     Atomic      Atomic             Coordinates (Angstroms)
 Number     Number       Type             X           Y           Z
 ---------------------------------------------------------------------
      1          8           0        0.063244    2.177069    0.000000
      2          1           0        0.062037    1.194469    0.000000
      3          1           0       -0.865856    2.496877    0.000000
      4          8           0        0.063244   -2.001573    0.000000
      5          1           0        0.660456   -2.781859    0.000000
      6          1           0       -0.868548   -2.313454    0.000000
 ---------------------------------------------------------------------

 SCF Done:  E(RHF) =  -152.110126929     A.U. after   10 cycles
 E2 =    -0.5260621297D+00 EUMP2 =    -0.15263618905888D+03
 CCSD(T)
 CCSD(T)= -0.15266331613D+03

 The electronic state is 1-A'.
 Alpha  occ. eigenvalues --  -20.56829 -20.54348  -1.34099  -1.31672  -0.71504
 Alpha  occ. eigenvalues --   -0.69058  -0.57654  -0.55151  -0.51228  -0.48807
 Alpha virt. eigenvalues --    0.12270   0.16158   0.19402   0.23452   0.53145
 Alpha virt. eigenvalues --    0.55597   0.56151   0.58846   0.68938   0.69786
 Alpha virt. eigenvalues --    0.77591   0.79007   0.80034   0.80127   0.83348

 Mulliken charges:
               1
     1  O   -0.519477
     2  H    0.265385
     3  H    0.249584
     4  O   -0.511065
     5  H    0.260145
     6  H    0.255429
 Sum of Mulliken charges =  -0.00000

 Dipole moment (field-independent basis, Debye):
    X=             -2.1512    Y=             -3.1929    Z=             -0.0000  Tot=              3.8500
 Quadrupole moment (field-independent basis, Debye-Ang):
   XX=             -9.4601   YY=             -7.5455   ZZ=            -14.7204
   XY=             -3.9184   XZ=             -0.0000   YZ=             -0.0000

 Normal termination of Gaussian 16 at Fri Aug 26 16:33:09 2022.
