 Gaussian 16, Revision A.03,
 Gaussian 16:  ES64L-G16RevA.03 25-Dec-2016

 ------------------
 #p CCSD(T)/cc-pVTZ
 ------------------

 ------------
 H2O_H2O_4350
 ------------
 Symbolic Z-matrix:
 Charge =  0 Multiplicity = 1

                         Standard orientation:
 ---------------------------------------------------------------------
 Center     Atomic      Atomic             Coordinates (Angstroms)
 Number     Number       Type             X           Y           Z
 ---------------------------------------------------------------------
      1          8           0        0.092949   -2.821988    0.000000
      2          1           0        0.092949   -1.839386    0.000000
      3          1           0       -0.836544   -3.140654    0.000000
      4          8           0        0.092949    2.689201    0.000000
      5          1           0        0.092949    3.671802    0.000000
      6          1           0       -0.836544    2.370534    0.000000
 ---------------------------------------------------------------------

 SCF Done:  E(RHF) =  -152.107633828     A.U. after   10 cycles
 E2 =    -0.5258849018D+00 EUMP2 =    -0.15263351872999D+03
 CCSD(T)
 CCSD(T)= -0.15266073267D+03

 The electronic state is 1-A'.
 Alpha  occ. eigenvalues --  -20.56240 -20.55339  -1.33542  -1.32640  -0.70958
 Alpha  occ. eigenvalues --   -0.70036  -0.57001  -0.56091  -0.50652  -0.49752
 Alpha virt. eigenvalues --    0.12562   0.14806   0.18834   0.21890   0.53182
 Alpha virt. eigenvalues --    0.54844   0.56529   0.57707   0.66867   0.68505
 Alpha virt. eigenvalues --    0.78242   0.79122   0.79578   0.81562   0.81590

 Mulliken charges:
               1
     1  O   -0.509416
     2  H    0.257343
     3  H    0.251989
     4  O   -0.510467
     5  H    0.258381
     6  H    0.252170
 Sum of Mulliken charges =  -0.00000

 Dipole moment (field-independent basis, Debye):
    X=             -3.1862    Y=              2.3325    Z=              0.0000  Tot=              3.9487
 Quadrupole moment (field-independent basis, Debye-Ang):
   XX=            -10.8458   YY=             -9.2819   ZZ=            -14.7117
   XY=              2.1566   XZ=              0.0000   YZ=              0.0000

 Normal termination of Gaussian 16 at Sun Aug 28 02:09:00 2022.
