 Gaussian 16, Revision A.03,
 Gaussian 16:  ES64L-G16RevA.03 25-Dec-2016

 ------------------
 #p CCSD(T)/cc-pVTZ
 ------------------

 ------------
 H2O_H2O_4744
 ------------
 Symbolic Z-matrix:
 Charge =  0 Multiplicity = 1

                         Standard orientation:
 ---------------------------------------------------------------------
 Center     Atomic      Atomic             Coordinates (Angstroms)
 Number     Number       Type             X           Y           Z
 ---------------------------------------------------------------------
      1          8           0        0.030142    2.994847   -0.000000
      2          1           0        0.028310    2.012248   -0.000000
      3          1           0       -0.898755    3.315247   -0.000000
      4          8           0        0.030142   -2.819208    0.000000
      5          1           0        0.960007   -3.136790    0.000000
      6          1           0       -0.571838   -3.595819    0.000000
 ---------------------------------------------------------------------

 SCF Done:  E(RHF) =  -152.108366930     A.U. after   10 cycles
 E2 =    -0.5257997742D+00 EUMP2 =    -0.15263416670379D+03
 CCSD(T)
 CCSD(T)= -0.15266136646D+03

 The electronic state is 1-A'.
 Alpha  occ. eigenvalues --  -20.56141 -20.55019  -1.33443  -1.32325  -0.70848
 Alpha  occ. eigenvalues --   -0.69730  -0.56934  -0.55797  -0.50562  -0.49449
 Alpha virt. eigenvalues --    0.13453   0.14833   0.19685   0.20984   0.53659
 Alpha virt. eigenvalues --    0.54830   0.56703   0.57776   0.66964   0.68585
 Alpha virt. eigenvalues --    0.78322   0.79410   0.79672   0.80482   0.82374

 Mulliken charges:
               1
     1  O   -0.513900
     2  H    0.259698
     3  H    0.254139
     4  O   -0.514478
     5  H    0.257451
     6  H    0.257090
 Sum of Mulliken charges =  -0.00000

 Dipole moment (field-independent basis, Debye):
    X=             -1.0349    Y=             -3.0766    Z=              0.0000  Tot=              3.2460
 Quadrupole moment (field-independent basis, Debye-Ang):
   XX=             -9.2307   YY=             -6.3422   ZZ=            -14.7146
   XY=             -6.8812   XZ=              0.0000   YZ=             -0.0000

 Normal termination of Gaussian 16 at Sun Aug 28 05:31:57 2022.
