 Gaussian 16, Revision A.03,
 Gaussian 16:  ES64L-G16RevA.03 25-Dec-2016

 ------------------
 #p CCSD(T)/cc-pVTZ
 ------------------

 ------------
 H2O_H2O_2997
 ------------
 Symbolic Z-matrix:
 Charge =  0 Multiplicity = 1

                         Standard orientation:
 ---------------------------------------------------------------------
 Center     Atomic      Atomic             Coordinates (Angstroms)
 Number     Number       Type             X           Y           Z
 ---------------------------------------------------------------------
      1          8           0       -0.019867    2.292179    0.000000
      2          1           0       -0.017059    1.309582    0.000000
      3          1           0        0.908712    2.613501    0.000000
      4          8           0       -0.019867   -2.125079    0.000000
      5          1           0       -0.993692   -2.256118    0.000000
      6          1           0        0.419910   -3.003773    0.000000
 ---------------------------------------------------------------------

 SCF Done:  E(RHF) =  -152.109863191     A.U. after   10 cycles
 E2 =    -0.5259218262D+00 EUMP2 =    -0.15263578501761D+03
 CCSD(T)
 CCSD(T)= -0.15266292923D+03

 The electronic state is 1-A'.
 Alpha  occ. eigenvalues --  -20.56631 -20.54578  -1.33916  -1.31897  -0.71321
 Alpha  occ. eigenvalues --   -0.69303  -0.57459  -0.55388  -0.51044  -0.49035
 Alpha virt. eigenvalues --    0.12351   0.15928   0.19301   0.22994   0.53605
 Alpha virt. eigenvalues --    0.55551   0.56429   0.58311   0.68152   0.69362
 Alpha virt. eigenvalues --    0.77841   0.78845   0.79800   0.80373   0.83169

 Mulliken charges:
               1
     1  O   -0.520190
     2  H    0.263286
     3  H    0.254230
     4  O   -0.514991
     5  H    0.258980
     6  H    0.258686
 Sum of Mulliken charges =  -0.00000

 Dipole moment (field-independent basis, Debye):
    X=              0.6805    Y=             -3.0064    Z=              0.0000  Tot=              3.0825
 Quadrupole moment (field-independent basis, Debye-Ang):
   XX=             -9.4467   YY=             -7.6731   ZZ=            -14.7197
   XY=              5.8413   XZ=              0.0000   YZ=              0.0000

 Normal termination of Gaussian 16 at Fri Aug 26 19:08:55 2022.
