 Gaussian 16, Revision A.03,
 Gaussian 16:  ES64L-G16RevA.03 25-Dec-2016

 ------------------
 #p CCSD(T)/cc-pVTZ
 ------------------

 ------------
 H2O_H2O_1282
 ------------
 Symbolic Z-matrix:
 Charge =  0 Multiplicity = 1

                         Standard orientation:
 ---------------------------------------------------------------------
 Center     Atomic      Atomic             Coordinates (Angstroms)
 Number     Number       Type             X           Y           Z
 ---------------------------------------------------------------------
      1          8           0        0.073565    1.613967    0.000000
      2          1           0        0.072489    0.631366    0.000000
      3          1           0       -0.855578    1.933652    0.000000
      4          8           0        0.073565   -1.447078    0.000000
      5          1           0        0.507193   -2.328822    0.000000
      6          1           0       -0.901151   -1.571310    0.000000
 ---------------------------------------------------------------------

 SCF Done:  E(RHF) =  -152.112293801     A.U. after   10 cycles
 E2 =    -0.5278720725D+00 EUMP2 =    -0.15264016587305D+03
 CCSD(T)
 CCSD(T)= -0.15266714146D+03

 The electronic state is 1-A'.
 Alpha  occ. eigenvalues --  -20.58262 -20.52974  -1.35637  -1.30452  -0.73108
 Alpha  occ. eigenvalues --   -0.68168  -0.59286  -0.53711  -0.52716  -0.47571
 Alpha virt. eigenvalues --    0.11752   0.17021   0.19564   0.29829   0.48906
 Alpha virt. eigenvalues --    0.54906   0.57772   0.58802   0.69724   0.73393
 Alpha virt. eigenvalues --    0.74119   0.76535   0.81653   0.82394   0.84226

 Mulliken charges:
               1
     1  O   -0.541056
     2  H    0.283049
     3  H    0.238796
     4  O   -0.485612
     5  H    0.252978
     6  H    0.251845
 Sum of Mulliken charges =  -0.00000

 Dipole moment (field-independent basis, Debye):
    X=             -2.4471    Y=             -3.3527    Z=             -0.0000  Tot=              4.1508
 Quadrupole moment (field-independent basis, Debye-Ang):
   XX=             -9.8433   YY=             -8.5843   ZZ=            -14.7243
   XY=             -3.0641   XZ=             -0.0000   YZ=             -0.0000

 CCSD(T)=-152.6671415\RMSD=7.165e-09\PG=CS [SG(H4O2)]\\@
 Normal termination of Gaussian 16 at Fri Aug 26 23:35:18 2022.
