 Gaussian 16, Revision A.03,
 Gaussian 16:  ES64L-G16RevA.03 25-Dec-2016

 ------------------
 #p CCSD(T)/cc-pVTZ
 ------------------

 ------------
 H2O_H2O_4835
 ------------
 Symbolic Z-matrix:
 Charge =  0 Multiplicity = 1

                         Standard orientation:
 ---------------------------------------------------------------------
 Center     Atomic      Atomic             Coordinates (Angstroms)
 Number     Number       Type             X           Y           Z
 ---------------------------------------------------------------------
      1          8           0        0.063213    3.034678   -0.000000
      2          1           0        0.062357    2.052077   -0.000000
      3          1           0       -0.866002    3.354154   -0.000000
      4          8           0        0.063213   -2.859137    0.000000
      5          1           0        0.660704   -3.639207    0.000000
      6          1           0       -0.868468   -3.171350    0.000000
 ---------------------------------------------------------------------

 SCF Done:  E(RHF) =  -152.108145147     A.U. after   10 cycles
 E2 =    -0.5258201805D+00 EUMP2 =    -0.15263396532757D+03
 CCSD(T)
 CCSD(T)= -0.15266116956D+03

 The electronic state is 1-A'.
 Alpha  occ. eigenvalues --  -20.56136 -20.55053  -1.33438  -1.32359  -0.70844
 Alpha  occ. eigenvalues --   -0.69759  -0.56919  -0.55823  -0.50554  -0.49478
 Alpha virt. eigenvalues --    0.13462   0.14762   0.19678   0.20917   0.53670
 Alpha virt. eigenvalues --    0.54803   0.56689   0.57743   0.67025   0.68532
 Alpha virt. eigenvalues --    0.78330   0.79383   0.79692   0.80532   0.82257

 Mulliken charges:
               1
     1  O   -0.512487
     2  H    0.259466
     3  H    0.252975
     4  O   -0.513271
     5  H    0.257998
     6  H    0.255319
 Sum of Mulliken charges =  -0.00000

 Dipole moment (field-independent basis, Debye):
    X=             -2.1695    Y=             -3.0736    Z=              0.0000  Tot=              3.7621
 Quadrupole moment (field-independent basis, Debye-Ang):
   XX=             -9.4534   YY=             -6.3044   ZZ=            -14.7139
   XY=             -4.8052   XZ=              0.0000   YZ=             -0.0000

 Normal termination of Gaussian 16 at Sun Aug 28 06:16:10 2022.
