 Gaussian 16, Revision A.03,
 Gaussian 16:  ES64L-G16RevA.03 25-Dec-2016

 ------------------
 #p CCSD(T)/cc-pVTZ
 ------------------

 ------------
 H2O_H2O_3246
 ------------
 Symbolic Z-matrix:
 Charge =  0 Multiplicity = 1

                         Standard orientation:
 ---------------------------------------------------------------------
 Center     Atomic      Atomic             Coordinates (Angstroms)
 Number     Number       Type             X           Y           Z
 ---------------------------------------------------------------------
      1          8           0       -0.023205    2.393683    0.000000
      2          1           0       -0.020641    1.411085    0.000000
      3          1           0        0.905453    2.714774    0.000000
      4          8           0       -0.023205   -2.223294    0.000000
      5          1           0       -0.986423   -2.417505    0.000000
      6          1           0        0.472889   -3.071467    0.000000
 ---------------------------------------------------------------------

 SCF Done:  E(RHF) =  -152.109544731     A.U. after   10 cycles
 E2 =    -0.5258767429D+00 EUMP2 =    -0.15263542147356D+03
 CCSD(T)
 CCSD(T)= -0.15266257760D+03

 The electronic state is 1-A'.
 Alpha  occ. eigenvalues --  -20.56525 -20.54645  -1.33813  -1.31962  -0.71217
 Alpha  occ. eigenvalues --   -0.69366  -0.57345  -0.55451  -0.50940  -0.49097
 Alpha virt. eigenvalues --    0.12503   0.15729   0.19362   0.22428   0.53417
 Alpha virt. eigenvalues --    0.55418   0.56488   0.58149   0.67488   0.69340
 Alpha virt. eigenvalues --    0.77961   0.78752   0.79738   0.80216   0.83074

 Mulliken charges:
               1
     1  O   -0.518650
     2  H    0.262737
     3  H    0.254047
     4  O   -0.515739
     5  H    0.258942
     6  H    0.258663
 Sum of Mulliken charges =  -0.00000

 Dipole moment (field-independent basis, Debye):
    X=              0.7943    Y=             -3.0469    Z=              0.0000  Tot=              3.1488
 Quadrupole moment (field-independent basis, Debye-Ang):
   XX=             -9.3612   YY=             -7.4221   ZZ=            -14.7187
   XY=              5.9186   XZ=              0.0000   YZ=              0.0000

 Normal termination of Gaussian 16 at Fri Aug 26 20:36:53 2022.
