 Gaussian 16, Revision A.03,
 Gaussian 16:  ES64L-G16RevA.03 25-Dec-2016

 ------------------
 #p CCSD(T)/cc-pVTZ
 ------------------

 ------------
 H2O_H2O_2102
 ------------
 Symbolic Z-matrix:
 Charge =  0 Multiplicity = 1

                         Standard orientation:
 ---------------------------------------------------------------------
 Center     Atomic      Atomic             Coordinates (Angstroms)
 Number     Number       Type             X           Y           Z
 ---------------------------------------------------------------------
      1          8           0        0.088234   -1.930775    0.000000
      2          1           0        0.088019   -0.948173    0.000000
      3          1           0       -0.841189   -2.249645    0.000000
      4          8           0        0.088234    1.786462    0.000000
      5          1           0        0.216276    2.760686    0.000000
      6          1           0       -0.874858    1.591634    0.000000
 ---------------------------------------------------------------------

 SCF Done:  E(RHF) =  -152.109458542     A.U. after   10 cycles
 E2 =    -0.5265670071D+00 EUMP2 =    -0.15263602554884D+03
 CCSD(T)
 CCSD(T)= -0.15266314867D+03

 The electronic state is 1-A'.
 Alpha  occ. eigenvalues --  -20.57226 -20.54635  -1.34514  -1.31951  -0.72001
 Alpha  occ. eigenvalues --   -0.69295  -0.58034  -0.55387  -0.51618  -0.49069
 Alpha virt. eigenvalues --    0.11601   0.16171   0.19921   0.25209   0.52312
 Alpha virt. eigenvalues --    0.55741   0.56752   0.57564   0.68442   0.73175
 Alpha virt. eigenvalues --    0.76444   0.79053   0.79974   0.81684   0.83193

 Mulliken charges:
               1
     1  O   -0.516533
     2  H    0.265629
     3  H    0.245191
     4  O   -0.501354
     5  H    0.258691
     6  H    0.248377
 Sum of Mulliken charges =  -0.00000

 Dipole moment (field-independent basis, Debye):
    X=             -2.9795    Y=              2.6835    Z=              0.0000  Tot=              4.0098
 Quadrupole moment (field-independent basis, Debye-Ang):
   XX=            -10.5816   YY=             -8.7648   ZZ=            -14.7169
   XY=              2.5088   XZ=              0.0000   YZ=              0.0000

 Normal termination of Gaussian 16 at Sun Aug 28 04:19:54 2022.
