 Gaussian 16, Revision A.03,
 Gaussian 16:  ES64L-G16RevA.03 25-Dec-2016

 ------------------
 #p CCSD(T)/cc-pVTZ
 ------------------

 ------------
 H2O_H2O_1249
 ------------
 Symbolic Z-matrix:
 Charge =  0 Multiplicity = 1

                         Standard orientation:
 ---------------------------------------------------------------------
 Center     Atomic      Atomic             Coordinates (Angstroms)
 Number     Number       Type             X           Y           Z
 ---------------------------------------------------------------------
      1          8           0        0.013640   -1.589872    0.000000
      2          1           0        0.009177   -0.607280    0.000000
      3          1           0       -0.914397   -1.912756    0.000000
      4          8           0        0.013640    1.430651    0.000000
      5          1           0        0.996232    1.435113    0.000000
      6          1           0       -0.309245    2.358687    0.000000
 ---------------------------------------------------------------------

 SCF Done:  E(RHF) =  -152.112884435     A.U. after   10 cycles
 E2 =    -0.5277579843D+00 EUMP2 =    -0.15264064241973D+03
 CCSD(T)
 CCSD(T)= -0.15266760696D+03

 The electronic state is 1-A'.
 Alpha  occ. eigenvalues --  -20.58240 -20.52874  -1.35662  -1.30389  -0.73260
 Alpha  occ. eigenvalues --   -0.68047  -0.59466  -0.53599  -0.52733  -0.47531
 Alpha virt. eigenvalues --    0.12103   0.17785   0.19132   0.30485   0.49917
 Alpha virt. eigenvalues --    0.54660   0.55482   0.61905   0.68594   0.73161
 Alpha virt. eigenvalues --    0.74447   0.76655   0.81693   0.82172   0.84279

 Mulliken charges:
               1
     1  O   -0.554959
     2  H    0.280363
     3  H    0.253059
     4  O   -0.484411
     5  H    0.261957
     6  H    0.243991
 Sum of Mulliken charges =  -0.00000

 Dipole moment (field-independent basis, Debye):
    X=             -0.4694    Y=              3.2253    Z=              0.0000  Tot=              3.2593
 Quadrupole moment (field-independent basis, Debye-Ang):
   XX=             -9.6441   YY=             -8.7140   ZZ=            -14.7243
   XY=              4.2673   XZ=              0.0000   YZ=              0.0000

 CCSD(T)=-152.667607\RMSD=6.266e-09\PG=CS [SG(H4O2)]\\@
 Normal termination of Gaussian 16 at Fri Aug 26 23:23:02 2022.
