 Gaussian 16, Revision A.03,
 Gaussian 16:  ES64L-G16RevA.03 25-Dec-2016

 ------------------
 #p CCSD(T)/cc-pVTZ
 ------------------

 -----------
 H2O_H2O_845
 -----------
 Symbolic Z-matrix:
 Charge =  0 Multiplicity = 1

                         Standard orientation:
 ---------------------------------------------------------------------
 Center     Atomic      Atomic             Coordinates (Angstroms)
 Number     Number       Type             X           Y           Z
 ---------------------------------------------------------------------
      1          8           0        0.026805    1.437878   -0.000000
      2          1           0        0.022641    0.455285   -0.000000
      3          1           0       -0.901330    1.760480   -0.000000
      4          8           0        0.026805   -1.264744    0.000000
      5          1           0        0.974839   -1.523078    0.000000
      6          1           0       -0.525024   -2.077756    0.000000
 ---------------------------------------------------------------------

 SCF Done:  E(RHF) =  -152.111122414     A.U. after   10 cycles
 E2 =    -0.5293790633D+00 EUMP2 =    -0.15264050147759D+03
 CCSD(T)
 CCSD(T)= -0.15266724185D+03

 The electronic state is 1-A'.
 Alpha  occ. eigenvalues --  -20.59154 -20.51005  -1.36880  -1.28866  -0.74224
 Alpha  occ. eigenvalues --   -0.68334  -0.59846  -0.53841  -0.51640  -0.45953
 Alpha virt. eigenvalues --    0.11803   0.18403   0.18849   0.32848   0.48253
 Alpha virt. eigenvalues --    0.54438   0.57034   0.64375   0.68258   0.72450
 Alpha virt. eigenvalues --    0.72981   0.77332   0.81384   0.83174   0.84294

 Mulliken charges:
               1
     1  O   -0.584712
     2  H    0.299755
     3  H    0.243584
     4  O   -0.469256
     5  H    0.263328
     6  H    0.247301
 Sum of Mulliken charges =  -0.00000

 Dipole moment (field-independent basis, Debye):
    X=             -0.8850    Y=             -3.7830    Z=              0.0000  Tot=              3.8851
 Quadrupole moment (field-independent basis, Debye-Ang):
   XX=             -9.2710   YY=             -8.9644   ZZ=            -14.7115
   XY=             -3.5220   XZ=              0.0000   YZ=             -0.0000

 Normal termination of Gaussian 16 at Fri Aug 26 20:51:58 2022.
