 Gaussian 16, Revision A.03,
 Gaussian 16:  ES64L-G16RevA.03 25-Dec-2016

 ------------------
 #p CCSD(T)/cc-pVTZ
 ------------------

 ------------
 H2O_H2O_3559
 ------------
 Symbolic Z-matrix:
 Charge =  0 Multiplicity = 1

                         Standard orientation:
 ---------------------------------------------------------------------
 Center     Atomic      Atomic             Coordinates (Angstroms)
 Number     Number       Type             X           Y           Z
 ---------------------------------------------------------------------
      1          8           0        0.066754    2.524792   -0.000000
      2          1           0        0.065842    1.542191   -0.000000
      3          1           0       -0.862443    2.844320   -0.000000
      4          8           0        0.066754   -2.351678    0.000000
      5          1           0        0.611901   -3.169187    0.000000
      6          1           0       -0.883366   -2.602233    0.000000
 ---------------------------------------------------------------------

 SCF Done:  E(RHF) =  -152.108826001     A.U. after   10 cycles
 E2 =    -0.5258805903D+00 EUMP2 =    -0.15263470659132D+03
 CCSD(T)
 CCSD(T)= -0.15266188268D+03

 The electronic state is 1-A'.
 Alpha  occ. eigenvalues --  -20.56428 -20.54769  -1.33720  -1.32081  -0.71128
 Alpha  occ. eigenvalues --   -0.69473  -0.57224  -0.55554  -0.50841  -0.49206
 Alpha virt. eigenvalues --    0.12654   0.15426   0.19488   0.21750   0.53378
 Alpha virt. eigenvalues --    0.55066   0.56457   0.58035   0.66923   0.69264
 Alpha virt. eigenvalues --    0.78063   0.78819   0.79640   0.80064   0.82921

 Mulliken charges:
               1
     1  O   -0.514600
     2  H    0.262057
     3  H    0.251469
     4  O   -0.514202
     5  H    0.259852
     6  H    0.255423
 Sum of Mulliken charges =   0.00000

 Dipole moment (field-independent basis, Debye):
    X=             -2.2817    Y=             -3.0768    Z=              0.0000  Tot=              3.8305
 Quadrupole moment (field-independent basis, Debye-Ang):
   XX=             -9.5626   YY=             -7.1522   ZZ=            -14.7163
   XY=             -4.0909   XZ=              0.0000   YZ=             -0.0000

 Normal termination of Gaussian 16 at Fri Aug 26 22:23:13 2022.
