 Gaussian 16, Revision A.03,
 Gaussian 16:  ES64L-G16RevA.03 25-Dec-2016

 ------------------
 #p CCSD(T)/cc-pVTZ
 ------------------

 -----------
 H2O_H2O_343
 -----------
 Symbolic Z-matrix:
 Charge =  0 Multiplicity = 1

                         Standard orientation:
 ---------------------------------------------------------------------
 Center     Atomic      Atomic             Coordinates (Angstroms)
 Number     Number       Type             X           Y           Z
 ---------------------------------------------------------------------
      1          8           0        0.033984    1.240744   -0.000000
      2          1           0        0.029625    0.258152   -0.000000
      3          1           0       -0.894087    1.563530   -0.000000
      4          8           0        0.033984   -1.063369    0.000000
      5          1           0        0.940113   -1.443417    0.000000
      6          1           0       -0.619390   -1.797270    0.000000
 ---------------------------------------------------------------------

 SCF Done:  E(RHF) =  -152.087017229     A.U. after   11 cycles
 E2 =    -0.5330818663D+00 EUMP2 =    -0.15262009909523D+03
 CCSD(T)
 CCSD(T)= -0.15264619230D+03

 The electronic state is 1-A'.
 Alpha  occ. eigenvalues --  -20.60809 -20.47263  -1.40100  -1.26280  -0.76760
 Alpha  occ. eigenvalues --   -0.72843  -0.57503  -0.56320  -0.47697  -0.43111
 Alpha virt. eigenvalues --    0.11043   0.17447   0.20176   0.33788   0.47007
 Alpha virt. eigenvalues --    0.53084   0.60896   0.67396   0.69761   0.72013
 Alpha virt. eigenvalues --    0.76761   0.78648   0.79828   0.83165   0.83886

 Mulliken charges:
               1
     1  O   -0.638213
     2  H    0.304624
     3  H    0.224899
     4  O   -0.394885
     5  H    0.260984
     6  H    0.242590
 Sum of Mulliken charges =  -0.00000

 Dipole moment (field-independent basis, Debye):
    X=             -1.0707    Y=             -4.5058    Z=              0.0000  Tot=              4.6313
 Quadrupole moment (field-independent basis, Debye-Ang):
   XX=             -9.1353   YY=             -9.6942   ZZ=            -14.6390
   XY=             -2.9592   XZ=              0.0000   YZ=             -0.0000

 Normal termination of Gaussian 16 at Fri Aug 26 17:34:24 2022.
