 Gaussian 16, Revision A.03,
 Gaussian 16:  ES64L-G16RevA.03 25-Dec-2016

 ------------------
 #p CCSD(T)/cc-pVTZ
 ------------------

 ------------
 H2O_H2O_4121
 ------------
 Symbolic Z-matrix:
 Charge =  0 Multiplicity = 1

                         Standard orientation:
 ---------------------------------------------------------------------
 Center     Atomic      Atomic             Coordinates (Angstroms)
 Number     Number       Type             X           Y           Z
 ---------------------------------------------------------------------
      1          8           0       -0.023176    2.742708    0.000000
      2          1           0       -0.020949    1.760109    0.000000
      3          1           0        0.905593    3.063480    0.000000
      4          8           0       -0.023176   -2.572303    0.000000
      5          1           0       -0.986461   -2.766183    0.000000
      6          1           0        0.472627   -3.420646    0.000000
 ---------------------------------------------------------------------

 SCF Done:  E(RHF) =  -152.108692241     A.U. after   10 cycles
 E2 =    -0.5258051985D+00 EUMP2 =    -0.15263449743934D+03
 CCSD(T)
 CCSD(T)= -0.15266168635D+03

 The electronic state is 1-A'.
 Alpha  occ. eigenvalues --  -20.56256 -20.54922  -1.33556  -1.32232  -0.70961
 Alpha  occ. eigenvalues --   -0.69637  -0.57059  -0.55709  -0.50677  -0.49358
 Alpha virt. eigenvalues --    0.13061   0.15119   0.19485   0.21410   0.53392
 Alpha virt. eigenvalues --    0.55017   0.56627   0.57828   0.66692   0.68953
 Alpha virt. eigenvalues --    0.78213   0.79197   0.79493   0.80420   0.82768

 Mulliken charges:
               1
     1  O   -0.515338
     2  H    0.260641
     3  H    0.254380
     4  O   -0.515727
     5  H    0.257887
     6  H    0.258157
 Sum of Mulliken charges =  -0.00000

 Dipole moment (field-independent basis, Debye):
    X=              0.7952    Y=             -3.0018    Z=              0.0000  Tot=              3.1054
 Quadrupole moment (field-independent basis, Debye-Ang):
   XX=             -9.3617   YY=             -6.9837   ZZ=            -14.7157
   XY=              6.7588   XZ=              0.0000   YZ=              0.0000

 Normal termination of Gaussian 16 at Sat Aug 27 23:54:49 2022.
