 Gaussian 16, Revision A.03,
 Gaussian 16:  ES64L-G16RevA.03 25-Dec-2016

 ------------------
 #p CCSD(T)/cc-pVTZ
 ------------------

 ------------
 H2O_H2O_3297
 ------------
 Symbolic Z-matrix:
 Charge =  0 Multiplicity = 1

                         Standard orientation:
 ---------------------------------------------------------------------
 Center     Atomic      Atomic             Coordinates (Angstroms)
 Number     Number       Type             X           Y           Z
 ---------------------------------------------------------------------
      1          8           0       -0.019855    2.411845    0.000000
      2          1           0       -0.017191    1.429247    0.000000
      3          1           0        0.908771    2.733030    0.000000
      4          8           0       -0.019855   -2.244738    0.000000
      5          1           0       -0.993699   -2.375634    0.000000
      6          1           0        0.419793   -3.123497    0.000000
 ---------------------------------------------------------------------

 SCF Done:  E(RHF) =  -152.109437913     A.U. after   10 cycles
 E2 =    -0.5258692502D+00 EUMP2 =    -0.15263530716340D+03
 CCSD(T)
 CCSD(T)= -0.15266246717D+03

 The electronic state is 1-A'.
 Alpha  occ. eigenvalues --  -20.56502 -20.54702  -1.33793  -1.32018  -0.71198
 Alpha  occ. eigenvalues --   -0.69424  -0.57320  -0.55506  -0.50918  -0.49152
 Alpha virt. eigenvalues --    0.12476   0.15677   0.19316   0.22425   0.53427
 Alpha virt. eigenvalues --    0.55419   0.56502   0.58088   0.67351   0.69323
 Alpha virt. eigenvalues --    0.77983   0.78706   0.79685   0.80412   0.83028

 Mulliken charges:
               1
     1  O   -0.518312
     2  H    0.262268
     3  H    0.254395
     4  O   -0.515815
     5  H    0.258612
     6  H    0.258853
 Sum of Mulliken charges =  -0.00000

 Dipole moment (field-independent basis, Debye):
    X=              0.6806    Y=             -2.9839    Z=              0.0000  Tot=              3.0605
 Quadrupole moment (field-independent basis, Debye-Ang):
   XX=             -9.4466   YY=             -7.5367   ZZ=            -14.7183
   XY=              6.1431   XZ=              0.0000   YZ=              0.0000

 Normal termination of Gaussian 16 at Fri Aug 26 20:53:50 2022.
