 Gaussian 16, Revision A.03,
 Gaussian 16:  ES64L-G16RevA.03 25-Dec-2016

 ------------------
 #p CCSD(T)/cc-pVTZ
 ------------------

 -----------
 H2O_H2O_716
 -----------
 Symbolic Z-matrix:
 Charge =  0 Multiplicity = 1

                         Standard orientation:
 ---------------------------------------------------------------------
 Center     Atomic      Atomic             Coordinates (Angstroms)
 Number     Number       Type             X           Y           Z
 ---------------------------------------------------------------------
      1          8           0        0.041272    1.391638   -0.000000
      2          1           0        0.037894    0.409042   -0.000000
      3          1           0       -0.887120    1.713498   -0.000000
      4          8           0        0.041272   -1.211834    0.000000
      5          1           0        0.890536   -1.706057    0.000000
      6          1           0       -0.701663   -1.854915    0.000000
 ---------------------------------------------------------------------

 SCF Done:  E(RHF) =  -152.108942505     A.U. after   10 cycles
 E2 =    -0.5301181294D+00 EUMP2 =    -0.15263906063464D+03
 CCSD(T)
 CCSD(T)= -0.15266568129D+03

 The electronic state is 1-A'.
 Alpha  occ. eigenvalues --  -20.59557 -20.50126  -1.37460  -1.28191  -0.74422
 Alpha  occ. eigenvalues --   -0.69322  -0.59421  -0.54354  -0.50749  -0.45230
 Alpha virt. eigenvalues --    0.11576   0.18023   0.19281   0.33231   0.47739
 Alpha virt. eigenvalues --    0.54170   0.58804   0.63276   0.69241   0.72389
 Alpha virt. eigenvalues --    0.72401   0.78107   0.81703   0.82977   0.84375

 Mulliken charges:
               1
     1  O   -0.595270
     2  H    0.310104
     3  H    0.235265
     4  O   -0.467618
     5  H    0.264086
     6  H    0.253432
 Sum of Mulliken charges =  -0.00000

 Dipole moment (field-independent basis, Debye):
    X=             -1.3419    Y=             -4.0466    Z=              0.0000  Tot=              4.2633
 Quadrupole moment (field-independent basis, Debye-Ang):
   XX=             -9.1327   YY=             -9.1273   ZZ=            -14.7037
   XY=             -3.2471   XZ=              0.0000   YZ=             -0.0000

 Normal termination of Gaussian 16 at Fri Aug 26 20:04:01 2022.
