 Gaussian 16, Revision A.03,
 Gaussian 16:  ES64L-G16RevA.03 25-Dec-2016

 ------------------
 #p CCSD(T)/cc-pVTZ
 ------------------

 ------------
 H2O_H2O_1273
 ------------
 Symbolic Z-matrix:
 Charge =  0 Multiplicity = 1

                         Standard orientation:
 ---------------------------------------------------------------------
 Center     Atomic      Atomic             Coordinates (Angstroms)
 Number     Number       Type             X           Y           Z
 ---------------------------------------------------------------------
      1          8           0       -0.016743    1.602082    0.000000
      2          1           0       -0.012483    0.619489    0.000000
      3          1           0        0.911360    1.924774    0.000000
      4          8           0       -0.016743   -1.438739    0.000000
      5          1           0       -0.996953   -1.507255    0.000000
      6          1           0        0.365960   -2.343750    0.000000
 ---------------------------------------------------------------------

 SCF Done:  E(RHF) =  -152.113263623     A.U. after   10 cycles
 E2 =    -0.5276629912D+00 EUMP2 =    -0.15264092661391D+03
 CCSD(T)
 CCSD(T)= -0.15266788989D+03

 The electronic state is 1-A'.
 Alpha  occ. eigenvalues --  -20.58218 -20.52812  -1.35617  -1.30322  -0.73141
 Alpha  occ. eigenvalues --   -0.68032  -0.59431  -0.53547  -0.52700  -0.47467
 Alpha virt. eigenvalues --    0.12101   0.17836   0.19045   0.30343   0.49938
 Alpha virt. eigenvalues --    0.54589   0.55629   0.61733   0.68670   0.73304
 Alpha virt. eigenvalues --    0.74100   0.76800   0.81746   0.82343   0.84313

 Mulliken charges:
               1
     1  O   -0.554172
     2  H    0.280802
     3  H    0.252060
     4  O   -0.488642
     5  H    0.263036
     6  H    0.246917
 Sum of Mulliken charges =  -0.00000

 Dipole moment (field-independent basis, Debye):
    X=              0.5702    Y=             -3.2970    Z=              0.0000  Tot=              3.3460
 Quadrupole moment (field-independent basis, Debye-Ang):
   XX=             -9.5396   YY=             -8.6452   ZZ=            -14.7270
   XY=              4.1899   XZ=              0.0000   YZ=              0.0000

 CCSD(T)=-152.6678899\RMSD=6.316e-09\PG=CS [SG(H4O2)]\\@
 Normal termination of Gaussian 16 at Fri Aug 26 23:31:55 2022.
