 Gaussian 16, Revision A.03,
 Gaussian 16:  ES64L-G16RevA.03 25-Dec-2016

 ------------------
 #p CCSD(T)/cc-pVTZ
 ------------------

 ------------
 H2O_H2O_3045
 ------------
 Symbolic Z-matrix:
 Charge =  0 Multiplicity = 1

                         Standard orientation:
 ---------------------------------------------------------------------
 Center     Atomic      Atomic             Coordinates (Angstroms)
 Number     Number       Type             X           Y           Z
 ---------------------------------------------------------------------
      1          8           0        0.026660    2.315447    0.000000
      2          1           0        0.024136    1.332849    0.000000
      3          1           0       -0.902011    2.636501    0.000000
      4          8           0        0.026660   -2.142224   -0.000000
      5          1           0        0.975124   -2.398977   -0.000000
      6          1           0       -0.523812   -2.956156   -0.000000
 ---------------------------------------------------------------------

 SCF Done:  E(RHF) =  -152.109872396     A.U. after   10 cycles
 E2 =    -0.5259123809D+00 EUMP2 =    -0.15263578477667D+03
 CCSD(T)
 CCSD(T)= -0.15266292894D+03

 The electronic state is 1-A'.
 Alpha  occ. eigenvalues --  -20.56616 -20.54523  -1.33899  -1.31844  -0.71301
 Alpha  occ. eigenvalues --   -0.69246  -0.57443  -0.55334  -0.51028  -0.48981
 Alpha virt. eigenvalues --    0.12457   0.15910   0.19376   0.22753   0.53409
 Alpha virt. eigenvalues --    0.55503   0.56444   0.58356   0.68078   0.69349
 Alpha virt. eigenvalues --    0.77865   0.78891   0.79850   0.80001   0.83189

 Mulliken charges:
               1
     1  O   -0.519903
     2  H    0.263697
     3  H    0.253552
     4  O   -0.515141
     5  H    0.259421
     6  H    0.258374
 Sum of Mulliken charges =  -0.00000

 Dipole moment (field-independent basis, Debye):
    X=             -0.9109    Y=             -3.1144    Z=             -0.0000  Tot=              3.2449
 Quadrupole moment (field-independent basis, Debye-Ang):
   XX=             -9.2883   YY=             -7.4150   ZZ=            -14.7198
   XY=             -5.5665   XZ=             -0.0000   YZ=             -0.0000

 Normal termination of Gaussian 16 at Fri Aug 26 19:27:50 2022.
