 Gaussian 16, Revision A.03,
 Gaussian 16:  ES64L-G16RevA.03 25-Dec-2016

 ------------------
 #p CCSD(T)/cc-pVTZ
 ------------------

 ------------
 H2O_H2O_4507
 ------------
 Symbolic Z-matrix:
 Charge =  0 Multiplicity = 1

                         Standard orientation:
 ---------------------------------------------------------------------
 Center     Atomic      Atomic             Coordinates (Angstroms)
 Number     Number       Type             X           Y           Z
 ---------------------------------------------------------------------
      1          8           0        0.073524    2.900383    0.000000
      2          1           0        0.072939    1.917782    0.000000
      3          1           0       -0.855779    3.219603    0.000000
      4          8           0        0.073524   -2.733420    0.000000
      5          1           0        0.507593   -3.614947    0.000000
      6          1           0       -0.901131   -2.858140    0.000000
 ---------------------------------------------------------------------

 SCF Done:  E(RHF) =  -152.108113702     A.U. after   10 cycles
 E2 =    -0.5258360134D+00 EUMP2 =    -0.15263394971560D+03
 CCSD(T)
 CCSD(T)= -0.15266115318D+03

 The electronic state is 1-A'.
 Alpha  occ. eigenvalues --  -20.56194 -20.55066  -1.33496  -1.32371  -0.70904
 Alpha  occ. eigenvalues --   -0.69769  -0.56975  -0.55834  -0.50611  -0.49490
 Alpha virt. eigenvalues --    0.13219   0.14843   0.19503   0.21109   0.53486
 Alpha virt. eigenvalues --    0.54865   0.56621   0.57758   0.66870   0.68663
 Alpha virt. eigenvalues --    0.78277   0.79372   0.79486   0.80608   0.82458

 Mulliken charges:
               1
     1  O   -0.512081
     2  H    0.259539
     3  H    0.252435
     4  O   -0.513045
     5  H    0.258511
     6  H    0.254641
 Sum of Mulliken charges =   0.00000

 Dipole moment (field-independent basis, Debye):
    X=             -2.5213    Y=             -2.9305    Z=             -0.0000  Tot=              3.8658
 Quadrupole moment (field-independent basis, Debye-Ang):
   XX=             -9.8090   YY=             -7.0110   ZZ=            -14.7137
   XY=             -3.9552   XZ=             -0.0000   YZ=             -0.0000

 Normal termination of Gaussian 16 at Sun Aug 28 03:26:25 2022.
