 Gaussian 16, Revision A.03,
 Gaussian 16:  ES64L-G16RevA.03 25-Dec-2016

 ------------------
 #p CCSD(T)/cc-pVTZ
 ------------------

 ------------
 H2O_H2O_4387
 ------------
 Symbolic Z-matrix:
 Charge =  0 Multiplicity = 1

                         Standard orientation:
 ---------------------------------------------------------------------
 Center     Atomic      Atomic             Coordinates (Angstroms)
 Number     Number       Type             X           Y           Z
 ---------------------------------------------------------------------
      1          8           0        0.055967    2.857028    0.000000
      2          1           0        0.054833    1.874428    0.000000
      3          1           0       -0.873158    3.176767    0.000000
      4          8           0        0.055967   -2.678091   -0.000000
      5          1           0        0.749969   -3.373697   -0.000000
      6          1           0       -0.827114   -3.108993   -0.000000
 ---------------------------------------------------------------------

 SCF Done:  E(RHF) =  -152.108412643     A.U. after   10 cycles
 E2 =    -0.5258168283D+00 EUMP2 =    -0.15263422947165D+03
 CCSD(T)
 CCSD(T)= -0.15266142575D+03

 The electronic state is 1-A'.
 Alpha  occ. eigenvalues --  -20.56209 -20.54932  -1.33510  -1.32240  -0.70915
 Alpha  occ. eigenvalues --   -0.69639  -0.57003  -0.55710  -0.50628  -0.49362
 Alpha virt. eigenvalues --    0.13288   0.14971   0.19667   0.21090   0.53613
 Alpha virt. eigenvalues --    0.54864   0.56638   0.57799   0.66783   0.68827
 Alpha virt. eigenvalues --    0.78260   0.79493   0.79572   0.80100   0.82724

 Mulliken charges:
               1
     1  O   -0.513687
     2  H    0.260629
     3  H    0.252884
     4  O   -0.514496
     5  H    0.258607
     6  H    0.256064
 Sum of Mulliken charges =   0.00000

 Dipole moment (field-independent basis, Debye):
    X=             -1.9187    Y=             -3.1446    Z=             -0.0000  Tot=              3.6837
 Quadrupole moment (field-independent basis, Debye-Ang):
   XX=             -9.2851   YY=             -6.3742   ZZ=            -14.7148
   XY=             -5.0651   XZ=             -0.0000   YZ=              0.0000

 Normal termination of Gaussian 16 at Sun Aug 28 02:25:33 2022.
