 Gaussian 16, Revision A.03,
 Gaussian 16:  ES64L-G16RevA.03 25-Dec-2016

 ------------------
 #p CCSD(T)/cc-pVTZ
 ------------------

 ------------
 H2O_H2O_3343
 ------------
 Symbolic Z-matrix:
 Charge =  0 Multiplicity = 1

                         Standard orientation:
 ---------------------------------------------------------------------
 Center     Atomic      Atomic             Coordinates (Angstroms)
 Number     Number       Type             X           Y           Z
 ---------------------------------------------------------------------
      1          8           0        0.033783    2.437447    0.000000
      2          1           0        0.031645    1.454848    0.000000
      3          1           0       -0.895014    2.758135   -0.000000
      4          8           0        0.033783   -2.259918    0.000000
      5          1           0        0.940769   -2.637918    0.000000
      6          1           0       -0.617930   -2.995293   -0.000000
 ---------------------------------------------------------------------

 SCF Done:  E(RHF) =  -152.109467365     A.U. after   10 cycles
 E2 =    -0.5258667957D+00 EUMP2 =    -0.15263533416090D+03
 CCSD(T)
 CCSD(T)= -0.15266249302D+03

 The electronic state is 1-A'.
 Alpha  occ. eigenvalues --  -20.56494 -20.54607  -1.33782  -1.31924  -0.71183
 Alpha  occ. eigenvalues --   -0.69324  -0.57312  -0.55411  -0.50909  -0.49057
 Alpha virt. eigenvalues --    0.12655   0.15669   0.19484   0.22109   0.53350
 Alpha virt. eigenvalues --    0.55274   0.56483   0.58127   0.67314   0.69349
 Alpha virt. eigenvalues --    0.77996   0.78876   0.79746   0.79777   0.83094

 Mulliken charges:
               1
     1  O   -0.518037
     2  H    0.263122
     3  H    0.253213
     4  O   -0.515801
     5  H    0.259427
     6  H    0.258076
 Sum of Mulliken charges =  -0.00000

 Dipole moment (field-independent basis, Debye):
    X=             -1.1546    Y=             -3.1695    Z=              0.0000  Tot=              3.3732
 Quadrupole moment (field-independent basis, Debye-Ang):
   XX=             -9.1860   YY=             -7.0761   ZZ=            -14.7185
   XY=             -5.5042   XZ=              0.0000   YZ=             -0.0000

 CCSD(T)=-152.662493\RMSD=6.938e-09\PG=CS [SG(H4O2)]\\@
 Normal termination of Gaussian 16 at Fri Aug 26 21:10:35 2022.
