 Gaussian 16, Revision A.03,
 Gaussian 16:  ES64L-G16RevA.03 25-Dec-2016

 ------------------
 #p CCSD(T)/cc-pVTZ
 ------------------

 ------------
 H2O_H2O_2059
 ------------
 Symbolic Z-matrix:
 Charge =  0 Multiplicity = 1

                         Standard orientation:
 ---------------------------------------------------------------------
 Center     Atomic      Atomic             Coordinates (Angstroms)
 Number     Number       Type             X           Y           Z
 ---------------------------------------------------------------------
      1          8           0        0.066780    1.926456    0.000000
      2          1           0        0.065572    0.943855    0.000000
      3          1           0       -0.862320    2.246265    0.000000
      4          8           0        0.066780   -1.753383   -0.000000
      5          1           0        0.611680   -2.571056   -0.000000
      6          1           0       -0.883415   -2.003651   -0.000000
 ---------------------------------------------------------------------

 SCF Done:  E(RHF) =  -152.111445078     A.U. after   10 cycles
 E2 =    -0.5264435571D+00 EUMP2 =    -0.15263788863502D+03
 CCSD(T)
 CCSD(T)= -0.15266496877D+03

 The electronic state is 1-A'.
 Alpha  occ. eigenvalues --  -20.57301 -20.53930  -1.34560  -1.31276  -0.71967
 Alpha  occ. eigenvalues --   -0.68676  -0.58195  -0.54728  -0.51690  -0.48417
 Alpha virt. eigenvalues --    0.12058   0.16691   0.19344   0.25745   0.51738
 Alpha virt. eigenvalues --    0.55582   0.56104   0.58631   0.68946   0.72331
 Alpha virt. eigenvalues --    0.76410   0.78168   0.80522   0.83414   0.83821

 Mulliken charges:
               1
     1  O   -0.524611
     2  H    0.268288
     3  H    0.246644
     4  O   -0.506057
     5  H    0.260973
     6  H    0.254764
 Sum of Mulliken charges =  -0.00000

 Dipole moment (field-independent basis, Debye):
    X=             -2.2578    Y=             -3.2415    Z=             -0.0000  Tot=              3.9504
 Quadrupole moment (field-independent basis, Debye-Ang):
   XX=             -9.5754   YY=             -7.9831   ZZ=            -14.7253
   XY=             -3.5434   XZ=             -0.0000   YZ=              0.0000

 Normal termination of Gaussian 16 at Sun Aug 28 03:58:00 2022.
