 Gaussian 16, Revision A.03,
 Gaussian 16:  ES64L-G16RevA.03 25-Dec-2016

 ------------------
 #p CCSD(T)/cc-pVTZ
 ------------------

 ------------
 H2O_H2O_3073
 ------------
 Symbolic Z-matrix:
 Charge =  0 Multiplicity = 1

                         Standard orientation:
 ---------------------------------------------------------------------
 Center     Atomic      Atomic             Coordinates (Angstroms)
 Number     Number       Type             X           Y           Z
 ---------------------------------------------------------------------
      1          8           0       -0.016629    2.320079    0.000000
      2          1           0       -0.013736    1.337482    0.000000
      3          1           0        0.911921    2.641482    0.000000
      4          8           0       -0.016629   -2.156691    0.000000
      5          1           0       -0.996933   -2.223842    0.000000
      6          1           0        0.364816   -3.062232    0.000000
 ---------------------------------------------------------------------

 SCF Done:  E(RHF) =  -152.109684942     A.U. after   10 cycles
 E2 =    -0.5259069044D+00 EUMP2 =    -0.15263559184615D+03
 CCSD(T)
 CCSD(T)= -0.15266274234D+03

 The electronic state is 1-A'.
 Alpha  occ. eigenvalues --  -20.56592 -20.54658  -1.33880  -1.31976  -0.71288
 Alpha  occ. eigenvalues --   -0.69383  -0.57415  -0.55466  -0.51006  -0.49113
 Alpha virt. eigenvalues --    0.12320   0.15846   0.19260   0.22931   0.53649
 Alpha virt. eigenvalues --    0.55538   0.56437   0.58214   0.67886   0.69345
 Alpha virt. eigenvalues --    0.77884   0.78740   0.79725   0.80566   0.83106

 Mulliken charges:
               1
     1  O   -0.519550
     2  H    0.262638
     3  H    0.254636
     4  O   -0.515209
     5  H    0.258560
     6  H    0.258924
 Sum of Mulliken charges =   0.00000

 Dipole moment (field-independent basis, Debye):
    X=              0.5711    Y=             -2.9324    Z=              0.0000  Tot=              2.9875
 Quadrupole moment (field-independent basis, Debye-Ang):
   XX=             -9.5430   YY=             -7.7888   ZZ=            -14.7190
   XY=              6.0885   XZ=              0.0000   YZ=              0.0000

 CCSD(T)=-152.6627423\RMSD=6.873e-09\PG=CS [SG(H4O2)]\\@
 Normal termination of Gaussian 16 at Fri Aug 26 19:37:17 2022.
