 Gaussian 16, Revision A.03,
 Gaussian 16:  ES64L-G16RevA.03 25-Dec-2016

 ------------------
 #p CCSD(T)/cc-pVTZ
 ------------------

 ------------
 H2O_H2O_3209
 ------------
 Symbolic Z-matrix:
 Charge =  0 Multiplicity = 1

                         Standard orientation:
 ---------------------------------------------------------------------
 Center     Atomic      Atomic             Coordinates (Angstroms)
 Number     Number       Type             X           Y           Z
 ---------------------------------------------------------------------
      1          8           0        0.066759    2.385181   -0.000000
      2          1           0        0.065792    1.402580   -0.000000
      3          1           0       -0.862420    2.704762   -0.000000
      4          8           0        0.066759   -2.212075    0.000000
      5          1           0        0.611859   -3.029615    0.000000
      6          1           0       -0.883375   -2.462577    0.000000
 ---------------------------------------------------------------------

 SCF Done:  E(RHF) =  -152.109199017     A.U. after   10 cycles
 E2 =    -0.5259324651D+00 EUMP2 =    -0.15263513148207D+03
 CCSD(T)
 CCSD(T)= -0.15266229193D+03

 The electronic state is 1-A'.
 Alpha  occ. eigenvalues --  -20.56561 -20.54643  -1.33846  -1.31957  -0.71254
 Alpha  occ. eigenvalues --   -0.69346  -0.57362  -0.55433  -0.50969  -0.49085
 Alpha virt. eigenvalues --    0.12441   0.15687   0.19460   0.22245   0.53433
 Alpha virt. eigenvalues --    0.55198   0.56362   0.58331   0.67558   0.69329
 Alpha virt. eigenvalues --    0.77936   0.78810   0.79755   0.79925   0.83034

 Mulliken charges:
               1
     1  O   -0.515832
     2  H    0.263053
     3  H    0.250782
     4  O   -0.513415
     5  H    0.260086
     6  H    0.255325
 Sum of Mulliken charges =  -0.00000

 Dipole moment (field-independent basis, Debye):
    X=             -2.2780    Y=             -3.0997    Z=              0.0000  Tot=              3.8467
 Quadrupole moment (field-independent basis, Debye-Ang):
   XX=             -9.5643   YY=             -7.3397   ZZ=            -14.7175
   XY=             -3.9635   XZ=              0.0000   YZ=             -0.0000

 Normal termination of Gaussian 16 at Fri Aug 26 20:24:41 2022.
