 Gaussian 16, Revision A.03,
 Gaussian 16:  ES64L-G16RevA.03 25-Dec-2016

 ------------------
 #p CCSD(T)/cc-pVTZ
 ------------------

 ------------
 H2O_H2O_3299
 ------------
 Symbolic Z-matrix:
 Charge =  0 Multiplicity = 1

                         Standard orientation:
 ---------------------------------------------------------------------
 Center     Atomic      Atomic             Coordinates (Angstroms)
 Number     Number       Type             X           Y           Z
 ---------------------------------------------------------------------
      1          8           0       -0.013513    2.407586    0.000000
      2          1           0       -0.010617    1.424989    0.000000
      3          1           0        0.915037    2.728990    0.000000
      4          8           0       -0.013513   -2.248322    0.000000
      5          1           0       -0.996110   -2.251218    0.000000
      6          1           0        0.307892   -3.176873    0.000000
 ---------------------------------------------------------------------

 SCF Done:  E(RHF) =  -152.109321483     A.U. after   10 cycles
 E2 =    -0.5258704994D+00 EUMP2 =    -0.15263519198276D+03
 CCSD(T)
 CCSD(T)= -0.15266235591D+03

 The electronic state is 1-A'.
 Alpha  occ. eigenvalues --  -20.56495 -20.54794  -1.33789  -1.32109  -0.71198
 Alpha  occ. eigenvalues --   -0.69517  -0.57310  -0.55595  -0.50913  -0.49242
 Alpha virt. eigenvalues --    0.12345   0.15648   0.19196   0.22651   0.53496
 Alpha virt. eigenvalues --    0.55466   0.56495   0.58037   0.67307   0.69289
 Alpha virt. eigenvalues --    0.77987   0.78634   0.79600   0.80783   0.82975

 Mulliken charges:
               1
     1  O   -0.518042
     2  H    0.261509
     3  H    0.255041
     4  O   -0.515643
     5  H    0.257944
     6  H    0.259191
 Sum of Mulliken charges =  -0.00000

 Dipole moment (field-independent basis, Debye):
    X=              0.4656    Y=             -2.8417    Z=              0.0000  Tot=              2.8796
 Quadrupole moment (field-independent basis, Debye-Ang):
   XX=             -9.6479   YY=             -7.8838   ZZ=            -14.7178
   XY=              6.5114   XZ=              0.0000   YZ=              0.0000

 Normal termination of Gaussian 16 at Fri Aug 26 20:54:30 2022.
