 Gaussian 16, Revision A.03,
 Gaussian 16:  ES64L-G16RevA.03 25-Dec-2016

 ------------------
 #p CCSD(T)/cc-pVTZ
 ------------------

 ------------
 H2O_H2O_3110
 ------------
 Symbolic Z-matrix:
 Charge =  0 Multiplicity = 1

                         Standard orientation:
 ---------------------------------------------------------------------
 Center     Atomic      Atomic             Coordinates (Angstroms)
 Number     Number       Type             X           Y           Z
 ---------------------------------------------------------------------
      1          8           0        0.063236    2.346598   -0.000000
      2          1           0        0.062120    1.363997   -0.000000
      3          1           0       -0.865894    2.666320    0.000000
      4          8           0        0.063236   -2.171090   -0.000000
      5          1           0        0.660521   -2.951320   -0.000000
      6          1           0       -0.868527   -2.483057    0.000000
 ---------------------------------------------------------------------

 SCF Done:  E(RHF) =  -152.109424352     A.U. after   10 cycles
 E2 =    -0.5259440387D+00 EUMP2 =    -0.15263536839091D+03
 CCSD(T)
 CCSD(T)= -0.15266252165D+03

 The electronic state is 1-A'.
 Alpha  occ. eigenvalues --  -20.56604 -20.54566  -1.33886  -1.31882  -0.71292
 Alpha  occ. eigenvalues --   -0.69271  -0.57411  -0.55361  -0.51012  -0.49012
 Alpha virt. eigenvalues --    0.12441   0.15788   0.19463   0.22419   0.53378
 Alpha virt. eigenvalues --    0.55282   0.56332   0.58447   0.67852   0.69338
 Alpha virt. eigenvalues --    0.77890   0.78909   0.79725   0.79824   0.83112

 Mulliken charges:
               1
     1  O   -0.516801
     2  H    0.263631
     3  H    0.250759
     4  O   -0.513409
     5  H    0.260140
     6  H    0.255679
 Sum of Mulliken charges =  -0.00000

 Dipole moment (field-independent basis, Debye):
    X=             -2.1567    Y=             -3.1511    Z=              0.0000  Tot=              3.8185
 Quadrupole moment (field-independent basis, Debye-Ang):
   XX=             -9.4576   YY=             -7.2991   ZZ=            -14.7183
   XY=             -4.0938   XZ=             -0.0000   YZ=              0.0000

 Normal termination of Gaussian 16 at Fri Aug 26 19:49:23 2022.
