 Gaussian 16, Revision A.03,
 Gaussian 16:  ES64L-G16RevA.03 25-Dec-2016

 ------------------
 #p CCSD(T)/cc-pVTZ
 ------------------

 ------------
 H2O_H2O_4567
 ------------
 Symbolic Z-matrix:
 Charge =  0 Multiplicity = 1

                         Standard orientation:
 ---------------------------------------------------------------------
 Center     Atomic      Atomic             Coordinates (Angstroms)
 Number     Number       Type             X           Y           Z
 ---------------------------------------------------------------------
      1          8           0        0.037408    2.926866    0.000000
      2          1           0        0.035747    1.944266    0.000000
      3          1           0       -0.891545    3.247103    0.000000
      4          8           0        0.037408   -2.747870    0.000000
      5          1           0        0.917941   -3.183952    0.000000
      6          1           0       -0.660670   -3.439386    0.000000
 ---------------------------------------------------------------------

 SCF Done:  E(RHF) =  -152.108439100     A.U. after   10 cycles
 E2 =    -0.5258021082D+00 EUMP2 =    -0.15263424120817D+03
 CCSD(T)
 CCSD(T)= -0.15266143844D+03

 The electronic state is 1-A'.
 Alpha  occ. eigenvalues --  -20.56171 -20.54961  -1.33473  -1.32268  -0.70876
 Alpha  occ. eigenvalues --   -0.69671  -0.56967  -0.55740  -0.50592  -0.49392
 Alpha virt. eigenvalues --    0.13395   0.14913   0.19698   0.21034   0.53656
 Alpha virt. eigenvalues --    0.54852   0.56680   0.57798   0.66867   0.68712
 Alpha virt. eigenvalues --    0.78294   0.79464   0.79654   0.80249   0.82622

 Mulliken charges:
               1
     1  O   -0.514127
     2  H    0.260264
     3  H    0.253755
     4  O   -0.514780
     5  H    0.257927
     6  H    0.256962
 Sum of Mulliken charges =  -0.00000

 Dipole moment (field-independent basis, Debye):
    X=             -1.2834    Y=             -3.1401    Z=             -0.0000  Tot=              3.3923
 Quadrupole moment (field-independent basis, Debye-Ang):
   XX=             -9.1596   YY=             -6.2521   ZZ=            -14.7149
   XY=             -6.2782   XZ=             -0.0000   YZ=             -0.0000

 Normal termination of Gaussian 16 at Sun Aug 28 03:56:54 2022.
