 Gaussian 16, Revision A.03,
 Gaussian 16:  ES64L-G16RevA.03 25-Dec-2016

 ------------------
 #p CCSD(T)/cc-pVTZ
 ------------------

 ------------
 H2O_H2O_3448
 ------------
 Symbolic Z-matrix:
 Charge =  0 Multiplicity = 1

                         Standard orientation:
 ---------------------------------------------------------------------
 Center     Atomic      Atomic             Coordinates (Angstroms)
 Number     Number       Type             X           Y           Z
 ---------------------------------------------------------------------
      1          8           0       -0.016614    2.469661    0.000000
      2          1           0       -0.013902    1.487063    0.000000
      3          1           0        0.911996    2.790891    0.000000
      4          8           0       -0.016614   -2.306266    0.000000
      5          1           0       -0.996931   -2.373237    0.000000
      6          1           0        0.364663   -3.211878    0.000000
 ---------------------------------------------------------------------

 SCF Done:  E(RHF) =  -152.109213177     A.U. after   10 cycles
 E2 =    -0.5258506649D+00 EUMP2 =    -0.15263506384151D+03
 CCSD(T)
 CCSD(T)= -0.15266223227D+03

 The electronic state is 1-A'.
 Alpha  occ. eigenvalues --  -20.56443 -20.54797  -1.33738  -1.32111  -0.71145
 Alpha  occ. eigenvalues --   -0.69518  -0.57257  -0.55597  -0.50862  -0.49243
 Alpha virt. eigenvalues --    0.12497   0.15549   0.19262   0.22300   0.53353
 Alpha virt. eigenvalues --    0.55373   0.56535   0.57985   0.67060   0.69268
 Alpha virt. eigenvalues --    0.78039   0.78689   0.79599   0.80623   0.82942

 Mulliken charges:
               1
     1  O   -0.517470
     2  H    0.261506
     3  H    0.254755
     4  O   -0.515944
     5  H    0.258138
     6  H    0.259015
 Sum of Mulliken charges =  -0.00000

 Dipole moment (field-independent basis, Debye):
    X=              0.5707    Y=             -2.9074    Z=              0.0000  Tot=              2.9629
 Quadrupole moment (field-independent basis, Debye-Ang):
   XX=             -9.5428   YY=             -7.6388   ZZ=            -14.7175
   XY=              6.4822   XZ=              0.0000   YZ=              0.0000

 Normal termination of Gaussian 16 at Fri Aug 26 21:45:18 2022.
