 Gaussian 16, Revision A.03,
 Gaussian 16:  ES64L-G16RevA.03 25-Dec-2016

 ------------------
 #p CCSD(T)/cc-pVTZ
 ------------------

 -----------
 H2O_H2O_288
 -----------
 Symbolic Z-matrix:
 Charge =  0 Multiplicity = 1

                         Standard orientation:
 ---------------------------------------------------------------------
 Center     Atomic      Atomic             Coordinates (Angstroms)
 Number     Number       Type             X           Y           Z
 ---------------------------------------------------------------------
      1          8           0        0.052438    1.222073    0.000000
      2          1           0        0.049390    0.239477    0.000000
      3          1           0       -0.876062    1.543621   -0.000000
      4          8           0        0.052438   -1.042345    0.000000
      5          1           0        0.789184   -1.692508    0.000000
      6          1           0       -0.801518   -1.528417   -0.000000
 ---------------------------------------------------------------------

 SCF Done:  E(RHF) =  -152.081449122     A.U. after   11 cycles
 E2 =    -0.5336918444D+00 EUMP2 =    -0.15261514096592D+03
 CCSD(T)
 CCSD(T)= -0.15264113837D+03

 The electronic state is 1-A'.
 Alpha  occ. eigenvalues --  -20.61084 -20.46778  -1.40656  -1.25984  -0.76628
 Alpha  occ. eigenvalues --   -0.74376  -0.56783  -0.56726  -0.47247  -0.42747
 Alpha virt. eigenvalues --    0.10830   0.16969   0.20524   0.33350   0.47352
 Alpha virt. eigenvalues --    0.52831   0.62628   0.63942   0.71016   0.71855
 Alpha virt. eigenvalues --    0.77670   0.80035   0.80345   0.82231   0.84113

 Mulliken charges:
               1
     1  O   -0.637677
     2  H    0.307100
     3  H    0.214184
     4  O   -0.383135
     5  H    0.253390
     6  H    0.246138
 Sum of Mulliken charges =   0.00000

 Dipole moment (field-independent basis, Debye):
    X=             -1.6332    Y=             -4.6373    Z=             -0.0000  Tot=              4.9165
 Quadrupole moment (field-independent basis, Debye-Ang):
   XX=             -9.1958   YY=             -9.7982   ZZ=            -14.6264
   XY=             -2.8502   XZ=              0.0000   YZ=             -0.0000

 Normal termination of Gaussian 16 at Fri Aug 26 17:11:28 2022.
