 Gaussian 16, Revision A.03,
 Gaussian 16:  ES64L-G16RevA.03 25-Dec-2016

 ------------------
 #p CCSD(T)/cc-pVTZ
 ------------------

 ------------
 H2O_H2O_2273
 ------------
 Symbolic Z-matrix:
 Charge =  0 Multiplicity = 1

                         Standard orientation:
 ---------------------------------------------------------------------
 Center     Atomic      Atomic             Coordinates (Angstroms)
 Number     Number       Type             X           Y           Z
 ---------------------------------------------------------------------
      1          8           0       -0.016669    2.000971    0.000000
      2          1           0       -0.013295    1.018375    0.000000
      3          1           0        0.911724    2.322828    0.000000
      4          8           0       -0.016669   -1.837599    0.000000
      5          1           0       -0.996941   -1.905230    0.000000
      6          1           0        0.365218   -2.742954    0.000000
 ---------------------------------------------------------------------

 SCF Done:  E(RHF) =  -152.111253091     A.U. after   10 cycles
 E2 =    -0.5261946542D+00 EUMP2 =    -0.15263744774507D+03
 CCSD(T)
 CCSD(T)= -0.15266454480D+03

 The electronic state is 1-A'.
 Alpha  occ. eigenvalues --  -20.57068 -20.54205  -1.34342  -1.31543  -0.71758
 Alpha  occ. eigenvalues --   -0.68958  -0.57958  -0.55025  -0.51473  -0.48693
 Alpha virt. eigenvalues --    0.12200   0.16612   0.19251   0.25186   0.53539
 Alpha virt. eigenvalues --    0.55032   0.56101   0.58687   0.68724   0.71920
 Alpha virt. eigenvalues --    0.76940   0.79092   0.80217   0.82212   0.83596

 Mulliken charges:
               1
     1  O   -0.526950
     2  H    0.265755
     3  H    0.254161
     4  O   -0.511075
     5  H    0.259947
     6  H    0.258163
 Sum of Mulliken charges =  -0.00000

 Dipole moment (field-independent basis, Debye):
    X=              0.5721    Y=             -3.0205    Z=              0.0000  Tot=              3.0742
 Quadrupole moment (field-independent basis, Debye-Ang):
   XX=             -9.5443   YY=             -8.1201   ZZ=            -14.7241
   XY=              5.2486   XZ=              0.0000   YZ=              0.0000

 Normal termination of Gaussian 16 at Sun Aug 28 05:55:12 2022.
