 Gaussian 16, Revision A.03,
 Gaussian 16:  ES64L-G16RevA.03 25-Dec-2016

 ------------------
 #p CCSD(T)/cc-pVTZ
 ------------------

 -----------
 H2O_H2O_111
 -----------
 Symbolic Z-matrix:
 Charge =  0 Multiplicity = 1

                         Standard orientation:
 ---------------------------------------------------------------------
 Center     Atomic      Atomic             Coordinates (Angstroms)
 Number     Number       Type             X           Y           Z
 ---------------------------------------------------------------------
      1          8           0        0.059768    1.150935    0.000000
      2          1           0        0.057107    0.168337    0.000000
      3          1           0       -0.868858    1.472118    0.000000
      4          8           0        0.059768   -0.973662   -0.000000
      5          1           0        0.705639   -1.714173   -0.000000
      6          1           0       -0.850181   -1.344470   -0.000000
 ---------------------------------------------------------------------

 SCF Done:  E(RHF) =  -152.051858686     A.U. after   11 cycles
 E2 =    -0.5357118101D+00 EUMP2 =    -0.15258757049602D+03
 CCSD(T)
 CCSD(T)= -0.15261321595D+03

 The electronic state is 1-A'.
 Alpha  occ. eigenvalues --  -20.61855 -20.44967  -1.43031  -1.24948  -0.79422
 Alpha  occ. eigenvalues --   -0.76218  -0.58180  -0.55094  -0.45294  -0.41509
 Alpha virt. eigenvalues --    0.10430   0.16319   0.21177   0.32695   0.47894
 Alpha virt. eigenvalues --    0.52023   0.62137   0.63922   0.70979   0.71346
 Alpha virt. eigenvalues --    0.78958   0.79290   0.81413   0.82928   0.87250

 Mulliken charges:
               1
     1  O   -0.655989
     2  H    0.291400
     3  H    0.200367
     4  O   -0.322774
     5  H    0.243220
     6  H    0.243776
 Sum of Mulliken charges =  -0.00000

 Dipole moment (field-independent basis, Debye):
    X=             -1.8171    Y=             -4.9090    Z=             -0.0000  Tot=              5.2345
 Quadrupole moment (field-independent basis, Debye-Ang):
   XX=             -9.3259   YY=            -10.1035   ZZ=            -14.5682
   XY=             -2.6868   XZ=             -0.0000   YZ=             -0.0000

 Normal termination of Gaussian 16 at Fri Aug 26 15:55:57 2022.
