 Gaussian 16, Revision A.03,
 Gaussian 16:  ES64L-G16RevA.03 25-Dec-2016

 ------------------
 #p CCSD(T)/cc-pVTZ
 ------------------

 ---------
 H2O_H2O_9
 ---------
 Symbolic Z-matrix:
 Charge =  0 Multiplicity = 1

                         Standard orientation:
 ---------------------------------------------------------------------
 Center     Atomic      Atomic             Coordinates (Angstroms)
 Number     Number       Type             X           Y           Z
 ---------------------------------------------------------------------
      1          8           0        0.066865    1.108693    0.000000
      2          1           0        0.064691    0.126094    0.000000
      3          1           0       -0.861920    1.429415    0.000000
      4          8           0        0.066865   -0.935751   -0.000000
      5          1           0        0.610960   -1.753960   -0.000000
      6          1           0       -0.883576   -1.185086   -0.000000
 ---------------------------------------------------------------------

 SCF Done:  E(RHF) =  -152.024215047     A.U. after   11 cycles
 E2 =    -0.5372790396D+00 EUMP2 =    -0.15256149408640D+03
 CCSD(T)
 CCSD(T)= -0.15258692206D+03

 The electronic state is 1-A'.
 Alpha  occ. eigenvalues --  -20.62276 -20.44013  -1.44912  -1.24466  -0.82119
 Alpha  occ. eigenvalues --   -0.76447  -0.59142  -0.54134  -0.44210  -0.40908
 Alpha virt. eigenvalues --    0.10205   0.15873   0.21622   0.32020   0.48679
 Alpha virt. eigenvalues --    0.51445   0.60824   0.64147   0.70142   0.71397
 Alpha virt. eigenvalues --    0.77782   0.79396   0.81984   0.83875   0.88837

 Mulliken charges:
               1
     1  O   -0.664258
     2  H    0.270831
     3  H    0.190128
     4  O   -0.274517
     5  H    0.234459
     6  H    0.243357
 Sum of Mulliken charges =  -0.00000

 Dipole moment (field-independent basis, Debye):
    X=             -2.0068    Y=             -5.0077    Z=             -0.0000  Tot=              5.3948
 Quadrupole moment (field-independent basis, Debye-Ang):
   XX=             -9.5149   YY=            -10.2592   ZZ=            -14.5217
   XY=             -2.5702   XZ=             -0.0000   YZ=              0.0000

 Normal termination of Gaussian 16 at Fri Aug 26 15:14:50 2022.
