 Gaussian 16, Revision A.03,
 Gaussian 16:  ES64L-G16RevA.03 25-Dec-2016

 ------------------
 #p CCSD(T)/cc-pVTZ
 ------------------

 ------------
 H2O_H2O_4364
 ------------
 Symbolic Z-matrix:
 Charge =  0 Multiplicity = 1

                         Standard orientation:
 ---------------------------------------------------------------------
 Center     Atomic      Atomic             Coordinates (Angstroms)
 Number     Number       Type             X           Y           Z
 ---------------------------------------------------------------------
      1          8           0        0.048555    2.847862    0.000000
      2          1           0        0.047190    1.865261    0.000000
      3          1           0       -0.880494    3.167820    0.000000
      4          8           0        0.048555   -2.667444   -0.000000
      5          1           0        0.827274   -3.266696   -0.000000
      6          1           0       -0.770854   -3.209730   -0.000000
 ---------------------------------------------------------------------

 SCF Done:  E(RHF) =  -152.108490943     A.U. after   10 cycles
 E2 =    -0.5258108141D+00 EUMP2 =    -0.15263430175735D+03
 CCSD(T)
 CCSD(T)= -0.15266149629D+03

 The electronic state is 1-A'.
 Alpha  occ. eigenvalues --  -20.56211 -20.54910  -1.33512  -1.32218  -0.70916
 Alpha  occ. eigenvalues --   -0.69618  -0.57008  -0.55690  -0.50631  -0.49342
 Alpha virt. eigenvalues --    0.13297   0.14999   0.19686   0.21103   0.53635
 Alpha virt. eigenvalues --    0.54863   0.56643   0.57806   0.66767   0.68855
 Alpha virt. eigenvalues --    0.78257   0.79512   0.79656   0.79956   0.82756

 Mulliken charges:
               1
     1  O   -0.514150
     2  H    0.260797
     3  H    0.253163
     4  O   -0.514880
     5  H    0.258513
     6  H    0.256556
 Sum of Mulliken charges =  -0.00000

 Dipole moment (field-independent basis, Debye):
    X=             -1.6646    Y=             -3.1713    Z=             -0.0000  Tot=              3.5816
 Quadrupole moment (field-independent basis, Debye-Ang):
   XX=             -9.1821   YY=             -6.3055   ZZ=            -14.7151
   XY=             -5.4843   XZ=             -0.0000   YZ=              0.0000

 Normal termination of Gaussian 16 at Sun Aug 28 02:16:37 2022.
