 Gaussian 16, Revision A.03,
 Gaussian 16:  ES64L-G16RevA.03 25-Dec-2016

 ------------------
 #p CCSD(T)/cc-pVTZ
 ------------------

 ------------
 H2O_H2O_3992
 ------------
 Symbolic Z-matrix:
 Charge =  0 Multiplicity = 1

                         Standard orientation:
 ---------------------------------------------------------------------
 Center     Atomic      Atomic             Coordinates (Angstroms)
 Number     Number       Type             X           Y           Z
 ---------------------------------------------------------------------
      1          8           0        0.037421    2.697507   -0.000000
      2          1           0        0.035615    1.714907   -0.000000
      3          1           0       -0.891484    3.017881   -0.000000
      4          8           0        0.037421   -2.518522    0.000000
      5          1           0        0.917890   -2.954734    0.000000
      6          1           0       -0.660759   -3.209934    0.000000
 ---------------------------------------------------------------------

 SCF Done:  E(RHF) =  -152.108799872     A.U. after   10 cycles
 E2 =    -0.5258143944D+00 EUMP2 =    -0.15263461426678D+03
 CCSD(T)
 CCSD(T)= -0.15266179858D+03

 The electronic state is 1-A'.
 Alpha  occ. eigenvalues --  -20.56291 -20.54818  -1.33589  -1.32128  -0.70992
 Alpha  occ. eigenvalues --   -0.69530  -0.57097  -0.55607  -0.50711  -0.49256
 Alpha virt. eigenvalues --    0.13074   0.15212   0.19618   0.21356   0.53520
 Alpha virt. eigenvalues --    0.54951   0.56596   0.57837   0.66678   0.69096
 Alpha virt. eigenvalues --    0.78183   0.79308   0.79592   0.79857   0.82883

 Mulliken charges:
               1
     1  O   -0.515527
     2  H    0.261586
     3  H    0.253470
     4  O   -0.515834
     5  H    0.258752
     6  H    0.257553
 Sum of Mulliken charges =  -0.00000

 Dipole moment (field-independent basis, Debye):
    X=             -1.2818    Y=             -3.1595    Z=              0.0000  Tot=              3.4096
 Quadrupole moment (field-independent basis, Debye-Ang):
   XX=             -9.1592   YY=             -6.6144   ZZ=            -14.7162
   XY=             -5.8382   XZ=              0.0000   YZ=             -0.0000

 Normal termination of Gaussian 16 at Sat Aug 27 00:52:50 2022.
