 Gaussian 16, Revision A.03,
 Gaussian 16:  ES64L-G16RevA.03 25-Dec-2016

 ------------------
 #p CCSD(T)/cc-pVTZ
 ------------------

 -----------
 H2O_H2O_678
 -----------
 Symbolic Z-matrix:
 Charge =  0 Multiplicity = 1

                         Standard orientation:
 ---------------------------------------------------------------------
 Center     Atomic      Atomic             Coordinates (Angstroms)
 Number     Number       Type             X           Y           Z
 ---------------------------------------------------------------------
      1          8           0        0.085617   -1.365226    0.000000
      2          1           0        0.085133   -0.382625    0.000000
      3          1           0       -0.843719   -1.684350    0.000000
      4          8           0        0.085617    1.215666    0.000000
      5          1           0        0.276839    2.179481    0.000000
      6          1           0       -0.888121    1.083978    0.000000
 ---------------------------------------------------------------------

 SCF Done:  E(RHF) =  -152.101541773     A.U. after   11 cycles
 E2 =    -0.5314183687D+00 EUMP2 =    -0.15263296014162D+03
 CCSD(T)
 CCSD(T)= -0.15265964623D+03

 The electronic state is 1-A'.
 Alpha  occ. eigenvalues --  -20.59527 -20.51637  -1.37701  -1.29519  -0.76054
 Alpha  occ. eigenvalues --   -0.68273  -0.59645  -0.54359  -0.52338  -0.46528
 Alpha virt. eigenvalues --    0.11324   0.16574   0.20533   0.32282   0.48328
 Alpha virt. eigenvalues --    0.52881   0.58804   0.63057   0.69771   0.71713
 Alpha virt. eigenvalues --    0.74114   0.78176   0.79110   0.83253   0.83321

 Mulliken charges:
               1
     1  O   -0.562448
     2  H    0.292379
     3  H    0.222479
     4  O   -0.419112
     5  H    0.233489
     6  H    0.233212
 Sum of Mulliken charges =  -0.00000

 Dipole moment (field-independent basis, Debye):
    X=             -2.7734    Y=              3.4082    Z=              0.0000  Tot=              4.3941
 Quadrupole moment (field-independent basis, Debye-Ang):
   XX=            -10.4420   YY=             -9.2002   ZZ=            -14.6690
   XY=              2.4579   XZ=              0.0000   YZ=              0.0000

 Normal termination of Gaussian 16 at Fri Aug 26 19:47:55 2022.
