 Gaussian 16, Revision A.03,
 Gaussian 16:  ES64L-G16RevA.03 25-Dec-2016

 ------------------
 #p CCSD(T)/cc-pVTZ
 ------------------

 -----------
 H2O_H2O_295
 -----------
 Symbolic Z-matrix:
 Charge =  0 Multiplicity = 1

                         Standard orientation:
 ---------------------------------------------------------------------
 Center     Atomic      Atomic             Coordinates (Angstroms)
 Number     Number       Type             X           Y           Z
 ---------------------------------------------------------------------
      1          8           0        0.026876    1.218475   -0.000000
      2          1           0        0.021905    0.235886   -0.000000
      3          1           0       -0.900994    1.541839   -0.000000
      4          8           0        0.026876   -1.045385    0.000000
      5          1           0        0.974697   -1.304499    0.000000
      6          1           0       -0.525620   -1.857945    0.000000
 ---------------------------------------------------------------------

 SCF Done:  E(RHF) =  -152.080617757     A.U. after   11 cycles
 E2 =    -0.5336687383D+00 EUMP2 =    -0.15261428649528D+03
 CCSD(T)
 CCSD(T)= -0.15264028742D+03

 The electronic state is 1-A'.
 Alpha  occ. eigenvalues --  -20.60952 -20.46938  -1.40630  -1.26100  -0.77875
 Alpha  occ. eigenvalues --   -0.72601  -0.57379  -0.56627  -0.47301  -0.42908
 Alpha virt. eigenvalues --    0.11015   0.17433   0.20255   0.33877   0.47117
 Alpha virt. eigenvalues --    0.52822   0.60354   0.68407   0.70413   0.71882
 Alpha virt. eigenvalues --    0.77096   0.78295   0.78858   0.83978   0.84175

 Mulliken charges:
               1
     1  O   -0.645057
     2  H    0.297425
     3  H    0.226816
     4  O   -0.377699
     5  H    0.261450
     6  H    0.237065
 Sum of Mulliken charges =  -0.00000

 Dipole moment (field-independent basis, Debye):
    X=             -0.8442    Y=             -4.4934    Z=              0.0000  Tot=              4.5720
 Quadrupole moment (field-independent basis, Debye-Ang):
   XX=             -9.2202   YY=             -9.7475   ZZ=            -14.6229
   XY=             -2.9629   XZ=              0.0000   YZ=             -0.0000

 Normal termination of Gaussian 16 at Fri Aug 26 17:14:20 2022.
