 Gaussian 16, Revision A.03,
 Gaussian 16:  ES64L-G16RevA.03 25-Dec-2016

 ------------------
 #p CCSD(T)/cc-pVTZ
 ------------------

 ------------
 H2O_H2O_4029
 ------------
 Symbolic Z-matrix:
 Charge =  0 Multiplicity = 1

                         Standard orientation:
 ---------------------------------------------------------------------
 Center     Atomic      Atomic             Coordinates (Angstroms)
 Number     Number       Type             X           Y           Z
 ---------------------------------------------------------------------
      1          8           0        0.082800    2.704161    0.000000
      2          1           0        0.082472    1.721560    0.000000
      3          1           0       -0.846587    3.023137    0.000000
      4          8           0        0.082800   -2.549635   -0.000000
      5          1           0        0.336799   -3.498839   -0.000000
      6          1           0       -0.897476   -2.482069   -0.000000
 ---------------------------------------------------------------------

 SCF Done:  E(RHF) =  -152.108080582     A.U. after   10 cycles
 E2 =    -0.5258729798D+00 EUMP2 =    -0.15263395356222D+03
 CCSD(T)
 CCSD(T)= -0.15266115404D+03

 The electronic state is 1-A'.
 Alpha  occ. eigenvalues --  -20.56300 -20.55092  -1.33600  -1.32397  -0.71013
 Alpha  occ. eigenvalues --   -0.69791  -0.57076  -0.55857  -0.50714  -0.49514
 Alpha virt. eigenvalues --    0.12667   0.15040   0.19213   0.21637   0.53200
 Alpha virt. eigenvalues --    0.54994   0.56517   0.57862   0.66726   0.68868
 Alpha virt. eigenvalues --    0.78182   0.79091   0.79349   0.80959   0.82552

 Mulliken charges:
               1
     1  O   -0.511428
     2  H    0.259462
     3  H    0.251666
     4  O   -0.512401
     5  H    0.259167
     6  H    0.253533
 Sum of Mulliken charges =  -0.00000

 Dipole moment (field-independent basis, Debye):
    X=             -2.8351    Y=             -2.7249    Z=             -0.0000  Tot=              3.9323
 Quadrupole moment (field-independent basis, Debye-Ang):
   XX=            -10.2462   YY=             -7.9300   ZZ=            -14.7134
   XY=             -3.1321   XZ=             -0.0000   YZ=             -0.0000

 Normal termination of Gaussian 16 at Sat Aug 27 01:06:15 2022.
