 Gaussian 16, Revision A.03,
 Gaussian 16:  ES64L-G16RevA.03 25-Dec-2016

 ------------------
 #p CCSD(T)/cc-pVTZ
 ------------------

 ------------
 H2O_H2O_3113
 ------------
 Symbolic Z-matrix:
 Charge =  0 Multiplicity = 1

                         Standard orientation:
 ---------------------------------------------------------------------
 Center     Atomic      Atomic             Coordinates (Angstroms)
 Number     Number       Type             X           Y           Z
 ---------------------------------------------------------------------
      1          8           0        0.052299    2.348980    0.000000
      2          1           0        0.050771    1.366380    0.000000
      3          1           0       -0.876698    2.669091    0.000000
      4          8           0        0.052299   -2.169090   -0.000000
      5          1           0        0.790050   -2.818112   -0.000000
      6          1           0       -0.800904   -2.656482   -0.000000
 ---------------------------------------------------------------------

 SCF Done:  E(RHF) =  -152.109649066     A.U. after   10 cycles
 E2 =    -0.5259230034D+00 EUMP2 =    -0.15263557206962D+03
 CCSD(T)
 CCSD(T)= -0.15266272099D+03

 The electronic state is 1-A'.
 Alpha  occ. eigenvalues --  -20.56600 -20.54496  -1.33881  -1.31815  -0.71283
 Alpha  occ. eigenvalues --   -0.69207  -0.57417  -0.55299  -0.51009  -0.48948
 Alpha virt. eigenvalues --    0.12542   0.15837   0.19484   0.22427   0.53254
 Alpha virt. eigenvalues --    0.55341   0.56364   0.58444   0.67912   0.69345
 Alpha virt. eigenvalues --    0.77893   0.79085   0.79339   0.79883   0.83191

 Mulliken charges:
               1
     1  O   -0.518080
     2  H    0.264062
     3  H    0.251491
     4  O   -0.514311
     5  H    0.260123
     6  H    0.256715
 Sum of Mulliken charges =  -0.00000

 Dipole moment (field-independent basis, Debye):
    X=             -1.7840    Y=             -3.2306    Z=             -0.0000  Tot=              3.6905
 Quadrupole moment (field-independent basis, Debye-Ang):
   XX=             -9.2263   YY=             -7.1301   ZZ=            -14.7191
   XY=             -4.5663   XZ=             -0.0000   YZ=              0.0000

 CCSD(T)=-152.662721\RMSD=6.905e-09\PG=CS [SG(H4O2)]\\@
 Normal termination of Gaussian 16 at Fri Aug 26 19:50:23 2022.
