 Gaussian 16, Revision A.03,
 Gaussian 16:  ES64L-G16RevA.03 25-Dec-2016

 ------------------
 #p CCSD(T)/cc-pVTZ
 ------------------

 ------------
 H2O_H2O_3453
 ------------
 Symbolic Z-matrix:
 Charge =  0 Multiplicity = 1

                         Standard orientation:
 ---------------------------------------------------------------------
 Center     Atomic      Atomic             Coordinates (Angstroms)
 Number     Number       Type             X           Y           Z
 ---------------------------------------------------------------------
      1          8           0        0.085600   -2.472130    0.000000
      2          1           0        0.085340   -1.489529    0.000000
      3          1           0       -0.843809   -2.791043    0.000000
      4          8           0        0.085600    2.322531    0.000000
      5          1           0        0.277041    3.286302    0.000000
      6          1           0       -0.888167    2.191065    0.000000
 ---------------------------------------------------------------------

 SCF Done:  E(RHF) =  -152.108267189     A.U. after   10 cycles
 E2 =    -0.5259434940D+00 EUMP2 =    -0.15263421068349D+03
 CCSD(T)
 CCSD(T)= -0.15266139842D+03

 The electronic state is 1-A'.
 Alpha  occ. eigenvalues --  -20.56469 -20.55027  -1.33765  -1.32333  -0.71184
 Alpha  occ. eigenvalues --   -0.69721  -0.57244  -0.55792  -0.50879  -0.49450
 Alpha virt. eigenvalues --    0.12095   0.15372   0.19221   0.22298   0.53458
 Alpha virt. eigenvalues --    0.54997   0.56439   0.58074   0.67032   0.69068
 Alpha virt. eigenvalues --    0.78027   0.78632   0.79411   0.81052   0.82634

 Mulliken charges:
               1
     1  O   -0.511625
     2  H    0.260134
     3  H    0.250579
     4  O   -0.511394
     5  H    0.259739
     6  H    0.252565
 Sum of Mulliken charges =  -0.00000

 Dipole moment (field-independent basis, Debye):
    X=             -2.9235    Y=              2.6607    Z=              0.0000  Tot=              3.9530
 Quadrupole moment (field-independent basis, Debye-Ang):
   XX=            -10.4035   YY=             -8.3347   ZZ=            -14.7140
   XY=              2.8309   XZ=              0.0000   YZ=              0.0000

 Normal termination of Gaussian 16 at Fri Aug 26 21:46:57 2022.
