 Gaussian 16, Revision A.03,
 Gaussian 16:  ES64L-G16RevA.03 25-Dec-2016

 ------------------
 #p CCSD(T)/cc-pVTZ
 ------------------

 ------------
 H2O_H2O_4996
 ------------
 Symbolic Z-matrix:
 Charge =  0 Multiplicity = 1

                         Standard orientation:
 ---------------------------------------------------------------------
 Center     Atomic      Atomic             Coordinates (Angstroms)
 Number     Number       Type             X           Y           Z
 ---------------------------------------------------------------------
      1          8           0       -0.023153    3.091731    0.000000
      2          1           0       -0.021185    2.109132    0.000000
      3          1           0        0.905699    3.412259    0.000000
      4          8           0       -0.023153   -2.921314    0.000000
      5          1           0       -0.986489   -3.114940    0.000000
      6          1           0        0.472426   -3.769787    0.000000
 ---------------------------------------------------------------------

 SCF Done:  E(RHF) =  -152.108260197     A.U. after   10 cycles
 E2 =    -0.5258007435D+00 EUMP2 =    -0.15263406094073D+03
 CCSD(T)
 CCSD(T)= -0.15266126383D+03

 The electronic state is 1-A'.
 Alpha  occ. eigenvalues --  -20.56104 -20.55097  -1.33407  -1.32403  -0.70812
 Alpha  occ. eigenvalues --   -0.69809  -0.56893  -0.55873  -0.50525  -0.49525
 Alpha virt. eigenvalues --    0.13521   0.14726   0.19669   0.20913   0.53682
 Alpha virt. eigenvalues --    0.54776   0.56729   0.57725   0.67090   0.68429
 Alpha virt. eigenvalues --    0.78357   0.79336   0.79742   0.80662   0.82014

 Mulliken charges:
               1
     1  O   -0.513469
     2  H    0.258945
     3  H    0.254497
     4  O   -0.513938
     5  H    0.256899
     6  H    0.257067
 Sum of Mulliken charges =  -0.00000

 Dipole moment (field-independent basis, Debye):
    X=              0.7958    Y=             -2.9798    Z=              0.0000  Tot=              3.0842
 Quadrupole moment (field-independent basis, Debye-Ang):
   XX=             -9.3628   YY=             -6.5350   ZZ=            -14.7143
   XY=              7.5983   XZ=              0.0000   YZ=              0.0000

 Normal termination of Gaussian 16 at Sun Aug 28 07:32:57 2022.
