 Gaussian 16, Revision A.03,
 Gaussian 16:  ES64L-G16RevA.03 25-Dec-2016

 ------------------
 #p CCSD(T)/cc-pVTZ
 ------------------

 ------------
 H2O_H2O_4825
 ------------
 Symbolic Z-matrix:
 Charge =  0 Multiplicity = 1

                         Standard orientation:
 ---------------------------------------------------------------------
 Center     Atomic      Atomic             Coordinates (Angstroms)
 Number     Number       Type             X           Y           Z
 ---------------------------------------------------------------------
      1          8           0        0.092949   -3.011454    0.000000
      2          1           0        0.092949   -2.028853    0.000000
      3          1           0       -0.836544   -3.330121    0.000000
      4          8           0        0.092949    2.878667    0.000000
      5          1           0        0.092950    3.861270    0.000000
      6          1           0       -0.836544    2.560001    0.000000
 ---------------------------------------------------------------------

 SCF Done:  E(RHF) =  -152.107586825     A.U. after   10 cycles
 E2 =    -0.5258695113D+00 EUMP2 =    -0.15263345633618D+03
 CCSD(T)
 CCSD(T)= -0.15266067293D+03

 The electronic state is 1-A'.
 Alpha  occ. eigenvalues --  -20.56159 -20.55380  -1.33460  -1.32681  -0.70873
 Alpha  occ. eigenvalues --   -0.70079  -0.56917  -0.56132  -0.50570  -0.49793
 Alpha virt. eigenvalues --    0.13014   0.14585   0.18983   0.21390   0.53397
 Alpha virt. eigenvalues --    0.54693   0.56588   0.57567   0.67065   0.68279
 Alpha virt. eigenvalues --    0.78319   0.79082   0.79670   0.80984   0.81663

 Mulliken charges:
               1
     1  O   -0.509402
     2  H    0.256898
     3  H    0.252482
     4  O   -0.510245
     5  H    0.257681
     6  H    0.252585
 Sum of Mulliken charges =  -0.00000

 Dipole moment (field-independent basis, Debye):
    X=             -3.1903    Y=              2.3242    Z=              0.0000  Tot=              3.9472
 Quadrupole moment (field-independent basis, Debye-Ang):
   XX=            -10.8441   YY=             -9.2949   ZZ=            -14.7117
   XY=              2.1594   XZ=              0.0000   YZ=              0.0000

 Normal termination of Gaussian 16 at Sun Aug 28 06:11:06 2022.
