 Gaussian 16, Revision A.03,
 Gaussian 16:  ES64L-G16RevA.03 25-Dec-2016

 ------------------
 #p CCSD(T)/cc-pVTZ
 ------------------

 ------------
 H2O_H2O_1608
 ------------
 Symbolic Z-matrix:
 Charge =  0 Multiplicity = 1

                         Standard orientation:
 ---------------------------------------------------------------------
 Center     Atomic      Atomic             Coordinates (Angstroms)
 Number     Number       Type             X           Y           Z
 ---------------------------------------------------------------------
      1          8           0        0.070225    1.745401   -0.000000
      2          1           0        0.069062    0.762800   -0.000000
      3          1           0       -0.858890    2.065167   -0.000000
      4          8           0        0.070225   -1.575200    0.000000
      5          1           0        0.560519   -2.426739    0.000000
      6          1           0       -0.894295   -1.762832    0.000000
 ---------------------------------------------------------------------

 SCF Done:  E(RHF) =  -152.112361920     A.U. after   10 cycles
 E2 =    -0.5270519712D+00 EUMP2 =    -0.15263941389135D+03
 CCSD(T)
 CCSD(T)= -0.15266644749D+03

 The electronic state is 1-A'.
 Alpha  occ. eigenvalues --  -20.57791 -20.53466  -1.35078  -1.30861  -0.72499
 Alpha  occ. eigenvalues --   -0.68353  -0.58784  -0.54239  -0.52194  -0.47998
 Alpha virt. eigenvalues --    0.11899   0.16969   0.19400   0.27984   0.49962
 Alpha virt. eigenvalues --    0.55223   0.56660   0.58680   0.69504   0.73331
 Alpha virt. eigenvalues --    0.74720   0.77084   0.81097   0.82989   0.84177

 Mulliken charges:
               1
     1  O   -0.531640
     2  H    0.274181
     3  H    0.243043
     4  O   -0.500343
     5  H    0.260402
     6  H    0.254356
 Sum of Mulliken charges =  -0.00000

 Dipole moment (field-independent basis, Debye):
    X=             -2.3563    Y=             -3.2959    Z=              0.0000  Tot=              4.0516
 Quadrupole moment (field-independent basis, Debye-Ang):
   XX=             -9.7046   YY=             -8.3184   ZZ=            -14.7286
   XY=             -3.2727   XZ=              0.0000   YZ=             -0.0000

 Normal termination of Gaussian 16 at Sat Aug 27 23:52:05 2022.
