 Gaussian 16, Revision A.03,
 Gaussian 16:  ES64L-G16RevA.03 25-Dec-2016

 ------------------
 #p CCSD(T)/cc-pVTZ
 ------------------

 -----------
 H2O_H2O_947
 -----------
 Symbolic Z-matrix:
 Charge =  0 Multiplicity = 1

                         Standard orientation:
 ---------------------------------------------------------------------
 Center     Atomic      Atomic             Coordinates (Angstroms)
 Number     Number       Type             X           Y           Z
 ---------------------------------------------------------------------
      1          8           0       -0.020007    1.474453    0.000000
      2          1           0       -0.015548    0.491861    0.000000
      3          1           0        0.908030    1.797334    0.000000
      4          8           0       -0.020007   -1.307419    0.000000
      5          1           0       -0.993611   -1.440094    0.000000
      6          1           0        0.421245   -2.185373    0.000000
 ---------------------------------------------------------------------

 SCF Done:  E(RHF) =  -152.111901152     A.U. after   10 cycles
 E2 =    -0.5289012130D+00 EUMP2 =    -0.15264080236505D+03
 CCSD(T)
 CCSD(T)= -0.15266762187D+03

 The electronic state is 1-A'.
 Alpha  occ. eigenvalues --  -20.58872 -20.51660  -1.36498  -1.29393  -0.74036
 Alpha  occ. eigenvalues --   -0.67969  -0.59928  -0.53493  -0.52314  -0.46504
 Alpha virt. eigenvalues --    0.11928   0.18310   0.18863   0.32344   0.48705
 Alpha virt. eigenvalues --    0.54516   0.56335   0.63932   0.68322   0.72508
 Alpha virt. eigenvalues --    0.73724   0.76762   0.81370   0.82842   0.84256

 Mulliken charges:
               1
     1  O   -0.575627
     2  H    0.292686
     3  H    0.247956
     4  O   -0.469236
     5  H    0.261931
     6  H    0.242290
 Sum of Mulliken charges =  -0.00000

 Dipole moment (field-independent basis, Debye):
    X=              0.6699    Y=             -3.5716    Z=              0.0000  Tot=              3.6339
 Quadrupole moment (field-independent basis, Debye-Ang):
   XX=             -9.4328   YY=             -8.8792   ZZ=            -14.7150
   XY=              3.7568   XZ=              0.0000   YZ=              0.0000

 Normal termination of Gaussian 16 at Fri Aug 26 21:30:18 2022.
