 Gaussian 16, Revision A.03,
 Gaussian 16:  ES64L-G16RevA.03 25-Dec-2016

 ------------------
 #p CCSD(T)/cc-pVTZ
 ------------------

 ------------
 H2O_H2O_3918
 ------------
 Symbolic Z-matrix:
 Charge =  0 Multiplicity = 1

                         Standard orientation:
 ---------------------------------------------------------------------
 Center     Atomic      Atomic             Coordinates (Angstroms)
 Number     Number       Type             X           Y           Z
 ---------------------------------------------------------------------
      1          8           0        0.033766    2.666808    0.000000
      2          1           0        0.031818    1.684208    0.000000
      3          1           0       -0.895093    2.987316    0.000000
      4          8           0        0.033766   -2.489266    0.000000
      5          1           0        0.940825   -2.867090    0.000000
      6          1           0       -0.617805   -3.224767    0.000000
 ---------------------------------------------------------------------

 SCF Done:  E(RHF) =  -152.108866563     A.U. after   10 cycles
 E2 =    -0.5258161080D+00 EUMP2 =    -0.15263468267149D+03
 CCSD(T)
 CCSD(T)= -0.15266186470D+03

 The electronic state is 1-A'.
 Alpha  occ. eigenvalues --  -20.56309 -20.54807  -1.33606  -1.32119  -0.71009
 Alpha  occ. eigenvalues --   -0.69520  -0.57116  -0.55598  -0.50728  -0.49246
 Alpha virt. eigenvalues --    0.13012   0.15257   0.19582   0.21439   0.53469
 Alpha virt. eigenvalues --    0.54997   0.56588   0.57850   0.66689   0.69131
 Alpha virt. eigenvalues --    0.78166   0.79171   0.79600   0.79952   0.82897

 Mulliken charges:
               1
     1  O   -0.515840
     2  H    0.261650
     3  H    0.253642
     4  O   -0.515985
     5  H    0.258709
     6  H    0.257826
 Sum of Mulliken charges =  -0.00000

 Dipole moment (field-independent basis, Debye):
    X=             -1.1565    Y=             -3.1370    Z=              0.0000  Tot=              3.3434
 Quadrupole moment (field-independent basis, Debye-Ang):
   XX=             -9.1863   YY=             -6.7303   ZZ=            -14.7164
   XY=             -5.9733   XZ=              0.0000   YZ=              0.0000

 Normal termination of Gaussian 16 at Sat Aug 27 00:27:48 2022.
