 Gaussian 16, Revision A.03,
 Gaussian 16:  ES64L-G16RevA.03 25-Dec-2016

 ------------------
 #p CCSD(T)/cc-pVTZ
 ------------------

 ------------
 H2O_H2O_2945
 ------------
 Symbolic Z-matrix:
 Charge =  0 Multiplicity = 1

                         Standard orientation:
 ---------------------------------------------------------------------
 Center     Atomic      Atomic             Coordinates (Angstroms)
 Number     Number       Type             X           Y           Z
 ---------------------------------------------------------------------
      1          8           0        0.026664    2.275558    0.000000
      2          1           0        0.024094    1.292960    0.000000
      3          1           0       -0.901992    2.596655    0.000000
      4          8           0        0.026664   -2.102338   -0.000000
      5          1           0        0.975117   -2.359136   -0.000000
      6          1           0       -0.523845   -2.916245   -0.000000
 ---------------------------------------------------------------------

 SCF Done:  E(RHF) =  -152.110038996     A.U. after   10 cycles
 E2 =    -0.5259338544D+00 EUMP2 =    -0.15263597285074D+03
 CCSD(T)
 CCSD(T)= -0.15266311107D+03

 The electronic state is 1-A'.
 Alpha  occ. eigenvalues --  -20.56664 -20.54474  -1.33944  -1.31796  -0.71346
 Alpha  occ. eigenvalues --   -0.69198  -0.57496  -0.55288  -0.51075  -0.48935
 Alpha virt. eigenvalues --    0.12421   0.16000   0.19361   0.22978   0.53412
 Alpha virt. eigenvalues --    0.55549   0.56427   0.58447   0.68406   0.69359
 Alpha virt. eigenvalues --    0.77806   0.78967   0.79896   0.80012   0.83244

 Mulliken charges:
               1
     1  O   -0.520621
     2  H    0.264080
     3  H    0.253450
     4  O   -0.514746
     5  H    0.259550
     6  H    0.258287
 Sum of Mulliken charges =  -0.00000

 Dipole moment (field-independent basis, Debye):
    X=             -0.9107    Y=             -3.1234    Z=             -0.0000  Tot=              3.2534
 Quadrupole moment (field-independent basis, Debye-Ang):
   XX=             -9.2883   YY=             -7.4696   ZZ=            -14.7203
   XY=             -5.4751   XZ=             -0.0000   YZ=             -0.0000

 Normal termination of Gaussian 16 at Fri Aug 26 18:37:27 2022.
