 Gaussian 16, Revision A.03,
 Gaussian 16:  ES64L-G16RevA.03 25-Dec-2016

 ------------------
 #p CCSD(T)/cc-pVTZ
 ------------------

 ----------
 H2O_H2O_11
 ----------
 Symbolic Z-matrix:
 Charge =  0 Multiplicity = 1

                         Standard orientation:
 ---------------------------------------------------------------------
 Center     Atomic      Atomic             Coordinates (Angstroms)
 Number     Number       Type             X           Y           Z
 ---------------------------------------------------------------------
      1          8           0        0.059778    1.111041    0.000000
      2          1           0        0.057013    0.128444    0.000000
      3          1           0       -0.868815    1.432322    0.000000
      4          8           0        0.059778   -0.933780    0.000000
      5          1           0        0.705570   -1.674360    0.000000
      6          1           0       -0.850211   -1.304493    0.000000
 ---------------------------------------------------------------------

 SCF Done:  E(RHF) =  -152.026056142     A.U. after   11 cycles
 E2 =    -0.5367369895D+00 EUMP2 =    -0.15256279313117D+03
 CCSD(T)
 CCSD(T)= -0.15258823422D+03

 The electronic state is 1-A'.
 Alpha  occ. eigenvalues --  -20.62316 -20.43633  -1.44824  -1.24221  -0.81299
 Alpha  occ. eigenvalues --   -0.77501  -0.59181  -0.53975  -0.43785  -0.40615
 Alpha virt. eigenvalues --    0.10179   0.15991   0.21534   0.32296   0.47942
 Alpha virt. eigenvalues --    0.51555   0.61903   0.63972   0.70130   0.71145
 Alpha virt. eigenvalues --    0.78569   0.79286   0.81949   0.83114   0.89153

 Mulliken charges:
               1
     1  O   -0.673203
     2  H    0.274923
     3  H    0.192703
     4  O   -0.278251
     5  H    0.240136
     6  H    0.243693
 Sum of Mulliken charges =  -0.00000

 Dipole moment (field-independent basis, Debye):
    X=             -1.7892    Y=             -5.1220    Z=             -0.0000  Tot=              5.4255
 Quadrupole moment (field-independent basis, Debye-Ang):
   XX=             -9.3148   YY=            -10.3130   ZZ=            -14.5295
   XY=             -2.6050   XZ=             -0.0000   YZ=             -0.0000

 Normal termination of Gaussian 16 at Fri Aug 26 15:15:38 2022.
