 Gaussian 16, Revision A.03,
 Gaussian 16:  ES64L-G16RevA.03 25-Dec-2016

 ------------------
 #p CCSD(T)/cc-pVTZ
 ------------------

 ------------
 H2O_H2O_4815
 ------------
 Symbolic Z-matrix:
 Charge =  0 Multiplicity = 1

                         Standard orientation:
 ---------------------------------------------------------------------
 Center     Atomic      Atomic             Coordinates (Angstroms)
 Number     Number       Type             X           Y           Z
 ---------------------------------------------------------------------
      1          8           0        0.044820    3.027368    0.000000
      2          1           0        0.043430    2.044767    0.000000
      3          1           0       -0.884221    3.347348    0.000000
      4          8           0        0.044820   -2.846930    0.000000
      5          1           0        0.861051   -3.393988    0.000000
      6          1           0       -0.737383   -3.441627    0.000000
 ---------------------------------------------------------------------

 SCF Done:  E(RHF) =  -152.108299252     A.U. after   10 cycles
 E2 =    -0.5258058744D+00 EUMP2 =    -0.15263410512685D+03
 CCSD(T)
 CCSD(T)= -0.15266130624D+03

 The electronic state is 1-A'.
 Alpha  occ. eigenvalues --  -20.56133 -20.55004  -1.33435  -1.32311  -0.70839
 Alpha  occ. eigenvalues --   -0.69713  -0.56924  -0.55780  -0.50553  -0.49433
 Alpha virt. eigenvalues --    0.13498   0.14815   0.19736   0.20931   0.53712
 Alpha virt. eigenvalues --    0.54817   0.56706   0.57779   0.67001   0.68575
 Alpha virt. eigenvalues --    0.78330   0.79426   0.79741   0.80406   0.82373

 Mulliken charges:
               1
     1  O   -0.513430
     2  H    0.259816
     3  H    0.253561
     4  O   -0.514089
     5  H    0.257781
     6  H    0.256360
 Sum of Mulliken charges =  -0.00000

 Dipole moment (field-independent basis, Debye):
    X=             -1.5383    Y=             -3.1596    Z=             -0.0000  Tot=              3.5142
 Quadrupole moment (field-independent basis, Debye-Ang):
   XX=             -9.1570   YY=             -6.0082   ZZ=            -14.7144
   XY=             -5.9967   XZ=             -0.0000   YZ=             -0.0000

 Normal termination of Gaussian 16 at Sun Aug 28 06:06:38 2022.
