 Gaussian 16, Revision A.03,
 Gaussian 16:  ES64L-G16RevA.03 25-Dec-2016

 ------------------
 #p CCSD(T)/cc-pVTZ
 ------------------

 ------------
 H2O_H2O_2916
 ------------
 Symbolic Z-matrix:
 Charge =  0 Multiplicity = 1

                         Standard orientation:
 ---------------------------------------------------------------------
 Center     Atomic      Atomic             Coordinates (Angstroms)
 Number     Number       Type             X           Y           Z
 ---------------------------------------------------------------------
      1          8           0        0.041148    2.269222    0.000000
      2          1           0        0.039130    1.286622    0.000000
      3          1           0       -0.887689    2.589796   -0.000000
      4          8           0        0.041148   -2.089304    0.000000
      5          1           0        0.891095   -2.582351    0.000000
      6          1           0       -0.700897   -2.733412   -0.000000
 ---------------------------------------------------------------------

 SCF Done:  E(RHF) =  -152.110104916     A.U. after   10 cycles
 E2 =    -0.5259503997D+00 EUMP2 =    -0.15263605531548D+03
 CCSD(T)
 CCSD(T)= -0.15266319034D+03

 The electronic state is 1-A'.
 Alpha  occ. eigenvalues --  -20.56692 -20.54382  -1.33967  -1.31705  -0.71366
 Alpha  occ. eigenvalues --   -0.69101  -0.57522  -0.55194  -0.51099  -0.48843
 Alpha virt. eigenvalues --    0.12484   0.16040   0.19427   0.22916   0.53127
 Alpha virt. eigenvalues --    0.55520   0.56368   0.58639   0.68611   0.69328
 Alpha virt. eigenvalues --    0.77783   0.79098   0.79476   0.79984   0.83321

 Mulliken charges:
               1
     1  O   -0.520260
     2  H    0.264818
     3  H    0.252011
     4  O   -0.514133
     5  H    0.260123
     6  H    0.257442
 Sum of Mulliken charges =  -0.00000

 Dipole moment (field-independent basis, Debye):
    X=             -1.4025    Y=             -3.2494    Z=             -0.0000  Tot=              3.5392
 Quadrupole moment (field-independent basis, Debye-Ang):
   XX=             -9.1492   YY=             -7.2532   ZZ=            -14.7206
   XY=             -4.8743   XZ=              0.0000   YZ=             -0.0000

 Normal termination of Gaussian 16 at Fri Aug 26 18:20:02 2022.
