 Gaussian 16, Revision A.03,
 Gaussian 16:  ES64L-G16RevA.03 25-Dec-2016

 ------------------
 #p CCSD(T)/cc-pVTZ
 ------------------

 ------------
 H2O_H2O_1538
 ------------
 Symbolic Z-matrix:
 Charge =  0 Multiplicity = 1

                         Standard orientation:
 ---------------------------------------------------------------------
 Center     Atomic      Atomic             Coordinates (Angstroms)
 Number     Number       Type             X           Y           Z
 ---------------------------------------------------------------------
      1          8           0        0.052353    1.720718    0.000000
      2          1           0        0.050237    0.738119    0.000000
      3          1           0       -0.876452    2.041385   -0.000000
      4          8           0        0.052353   -1.540890    0.000000
      5          1           0        0.789714   -2.190353    0.000000
      6          1           0       -0.801143   -2.027772   -0.000000
 ---------------------------------------------------------------------

 SCF Done:  E(RHF) =  -152.113632951     A.U. after   10 cycles
 E2 =    -0.5270842419D+00 EUMP2 =    -0.15264071719334D+03
 CCSD(T)
 CCSD(T)= -0.15266772286D+03

 The electronic state is 1-A'.
 Alpha  occ. eigenvalues --  -20.57906 -20.53021  -1.35184  -1.30453  -0.72532
 Alpha  occ. eigenvalues --   -0.68066  -0.58982  -0.53809  -0.52315  -0.47601
 Alpha virt. eigenvalues --    0.12043   0.17464   0.19051   0.28755   0.49922
 Alpha virt. eigenvalues --    0.54794   0.56249   0.59357   0.69174   0.72088
 Alpha virt. eigenvalues --    0.74478   0.76773   0.81440   0.83056   0.84753

 Mulliken charges:
               1
     1  O   -0.539472
     2  H    0.277124
     3  H    0.245201
     4  O   -0.505714
     5  H    0.264722
     6  H    0.258139
 Sum of Mulliken charges =   0.00000

 Dipole moment (field-independent basis, Debye):
    X=             -1.7555    Y=             -3.5125    Z=             -0.0000  Tot=              3.9268
 Quadrupole moment (field-independent basis, Debye-Ang):
   XX=             -9.2340   YY=             -8.2403   ZZ=            -14.7343
   XY=             -3.6719   XZ=             -0.0000   YZ=             -0.0000

 70459\MP4DQ=-152.6494143\MP4SDQ=-152.652526\CCSD=-152.6519016\CCSD(T)=
 Normal termination of Gaussian 16 at Sat Aug 27 22:58:47 2022.
