 Gaussian 16, Revision A.03,
 Gaussian 16:  ES64L-G16RevA.03 25-Dec-2016

 ------------------
 #p CCSD(T)/cc-pVTZ
 ------------------

 ------------
 H2O_H2O_3538
 ------------
 Symbolic Z-matrix:
 Charge =  0 Multiplicity = 1

                         Standard orientation:
 ---------------------------------------------------------------------
 Center     Atomic      Atomic             Coordinates (Angstroms)
 Number     Number       Type             X           Y           Z
 ---------------------------------------------------------------------
      1          8           0        0.052289    2.518509    0.000000
      2          1           0        0.050868    1.535908    0.000000
      3          1           0       -0.876742    2.838519   -0.000000
      4          8           0        0.052289   -2.338607    0.000000
      5          1           0        0.790111   -2.987548    0.000000
      6          1           0       -0.800861   -2.826092   -0.000000
 ---------------------------------------------------------------------

 SCF Done:  E(RHF) =  -152.109107199     A.U. after   10 cycles
 E2 =    -0.5258607026D+00 EUMP2 =    -0.15263496790163D+03
 CCSD(T)
 CCSD(T)= -0.15266213765D+03

 The electronic state is 1-A'.
 Alpha  occ. eigenvalues --  -20.56431 -20.54673  -1.33722  -1.31987  -0.71125
 Alpha  occ. eigenvalues --   -0.69382  -0.57238  -0.55467  -0.50845  -0.49116
 Alpha virt. eigenvalues --    0.12777   0.15497   0.19563   0.21746   0.53425
 Alpha virt. eigenvalues --    0.55059   0.56482   0.58016   0.66975   0.69318
 Alpha virt. eigenvalues --    0.78058   0.79084   0.79522   0.79724   0.83024

 Mulliken charges:
               1
     1  O   -0.516173
     2  H    0.262770
     3  H    0.252187
     4  O   -0.515298
     5  H    0.259747
     6  H    0.256767
 Sum of Mulliken charges =  -0.00000

 Dipole moment (field-independent basis, Debye):
    X=             -1.7873    Y=             -3.1997    Z=             -0.0000  Tot=              3.6650
 Quadrupole moment (field-independent basis, Debye-Ang):
   XX=             -9.2256   YY=             -6.8603   ZZ=            -14.7173
   XY=             -4.8055   XZ=              0.0000   YZ=             -0.0000

 CCSD(T)=-152.6621377\RMSD=7.021e-09\PG=CS [SG(H4O2)]\\@
 Normal termination of Gaussian 16 at Fri Aug 26 22:16:18 2022.
