 Gaussian 16, Revision A.03,
 Gaussian 16:  ES64L-G16RevA.03 25-Dec-2016

 ------------------
 #p CCSD(T)/cc-pVTZ
 ------------------

 ------------
 H2O_H2O_4418
 ------------
 Symbolic Z-matrix:
 Charge =  0 Multiplicity = 1

                         Standard orientation:
 ---------------------------------------------------------------------
 Center     Atomic      Atomic             Coordinates (Angstroms)
 Number     Number       Type             X           Y           Z
 ---------------------------------------------------------------------
      1          8           0        0.033753    2.866251    0.000000
      2          1           0        0.031945    1.883651    0.000000
      3          1           0       -0.895152    3.186627    0.000000
      4          8           0        0.033753   -2.688699   -0.000000
      5          1           0        0.940865   -3.066394   -0.000000
      6          1           0       -0.617713   -3.424293   -0.000000
 ---------------------------------------------------------------------

 SCF Done:  E(RHF) =  -152.108524770     A.U. after   10 cycles
 E2 =    -0.5258016650D+00 EUMP2 =    -0.15263432643499D+03
 CCSD(T)
 CCSD(T)= -0.15266152102D+03

 The electronic state is 1-A'.
 Alpha  occ. eigenvalues --  -20.56197 -20.54937  -1.33498  -1.32246  -0.70902
 Alpha  occ. eigenvalues --   -0.69649  -0.56996  -0.55719  -0.50618  -0.49370
 Alpha virt. eigenvalues --    0.13313   0.14979   0.19660   0.21116   0.53601
 Alpha virt. eigenvalues --    0.54883   0.56662   0.57806   0.66791   0.68800
 Alpha virt. eigenvalues --    0.78269   0.79484   0.79545   0.80211   0.82707

 Mulliken charges:
               1
     1  O   -0.514532
     2  H    0.260502
     3  H    0.253869
     4  O   -0.515151
     5  H    0.258007
     6  H    0.257305
 Sum of Mulliken charges =  -0.00000

 Dipole moment (field-independent basis, Debye):
    X=             -1.1578    Y=             -3.1188    Z=             -0.0000  Tot=              3.3267
 Quadrupole moment (field-independent basis, Debye-Ang):
   XX=             -9.1867   YY=             -6.4264   ZZ=            -14.7152
   XY=             -6.3810   XZ=             -0.0000   YZ=              0.0000

 Normal termination of Gaussian 16 at Sun Aug 28 02:42:55 2022.
