 Gaussian 16, Revision A.03,
 Gaussian 16:  ES64L-G16RevA.03 25-Dec-2016

 ------------------
 #p CCSD(T)/cc-pVTZ
 ------------------

 ------------
 H2O_H2O_1103
 ------------
 Symbolic Z-matrix:
 Charge =  0 Multiplicity = 1

                         Standard orientation:
 ---------------------------------------------------------------------
 Center     Atomic      Atomic             Coordinates (Angstroms)
 Number     Number       Type             X           Y           Z
 ---------------------------------------------------------------------
      1          8           0        0.085612   -1.534754    0.000000
      2          1           0        0.085185   -0.552153    0.000000
      3          1           0       -0.843742   -1.853825    0.000000
      4          8           0        0.085612    1.385184    0.000000
      5          1           0        0.276890    2.348988    0.000000
      6          1           0       -0.888132    1.253552    0.000000
 ---------------------------------------------------------------------

 SCF Done:  E(RHF) =  -152.109433351     A.U. after   10 cycles
 E2 =    -0.5288085160D+00 EUMP2 =    -0.15263824186702D+03
 CCSD(T)
 CCSD(T)= -0.15266520576D+03

 The electronic state is 1-A'.
 Alpha  occ. eigenvalues --  -20.58531 -20.53201  -1.36055  -1.30710  -0.73898
 Alpha  occ. eigenvalues --   -0.68265  -0.59445  -0.53911  -0.53044  -0.47793
 Alpha virt. eigenvalues --    0.11540   0.16617   0.20191   0.30373   0.48602
 Alpha virt. eigenvalues --    0.54014   0.58262   0.59607   0.68738   0.72477
 Alpha virt. eigenvalues --    0.74479   0.77504   0.81076   0.81807   0.83531

 Mulliken charges:
               1
     1  O   -0.538915
     2  H    0.283883
     3  H    0.233936
     4  O   -0.458419
     5  H    0.238480
     6  H    0.241034
 Sum of Mulliken charges =  -0.00000

 Dipole moment (field-independent basis, Debye):
    X=             -2.8282    Y=              3.0878    Z=              0.0000  Tot=              4.1873
 Quadrupole moment (field-independent basis, Debye-Ang):
   XX=            -10.4507   YY=             -8.9140   ZZ=            -14.7062
   XY=              2.5470   XZ=              0.0000   YZ=              0.0000

 CCSD(T)=-152.6652058\RMSD=7.679e-09\PG=CS [SG(H4O2)]\\@
 Normal termination of Gaussian 16 at Fri Aug 26 22:28:52 2022.
