 Gaussian 16, Revision A.03,
 Gaussian 16:  ES64L-G16RevA.03 25-Dec-2016

 ------------------
 #p CCSD(T)/cc-pVTZ
 ------------------

 ------------
 H2O_H2O_4217
 ------------
 Symbolic Z-matrix:
 Charge =  0 Multiplicity = 1

                         Standard orientation:
 ---------------------------------------------------------------------
 Center     Atomic      Atomic             Coordinates (Angstroms)
 Number     Number       Type             X           Y           Z
 ---------------------------------------------------------------------
      1          8           0        0.037416    2.787256    0.000000
      2          1           0        0.035669    1.804656    0.000000
      3          1           0       -0.891509    3.107574   -0.000000
      4          8           0        0.037416   -2.608267    0.000000
      5          1           0        0.917910   -3.044426    0.000000
      6          1           0       -0.660722   -3.299721   -0.000000
 ---------------------------------------------------------------------

 SCF Done:  E(RHF) =  -152.108638808     A.U. after   10 cycles
 E2 =    -0.5258066999D+00 EUMP2 =    -0.15263444550784D+03
 CCSD(T)
 CCSD(T)= -0.15266163585D+03

 The electronic state is 1-A'.
 Alpha  occ. eigenvalues --  -20.56239 -20.54879  -1.33538  -1.32188  -0.70942
 Alpha  occ. eigenvalues --   -0.69590  -0.57040  -0.55664  -0.50659  -0.49314
 Alpha virt. eigenvalues --    0.13212   0.15083   0.19651   0.21207   0.53577
 Alpha virt. eigenvalues --    0.54904   0.56631   0.57817   0.66709   0.68947
 Alpha virt. eigenvalues --    0.78231   0.79477   0.79538   0.79982   0.82808

 Mulliken charges:
               1
     1  O   -0.514926
     2  H    0.261055
     3  H    0.253596
     4  O   -0.515489
     5  H    0.258426
     6  H    0.257337
 Sum of Mulliken charges =   0.00000

 Dipole moment (field-independent basis, Debye):
    X=             -1.2825    Y=             -3.1508    Z=             -0.0000  Tot=              3.4018
 Quadrupole moment (field-independent basis, Debye-Ang):
   XX=             -9.1594   YY=             -6.4734   ZZ=            -14.7156
   XY=             -6.0104   XZ=              0.0000   YZ=             -0.0000

 Normal termination of Gaussian 16 at Sun Aug 28 00:53:27 2022.
