 Gaussian 16, Revision A.03,
 Gaussian 16:  ES64L-G16RevA.03 25-Dec-2016

 ------------------
 #p CCSD(T)/cc-pVTZ
 ------------------

 ------------
 H2O_H2O_4337
 ------------
 Symbolic Z-matrix:
 Charge =  0 Multiplicity = 1

                         Standard orientation:
 ---------------------------------------------------------------------
 Center     Atomic      Atomic             Coordinates (Angstroms)
 Number     Number       Type             X           Y           Z
 ---------------------------------------------------------------------
      1          8           0        0.055968    2.837084    0.000000
      2          1           0        0.054826    1.854484    0.000000
      3          1           0       -0.873155    3.156831    0.000000
      4          8           0        0.055968   -2.658149   -0.000000
      5          1           0        0.749964   -3.353759   -0.000000
      6          1           0       -0.827116   -3.089042   -0.000000
 ---------------------------------------------------------------------

 SCF Done:  E(RHF) =  -152.108439536     A.U. after   10 cycles
 E2 =    -0.5258177459D+00 EUMP2 =    -0.15263425728156D+03
 CCSD(T)
 CCSD(T)= -0.15266145258D+03

 The electronic state is 1-A'.
 Alpha  occ. eigenvalues --  -20.56219 -20.54921  -1.33519  -1.32228  -0.70924
 Alpha  occ. eigenvalues --   -0.69628  -0.57013  -0.55699  -0.50638  -0.49351
 Alpha virt. eigenvalues --    0.13261   0.14995   0.19661   0.21114   0.53602
 Alpha virt. eigenvalues --    0.54870   0.56630   0.57803   0.66761   0.68861
 Alpha virt. eigenvalues --    0.78251   0.79503   0.79546   0.80061   0.82747

 Mulliken charges:
               1
     1  O   -0.513786
     2  H    0.260742
     3  H    0.252844
     4  O   -0.514584
     5  H    0.258685
     6  H    0.256098
 Sum of Mulliken charges =   0.00000

 Dipole moment (field-independent basis, Debye):
    X=             -1.9184    Y=             -3.1461    Z=             -0.0000  Tot=              3.6849
 Quadrupole moment (field-independent basis, Debye-Ang):
   XX=             -9.2852   YY=             -6.4058   ZZ=            -14.7149
   XY=             -5.0396   XZ=             -0.0000   YZ=              0.0000

 Normal termination of Gaussian 16 at Sun Aug 28 01:57:08 2022.
