 Gaussian 16, Revision A.03,
 Gaussian 16:  ES64L-G16RevA.03 25-Dec-2016

 ------------------
 #p CCSD(T)/cc-pVTZ
 ------------------

 ------------
 H2O_H2O_2624
 ------------
 Symbolic Z-matrix:
 Charge =  0 Multiplicity = 1

                         Standard orientation:
 ---------------------------------------------------------------------
 Center     Atomic      Atomic             Coordinates (Angstroms)
 Number     Number       Type             X           Y           Z
 ---------------------------------------------------------------------
      1          8           0       -0.013543    2.138340    0.000000
      2          1           0       -0.010270    1.155744    0.000000
      3          1           0        0.914883    2.460101    0.000000
      4          8           0       -0.013543   -1.979086    0.000000
      5          1           0       -0.996139   -1.982360    0.000000
      6          1           0        0.308219   -2.907513    0.000000
 ---------------------------------------------------------------------

 SCF Done:  E(RHF) =  -152.110354305     A.U. after   10 cycles
 E2 =    -0.5260308652D+00 EUMP2 =    -0.15263638517050D+03
 CCSD(T)
 CCSD(T)= -0.15266351142D+03

 The electronic state is 1-A'.
 Alpha  occ. eigenvalues --  -20.56820 -20.54503  -1.34102  -1.31827  -0.71517
 Alpha  occ. eigenvalues --   -0.69237  -0.57666  -0.55317  -0.51230  -0.48970
 Alpha virt. eigenvalues --    0.12168   0.16225   0.19248   0.24109   0.54068
 Alpha virt. eigenvalues --    0.55473   0.56192   0.58470   0.68668   0.70228
 Alpha virt. eigenvalues --    0.77529   0.79149   0.79891   0.80714   0.83482

 Mulliken charges:
               1
     1  O   -0.523029
     2  H    0.263983
     3  H    0.254861
     4  O   -0.513117
     5  H    0.258749
     6  H    0.258553
 Sum of Mulliken charges =  -0.00000

 Dipole moment (field-independent basis, Debye):
    X=              0.4674    Y=             -2.8976    Z=              0.0000  Tot=              2.9350
 Quadrupole moment (field-independent basis, Debye-Ang):
   XX=             -9.6488   YY=             -8.1159   ZZ=            -14.7209
   XY=              5.7748   XZ=              0.0000   YZ=              0.0000

 Normal termination of Gaussian 16 at Fri Aug 26 16:07:05 2022.
