 Gaussian 16, Revision A.03,
 Gaussian 16:  ES64L-G16RevA.03 25-Dec-2016

 ------------------
 #p CCSD(T)/cc-pVTZ
 ------------------

 ------------
 H2O_H2O_2032
 ------------
 Symbolic Z-matrix:
 Charge =  0 Multiplicity = 1

                         Standard orientation:
 ---------------------------------------------------------------------
 Center     Atomic      Atomic             Coordinates (Angstroms)
 Number     Number       Type             X           Y           Z
 ---------------------------------------------------------------------
      1          8           0        0.073551    1.913138    0.000000
      2          1           0        0.072650    0.930537    0.000000
      3          1           0       -0.855650    2.232656   -0.000000
      4          8           0        0.073551   -1.746222    0.000000
      5          1           0        0.507336   -2.627889    0.000000
      6          1           0       -0.901144   -1.870629   -0.000000
 ---------------------------------------------------------------------

 SCF Done:  E(RHF) =  -152.111068540     A.U. after   10 cycles
 E2 =    -0.5265072863D+00 EUMP2 =    -0.15263757582638D+03
 CCSD(T)
 CCSD(T)= -0.15266466150D+03

 The electronic state is 1-A'.
 Alpha  occ. eigenvalues --  -20.57317 -20.54055  -1.34584  -1.31396  -0.72009
 Alpha  occ. eigenvalues --   -0.68786  -0.58196  -0.54841  -0.51708  -0.48531
 Alpha virt. eigenvalues --    0.11948   0.16579   0.19466   0.25739   0.51731
 Alpha virt. eigenvalues --    0.55699   0.56150   0.58337   0.68937   0.72616
 Alpha virt. eigenvalues --    0.76311   0.78416   0.80441   0.83358   0.83583

 Mulliken charges:
               1
     1  O   -0.522884
     2  H    0.267857
     3  H    0.245822
     4  O   -0.504620
     5  H    0.260314
     6  H    0.253511
 Sum of Mulliken charges =  -0.00000

 Dipole moment (field-independent basis, Debye):
    X=             -2.4851    Y=             -3.1281    Z=             -0.0000  Tot=              3.9951
 Quadrupole moment (field-independent basis, Debye-Ang):
   XX=             -9.8304   YY=             -8.1439   ZZ=            -14.7238
   XY=             -3.2822   XZ=              0.0000   YZ=             -0.0000

 Normal termination of Gaussian 16 at Sun Aug 28 03:44:47 2022.
