 Gaussian 16, Revision A.03,
 Gaussian 16:  ES64L-G16RevA.03 25-Dec-2016

 ------------------
 #p CCSD(T)/cc-pVTZ
 ------------------

 ------------
 H2O_H2O_4731
 ------------
 Symbolic Z-matrix:
 Charge =  0 Multiplicity = 1

                         Standard orientation:
 ---------------------------------------------------------------------
 Center     Atomic      Atomic             Coordinates (Angstroms)
 Number     Number       Type             X           Y           Z
 ---------------------------------------------------------------------
      1          8           0        0.076747    2.988102   -0.000000
      2          1           0        0.076274    2.005501   -0.000000
      3          1           0       -0.852593    3.307216   -0.000000
      4          8           0        0.076747   -2.824873    0.000000
      5          1           0        0.452336   -3.732859    0.000000
      6          1           0       -0.903970   -2.885692    0.000000
 ---------------------------------------------------------------------

 SCF Done:  E(RHF) =  -152.107985295     A.U. after   10 cycles
 E2 =    -0.5258375886D+00 EUMP2 =    -0.15263382288356D+03
 CCSD(T)
 CCSD(T)= -0.15266103018D+03

 The electronic state is 1-A'.
 Alpha  occ. eigenvalues --  -20.56158 -20.55134  -1.33460  -1.32439  -0.70870
 Alpha  occ. eigenvalues --   -0.69837  -0.56934  -0.55899  -0.50575  -0.49556
 Alpha virt. eigenvalues --    0.13309   0.14730   0.19490   0.21026   0.53537
 Alpha virt. eigenvalues --    0.54804   0.56645   0.57705   0.66992   0.68509
 Alpha virt. eigenvalues --    0.78312   0.79309   0.79627   0.80718   0.82118

 Mulliken charges:
               1
     1  O   -0.511517
     2  H    0.258899
     3  H    0.252565
     4  O   -0.512421
     5  H    0.258146
     6  H    0.254328
 Sum of Mulliken charges =   0.00000

 Dipole moment (field-independent basis, Debye):
    X=             -2.6333    Y=             -2.8598    Z=              0.0000  Tot=              3.8875
 Quadrupole moment (field-independent basis, Debye-Ang):
   XX=             -9.9475   YY=             -7.1502   ZZ=            -14.7133
   XY=             -3.7589   XZ=              0.0000   YZ=             -0.0000

 Normal termination of Gaussian 16 at Sun Aug 28 05:27:06 2022.
