 Gaussian 16, Revision A.03,
 Gaussian 16:  ES64L-G16RevA.03 25-Dec-2016

 ------------------
 #p CCSD(T)/cc-pVTZ
 ------------------

 ------------
 H2O_H2O_2466
 ------------
 Symbolic Z-matrix:
 Charge =  0 Multiplicity = 1

                         Standard orientation:
 ---------------------------------------------------------------------
 Center     Atomic      Atomic             Coordinates (Angstroms)
 Number     Number       Type             X           Y           Z
 ---------------------------------------------------------------------
      1          8           0        0.041164    2.089720   -0.000000
      2          1           0        0.038965    1.107121   -0.000000
      3          1           0       -0.887613    2.410466    0.000000
      4          8           0        0.041164   -1.909817   -0.000000
      5          1           0        0.891020   -2.403021   -0.000000
      6          1           0       -0.700999   -2.553789    0.000000
 ---------------------------------------------------------------------

 SCF Done:  E(RHF) =  -152.111077810     A.U. after   10 cycles
 E2 =    -0.5261011181D+00 EUMP2 =    -0.15263717892763D+03
 CCSD(T)
 CCSD(T)= -0.15266428199D+03

 The electronic state is 1-A'.
 Alpha  occ. eigenvalues --  -20.56967 -20.54091  -1.34228  -1.31426  -0.71621
 Alpha  occ. eigenvalues --   -0.68826  -0.57833  -0.54913  -0.51365  -0.48572
 Alpha virt. eigenvalues --    0.12348   0.16497   0.19304   0.24293   0.52661
 Alpha virt. eigenvalues --    0.55519   0.56388   0.58940   0.69051   0.70874
 Alpha virt. eigenvalues --    0.77320   0.78624   0.80272   0.81145   0.83693

 Mulliken charges:
               1
     1  O   -0.524229
     2  H    0.266760
     3  H    0.251034
     4  O   -0.511336
     5  H    0.260639
     6  H    0.257133
 Sum of Mulliken charges =  -0.00000

 Dipole moment (field-independent basis, Debye):
    X=             -1.3987    Y=             -3.3039    Z=              0.0000  Tot=              3.5878
 Quadrupole moment (field-independent basis, Debye-Ang):
   XX=             -9.1498   YY=             -7.5494   ZZ=            -14.7237
   XY=             -4.5516   XZ=             -0.0000   YZ=              0.0000

 Normal termination of Gaussian 16 at Sun Aug 28 07:33:19 2022.
