 Gaussian 16, Revision A.03,
 Gaussian 16:  ES64L-G16RevA.03 25-Dec-2016

 ------------------
 #p CCSD(T)/cc-pVTZ
 ------------------

 ------------
 H2O_H2O_3426
 ------------
 Symbolic Z-matrix:
 Charge =  0 Multiplicity = 1

                         Standard orientation:
 ---------------------------------------------------------------------
 Center     Atomic      Atomic             Coordinates (Angstroms)
 Number     Number       Type             X           Y           Z
 ---------------------------------------------------------------------
      1          8           0        0.090684   -2.456243    0.000000
      2          1           0        0.090604   -1.473641    0.000000
      3          1           0       -0.838782   -2.774986    0.000000
      4          8           0        0.090684    2.317534    0.000000
      5          1           0        0.154869    3.298037    0.000000
      6          1           0       -0.857640    2.060263    0.000000
 ---------------------------------------------------------------------

 SCF Done:  E(RHF) =  -152.108002168     A.U. after   10 cycles
 E2 =    -0.5259689787D+00 EUMP2 =    -0.15263397114678D+03
 CCSD(T)
 CCSD(T)= -0.15266116560D+03

 The electronic state is 1-A'.
 Alpha  occ. eigenvalues --  -20.56481 -20.55156  -1.33779  -1.32459  -0.71202
 Alpha  occ. eigenvalues --   -0.69846  -0.57247  -0.55913  -0.50889  -0.49573
 Alpha virt. eigenvalues --    0.11838   0.15340   0.19115   0.22656   0.53556
 Alpha virt. eigenvalues --    0.54884   0.56454   0.58022   0.67087   0.68925
 Alpha virt. eigenvalues --    0.78017   0.78618   0.79296   0.81273   0.82507

 Mulliken charges:
               1
     1  O   -0.510402
     2  H    0.259219
     3  H    0.250433
     4  O   -0.510233
     5  H    0.259647
     6  H    0.251336
 Sum of Mulliken charges =  -0.00000

 Dipole moment (field-independent basis, Debye):
    X=             -3.0963    Y=              2.4666    Z=              0.0000  Tot=              3.9587
 Quadrupole moment (field-independent basis, Debye-Ang):
   XX=            -10.7073   YY=             -8.9141   ZZ=            -14.7128
   XY=              2.3802   XZ=              0.0000   YZ=              0.0000

 Normal termination of Gaussian 16 at Fri Aug 26 21:38:02 2022.
