 Gaussian 16, Revision A.03,
 Gaussian 16:  ES64L-G16RevA.03 25-Dec-2016

 ------------------
 #p CCSD(T)/cc-pVTZ
 ------------------

 ------------
 H2O_H2O_4256
 ------------
 Symbolic Z-matrix:
 Charge =  0 Multiplicity = 1

                         Standard orientation:
 ---------------------------------------------------------------------
 Center     Atomic      Atomic             Coordinates (Angstroms)
 Number     Number       Type             X           Y           Z
 ---------------------------------------------------------------------
      1          8           0        0.076750    2.798633    0.000000
      2          1           0        0.076244    1.816032    0.000000
      3          1           0       -0.852579    3.117778    0.000000
      4          8           0        0.076750   -2.635409   -0.000000
      5          1           0        0.452308   -3.543407   -0.000000
      6          1           0       -0.903969   -2.696195   -0.000000
 ---------------------------------------------------------------------

 SCF Done:  E(RHF) =  -152.108146620     A.U. after   10 cycles
 E2 =    -0.5258484381D+00 EUMP2 =    -0.15263399505777D+03
 CCSD(T)
 CCSD(T)= -0.15266119607D+03

 The electronic state is 1-A'.
 Alpha  occ. eigenvalues --  -20.56245 -20.55052  -1.33546  -1.32358  -0.70956
 Alpha  occ. eigenvalues --   -0.69754  -0.57026  -0.55820  -0.50661  -0.49476
 Alpha virt. eigenvalues --    0.12998   0.14948   0.19395   0.21306   0.53347
 Alpha virt. eigenvalues --    0.54934   0.56571   0.57803   0.66764   0.68797
 Alpha virt. eigenvalues --    0.78231   0.79277   0.79385   0.80679   0.82579

 Mulliken charges:
               1
     1  O   -0.512031
     2  H    0.259740
     3  H    0.252093
     4  O   -0.513037
     5  H    0.258894
     6  H    0.254340
 Sum of Mulliken charges =  -0.00000

 Dipole moment (field-independent basis, Debye):
    X=             -2.6300    Y=             -2.8715    Z=             -0.0000  Tot=              3.8939
 Quadrupole moment (field-independent basis, Debye-Ang):
   XX=             -9.9487   YY=             -7.3439   ZZ=            -14.7138
   XY=             -3.6510   XZ=             -0.0000   YZ=              0.0000

 Normal termination of Gaussian 16 at Sun Aug 28 01:16:17 2022.
