 Gaussian 16, Revision A.03,
 Gaussian 16:  ES64L-G16RevA.03 25-Dec-2016

 ------------------
 #p CCSD(T)/cc-pVTZ
 ------------------

 ------------
 H2O_H2O_3935
 ------------
 Symbolic Z-matrix:
 Charge =  0 Multiplicity = 1

                         Standard orientation:
 ---------------------------------------------------------------------
 Center     Atomic      Atomic             Coordinates (Angstroms)
 Number     Number       Type             X           Y           Z
 ---------------------------------------------------------------------
      1          8           0        0.063224    2.675681   -0.000000
      2          1           0        0.062249    1.693080   -0.000000
      3          1           0       -0.865953    2.995269    0.000000
      4          8           0        0.063224   -2.500155   -0.000000
      5          1           0        0.660621   -3.280298   -0.000000
      6          1           0       -0.868494   -2.812255    0.000000
 ---------------------------------------------------------------------

 SCF Done:  E(RHF) =  -152.108592206     A.U. after   10 cycles
 E2 =    -0.5258423333D+00 EUMP2 =    -0.15263443453895D+03
 CCSD(T)
 CCSD(T)= -0.15266162203D+03

 The electronic state is 1-A'.
 Alpha  occ. eigenvalues --  -20.56314 -20.54854  -1.33612  -1.32164  -0.71018
 Alpha  occ. eigenvalues --   -0.69559  -0.57110  -0.55635  -0.50731  -0.49287
 Alpha virt. eigenvalues --    0.12958   0.15194   0.19561   0.21377   0.53441
 Alpha virt. eigenvalues --    0.54958   0.56546   0.57863   0.66691   0.69099
 Alpha virt. eigenvalues --    0.78165   0.79116   0.79564   0.80064   0.82841

 Mulliken charges:
               1
     1  O   -0.514055
     2  H    0.261389
     3  H    0.252160
     4  O   -0.514612
     5  H    0.259383
     6  H    0.255737
 Sum of Mulliken charges =  -0.00000

 Dipole moment (field-independent basis, Debye):
    X=             -2.1643    Y=             -3.1009    Z=              0.0000  Tot=              3.7815
 Quadrupole moment (field-independent basis, Debye-Ang):
   XX=             -9.4547   YY=             -6.8279   ZZ=            -14.7154
   XY=             -4.4341   XZ=              0.0000   YZ=              0.0000

 CCSD(T)=-152.661622\RMSD=7.128e-09\PG=CS [SG(H4O2)]\\@
 Normal termination of Gaussian 16 at Sat Aug 27 00:33:36 2022.
