 Gaussian 16, Revision A.03,
 Gaussian 16:  ES64L-G16RevA.03 25-Dec-2016

 ------------------
 #p CCSD(T)/cc-pVTZ
 ------------------

 -----------
 H2O_H2O_593
 -----------
 Symbolic Z-matrix:
 Charge =  0 Multiplicity = 1

                         Standard orientation:
 ---------------------------------------------------------------------
 Center     Atomic      Atomic             Coordinates (Angstroms)
 Number     Number       Type             X           Y           Z
 ---------------------------------------------------------------------
      1          8           0        0.033952    1.340475    0.000000
      2          1           0        0.029941    0.357882    0.000000
      3          1           0       -0.894232    1.662933    0.000000
      4          8           0        0.033952   -1.163075   -0.000000
      5          1           0        0.940216   -1.542803   -0.000000
      6          1           0       -0.619161   -1.897207   -0.000000
 ---------------------------------------------------------------------

 SCF Done:  E(RHF) =  -152.104420642     A.U. after   11 cycles
 E2 =    -0.5309705587D+00 EUMP2 =    -0.15263539120023D+03
 CCSD(T)
 CCSD(T)= -0.15266187372D+03

 The electronic state is 1-A'.
 Alpha  occ. eigenvalues --  -20.59904 -20.49383  -1.38131  -1.27679  -0.75112
 Alpha  occ. eigenvalues --   -0.70064  -0.59078  -0.54878  -0.49945  -0.44674
 Alpha virt. eigenvalues --    0.11465   0.17969   0.19479   0.33625   0.47487
 Alpha virt. eigenvalues --    0.53884   0.59216   0.65749   0.68905   0.72312
 Alpha virt. eigenvalues --    0.73352   0.78155   0.80869   0.83316   0.84025

 Mulliken charges:
               1
     1  O   -0.609356
     2  H    0.309382
     3  H    0.234470
     4  O   -0.445299
     5  H    0.262702
     6  H    0.248100
 Sum of Mulliken charges =  -0.00000

 Dipole moment (field-independent basis, Debye):
    X=             -1.0972    Y=             -4.1401    Z=             -0.0000  Tot=              4.2830
 Quadrupole moment (field-independent basis, Debye-Ang):
   XX=             -9.1567   YY=             -9.2955   ZZ=            -14.6862
   XY=             -3.1974   XZ=             -0.0000   YZ=              0.0000

 Normal termination of Gaussian 16 at Fri Aug 26 19:16:49 2022.
