 Gaussian 16, Revision A.03,
 Gaussian 16:  ES64L-G16RevA.03 25-Dec-2016

 ------------------
 #p CCSD(T)/cc-pVTZ
 ------------------

 ------------
 H2O_H2O_3129
 ------------
 Symbolic Z-matrix:
 Charge =  0 Multiplicity = 1

                         Standard orientation:
 ---------------------------------------------------------------------
 Center     Atomic      Atomic             Coordinates (Angstroms)
 Number     Number       Type             X           Y           Z
 ---------------------------------------------------------------------
      1          8           0        0.082804   -2.345167    0.000000
      2          1           0        0.082424   -1.362565    0.000000
      3          1           0       -0.846566   -2.664192    0.000000
      4          8           0        0.082804    2.190649    0.000000
      5          1           0        0.336753    3.139868    0.000000
      6          1           0       -0.897469    2.123033    0.000000
 ---------------------------------------------------------------------

 SCF Done:  E(RHF) =  -152.108658760     A.U. after   10 cycles
 E2 =    -0.5259967015D+00 EUMP2 =    -0.15263465546141D+03
 CCSD(T)
 CCSD(T)= -0.15266182679D+03

 The electronic state is 1-A'.
 Alpha  occ. eigenvalues --  -20.56595 -20.54876  -1.33885  -1.32184  -0.71306
 Alpha  occ. eigenvalues --   -0.69568  -0.57376  -0.55648  -0.51001  -0.49305
 Alpha virt. eigenvalues --    0.12009   0.15611   0.19371   0.22602   0.53867
 Alpha virt. eigenvalues --    0.54953   0.56398   0.58264   0.67666   0.69177
 Alpha virt. eigenvalues --    0.77899   0.78619   0.79553   0.80807   0.82778

 Mulliken charges:
               1
     1  O   -0.513113
     2  H    0.261535
     3  H    0.249846
     4  O   -0.510853
     5  H    0.259855
     6  H    0.252730
 Sum of Mulliken charges =   0.00000

 Dipole moment (field-independent basis, Debye):
    X=             -2.8230    Y=              2.7682    Z=              0.0000  Tot=              3.9538
 Quadrupole moment (field-independent basis, Debye-Ang):
   XX=            -10.2536   YY=             -8.1709   ZZ=            -14.7153
   XY=              3.0025   XZ=              0.0000   YZ=              0.0000

 CCSD(T)=-152.6618268\RMSD=7.118e-09\PG=CS [SG(H4O2)]\\@
 Normal termination of Gaussian 16 at Fri Aug 26 19:55:50 2022.
