 Gaussian 16, Revision A.03,
 Gaussian 16:  ES64L-G16RevA.03 25-Dec-2016

 ------------------
 #p CCSD(T)/cc-pVTZ
 ------------------

 ------------
 H2O_H2O_4449
 ------------
 Symbolic Z-matrix:
 Charge =  0 Multiplicity = 1

                         Standard orientation:
 ---------------------------------------------------------------------
 Center     Atomic      Atomic             Coordinates (Angstroms)
 Number     Number       Type             X           Y           Z
 ---------------------------------------------------------------------
      1          8           0       -0.013474    2.866300    0.000000
      2          1           0       -0.011055    1.883702    0.000000
      3          1           0        0.915232    3.187253    0.000000
      4          8           0       -0.013474   -2.707023    0.000000
      5          1           0       -0.996073   -2.709441    0.000000
      6          1           0        0.307479   -3.635729    0.000000
 ---------------------------------------------------------------------

 SCF Done:  E(RHF) =  -152.108431127     A.U. after   10 cycles
 E2 =    -0.5258008837D+00 EUMP2 =    -0.15263423201092D+03
 CCSD(T)
 CCSD(T)= -0.15266142986D+03

 The electronic state is 1-A'.
 Alpha  occ. eigenvalues --  -20.56188 -20.55083  -1.33492  -1.32390  -0.70898
 Alpha  occ. eigenvalues --   -0.69797  -0.56983  -0.55863  -0.50610  -0.49514
 Alpha virt. eigenvalues --    0.13150   0.14914   0.19338   0.21383   0.53380
 Alpha virt. eigenvalues --    0.54941   0.56665   0.57773   0.66825   0.68662
 Alpha virt. eigenvalues --    0.78276   0.79344   0.79487   0.80831   0.82362

 Mulliken charges:
               1
     1  O   -0.514345
     2  H    0.259210
     3  H    0.255016
     4  O   -0.514824
     5  H    0.256835
     6  H    0.258108
 Sum of Mulliken charges =  -0.00000

 Dipole moment (field-independent basis, Debye):
    X=              0.4640    Y=             -2.7951    Z=              0.0000  Tot=              2.8334
 Quadrupole moment (field-independent basis, Debye-Ang):
   XX=             -9.6484   YY=             -7.4882   ZZ=            -14.7147
   XY=              7.7669   XZ=              0.0000   YZ=              0.0000

 Normal termination of Gaussian 16 at Sun Aug 28 02:54:57 2022.
