 Gaussian 16, Revision A.03,
 Gaussian 16:  ES64L-G16RevA.03 25-Dec-2016

 ------------------
 #p CCSD(T)/cc-pVTZ
 ------------------

 ------------
 H2O_H2O_3983
 ------------
 Symbolic Z-matrix:
 Charge =  0 Multiplicity = 1

                         Standard orientation:
 ---------------------------------------------------------------------
 Center     Atomic      Atomic             Coordinates (Angstroms)
 Number     Number       Type             X           Y           Z
 ---------------------------------------------------------------------
      1          8           0        0.070189    2.692764   -0.000000
      2          1           0        0.069448    1.710163   -0.000000
      3          1           0       -0.859064    3.012131    0.000000
      4          8           0        0.070189   -2.522503   -0.000000
      5          1           0        0.560849   -3.373832   -0.000000
      6          1           0       -0.894251   -2.710549    0.000000
 ---------------------------------------------------------------------

 SCF Done:  E(RHF) =  -152.108428829     A.U. after   10 cycles
 E2 =    -0.5258502422D+00 EUMP2 =    -0.15263427907162D+03
 CCSD(T)
 CCSD(T)= -0.15266147082D+03

 The electronic state is 1-A'.
 Alpha  occ. eigenvalues --  -20.56305 -20.54923  -1.33603  -1.32231  -0.71011
 Alpha  occ. eigenvalues --   -0.69626  -0.57094  -0.55698  -0.50721  -0.49352
 Alpha virt. eigenvalues --    0.12906   0.15134   0.19484   0.21394   0.53363
 Alpha virt. eigenvalues --    0.54980   0.56540   0.57863   0.66694   0.69027
 Alpha virt. eigenvalues --    0.78175   0.79057   0.79502   0.80355   0.82765

 Mulliken charges:
               1
     1  O   -0.513221
     2  H    0.260840
     3  H    0.251957
     4  O   -0.513969
     5  H    0.259338
     6  H    0.255054
 Sum of Mulliken charges =  -0.00000

 Dipole moment (field-independent basis, Debye):
    X=             -2.4030    Y=             -3.0055    Z=              0.0000  Tot=              3.8481
 Quadrupole moment (field-independent basis, Debye-Ang):
   XX=             -9.6804   YY=             -7.0742   ZZ=            -14.7148
   XY=             -4.0318   XZ=             -0.0000   YZ=              0.0000

 Normal termination of Gaussian 16 at Sat Aug 27 00:49:47 2022.
