 Gaussian 16, Revision A.03,
 Gaussian 16:  ES64L-G16RevA.03 25-Dec-2016

 ------------------
 #p CCSD(T)/cc-pVTZ
 ------------------

 ------------
 H2O_H2O_4796
 ------------
 Symbolic Z-matrix:
 Charge =  0 Multiplicity = 1

                         Standard orientation:
 ---------------------------------------------------------------------
 Center     Atomic      Atomic             Coordinates (Angstroms)
 Number     Number       Type             X           Y           Z
 ---------------------------------------------------------------------
      1          8           0       -0.023158    3.011955    0.000000
      2          1           0       -0.021136    2.029355    0.000000
      3          1           0        0.905677    3.332533    0.000000
      4          8           0       -0.023158   -2.841540    0.000000
      5          1           0       -0.986483   -3.035218    0.000000
      6          1           0        0.472468   -3.689986    0.000000
 ---------------------------------------------------------------------

 SCF Done:  E(RHF) =  -152.108335434     A.U. after   10 cycles
 E2 =    -0.5257991699D+00 EUMP2 =    -0.15263413460367D+03
 CCSD(T)
 CCSD(T)= -0.15266133542D+03

 The electronic state is 1-A'.
 Alpha  occ. eigenvalues --  -20.56132 -20.55063  -1.33435  -1.32370  -0.70840
 Alpha  occ. eigenvalues --   -0.69775  -0.56924  -0.55841  -0.50553  -0.49493
 Alpha virt. eigenvalues --    0.13444   0.14796   0.19628   0.21001   0.53627
 Alpha virt. eigenvalues --    0.54820   0.56708   0.57753   0.66994   0.68525
 Alpha virt. eigenvalues --    0.78330   0.79367   0.79674   0.80612   0.82207

 Mulliken charges:
               1
     1  O   -0.513825
     2  H    0.259297
     3  H    0.254477
     4  O   -0.514345
     5  H    0.257097
     6  H    0.257299
 Sum of Mulliken charges =  -0.00000

 Dipole moment (field-independent basis, Debye):
    X=              0.7957    Y=             -2.9835    Z=              0.0000  Tot=              3.0878
 Quadrupole moment (field-independent basis, Debye-Ang):
   XX=             -9.3626   YY=             -6.6386   ZZ=            -14.7145
   XY=              7.4065   XZ=              0.0000   YZ=              0.0000

 Normal termination of Gaussian 16 at Sun Aug 28 05:56:55 2022.
