 Gaussian 16, Revision A.03,
 Gaussian 16:  ES64L-G16RevA.03 25-Dec-2016

 ------------------
 #p CCSD(T)/cc-pVTZ
 ------------------

 ------------
 H2O_H2O_1619
 ------------
 Symbolic Z-matrix:
 Charge =  0 Multiplicity = 1

                         Standard orientation:
 ---------------------------------------------------------------------
 Center     Atomic      Atomic             Coordinates (Angstroms)
 Number     Number       Type             X           Y           Z
 ---------------------------------------------------------------------
      1          8           0        0.030265    1.748318   -0.000000
      2          1           0        0.027057    0.765721   -0.000000
      3          1           0       -0.898183    2.070017   -0.000000
      4          8           0        0.030265   -1.572763    0.000000
      5          1           0        0.959684   -1.891645    0.000000
      6          1           0       -0.572801   -2.348531    0.000000
 ---------------------------------------------------------------------

 SCF Done:  E(RHF) =  -152.113569093     A.U. after   10 cycles
 E2 =    -0.5268719920D+00 EUMP2 =    -0.15264044108512D+03
 CCSD(T)
 CCSD(T)= -0.15266745857D+03

 The electronic state is 1-A'.
 Alpha  occ. eigenvalues --  -20.57767 -20.53205  -1.35045  -1.30621  -0.72423
 Alpha  occ. eigenvalues --   -0.68175  -0.58851  -0.54005  -0.52178  -0.47778
 Alpha virt. eigenvalues --    0.12166   0.17530   0.19001   0.28310   0.50880
 Alpha virt. eigenvalues --    0.54311   0.56045   0.59819   0.68965   0.72733
 Alpha virt. eigenvalues --    0.74773   0.77175   0.81267   0.83128   0.84570

 Mulliken charges:
               1
     1  O   -0.540119
     2  H    0.274132
     3  H    0.250054
     4  O   -0.506723
     5  H    0.264055
     6  H    0.258599
 Sum of Mulliken charges =  -0.00000

 Dipole moment (field-independent basis, Debye):
    X=             -1.0206    Y=             -3.4033    Z=              0.0000  Tot=              3.5530
 Quadrupole moment (field-independent basis, Debye-Ang):
   XX=             -9.2305   YY=             -8.2336   ZZ=            -14.7338
   XY=             -4.1697   XZ=              0.0000   YZ=             -0.0000

 Normal termination of Gaussian 16 at Sat Aug 27 23:56:42 2022.
