 Gaussian 16, Revision A.03,
 Gaussian 16:  ES64L-G16RevA.03 25-Dec-2016

 ------------------
 #p CCSD(T)/cc-pVTZ
 ------------------

 ------------
 H2O_H2O_3255
 ------------
 Symbolic Z-matrix:
 Charge =  0 Multiplicity = 1

                         Standard orientation:
 ---------------------------------------------------------------------
 Center     Atomic      Atomic             Coordinates (Angstroms)
 Number     Number       Type             X           Y           Z
 ---------------------------------------------------------------------
      1          8           0        0.079851    2.397496   -0.000000
      2          1           0        0.079371    1.414895   -0.000000
      3          1           0       -0.849486    2.716616   -0.000000
      4          8           0        0.079851   -2.238433    0.000000
      5          1           0        0.395244   -3.169041    0.000000
      6          1           0       -0.902744   -2.234973    0.000000
 ---------------------------------------------------------------------

 SCF Done:  E(RHF) =  -152.108684589     A.U. after   10 cycles
 E2 =    -0.5259590244D+00 EUMP2 =    -0.15263464361376D+03
 CCSD(T)
 CCSD(T)= -0.15266181697D+03

 The electronic state is 1-A'.
 Alpha  occ. eigenvalues --  -20.56542 -20.54852  -1.33834  -1.32162  -0.71250
 Alpha  occ. eigenvalues --   -0.69548  -0.57327  -0.55627  -0.50950  -0.49283
 Alpha virt. eigenvalues --    0.12173   0.15554   0.19363   0.22333   0.53624
 Alpha virt. eigenvalues --    0.55045   0.56395   0.58228   0.67379   0.69214
 Alpha virt. eigenvalues --    0.77955   0.78633   0.79570   0.80670   0.82809

 Mulliken charges:
               1
     1  O   -0.513356
     2  H    0.261550
     3  H    0.250285
     4  O   -0.511849
     5  H    0.259913
     6  H    0.253458
 Sum of Mulliken charges =  -0.00000

 Dipole moment (field-independent basis, Debye):
    X=             -2.7246    Y=             -2.8423    Z=              0.0000  Tot=              3.9373
 Quadrupole moment (field-independent basis, Debye-Ang):
   XX=            -10.1010   YY=             -7.9269   ZZ=            -14.7155
   XY=             -3.2254   XZ=              0.0000   YZ=             -0.0000

 CCSD(T)=-152.661817\RMSD=7.114e-09\PG=CS [SG(H4O2)]\\@
 Normal termination of Gaussian 16 at Fri Aug 26 20:39:55 2022.
