 Gaussian 16, Revision A.03,
 Gaussian 16:  ES64L-G16RevA.03 25-Dec-2016

 ------------------
 #p CCSD(T)/cc-pVTZ
 ------------------

 -----------
 H2O_H2O_888
 -----------
 Symbolic Z-matrix:
 Charge =  0 Multiplicity = 1

                         Standard orientation:
 ---------------------------------------------------------------------
 Center     Atomic      Atomic             Coordinates (Angstroms)
 Number     Number       Type             X           Y           Z
 ---------------------------------------------------------------------
      1          8           0       -0.052389    1.461427    0.000000
      2          1           0       -0.049873    0.478829    0.000000
      3          1           0        0.876285    1.782472    0.000000
      4          8           0       -0.052389   -1.281642    0.000000
      5          1           0       -0.789488   -1.931405    0.000000
      6          1           0        0.801303   -1.768177    0.000000
 ---------------------------------------------------------------------

 SCF Done:  E(RHF) =  -152.112037054     A.U. after   10 cycles
 E2 =    -0.5292149503D+00 EUMP2 =    -0.15264125200481D+03
 CCSD(T)
 CCSD(T)= -0.15266802148D+03

 The electronic state is 1-A'.
 Alpha  occ. eigenvalues --  -20.59111 -20.51101  -1.36735  -1.28912  -0.73859
 Alpha  occ. eigenvalues --   -0.68475  -0.59676  -0.53740  -0.51781  -0.45994
 Alpha virt. eigenvalues --    0.11686   0.17834   0.19224   0.32480   0.48104
 Alpha virt. eigenvalues --    0.54470   0.58165   0.60881   0.69825   0.71751
 Alpha virt. eigenvalues --    0.72558   0.77599   0.82145   0.82823   0.84682

 Mulliken charges:
               1
     1  O   -0.575794
     2  H    0.304013
     3  H    0.236153
     4  O   -0.483682
     5  H    0.263539
     6  H    0.255770
 Sum of Mulliken charges =   0.00000

 Dipole moment (field-independent basis, Debye):
    X=              1.7174    Y=             -3.8767    Z=              0.0000  Tot=              4.2400
 Quadrupole moment (field-independent basis, Debye-Ang):
   XX=             -9.2263   YY=             -8.8979   ZZ=            -14.7182
   XY=              3.2766   XZ=              0.0000   YZ=              0.0000

 Normal termination of Gaussian 16 at Fri Aug 26 21:09:02 2022.
