 Gaussian 16, Revision A.03,
 Gaussian 16:  ES64L-G16RevA.03 25-Dec-2016

 ------------------
 #p CCSD(T)/cc-pVTZ
 ------------------

 ------------
 H2O_H2O_1631
 ------------
 Symbolic Z-matrix:
 Charge =  0 Multiplicity = 1

                         Standard orientation:
 ---------------------------------------------------------------------
 Center     Atomic      Atomic             Coordinates (Angstroms)
 Number     Number       Type             X           Y           Z
 ---------------------------------------------------------------------
      1          8           0        0.076776    1.751555   -0.000000
      2          1           0        0.075953    0.768954   -0.000000
      3          1           0       -0.852450    2.071000   -0.000000
      4          8           0        0.076776   -1.588380    0.000000
      5          1           0        0.452042   -2.496501    0.000000
      6          1           0       -0.903963   -1.648851    0.000000
 ---------------------------------------------------------------------

 SCF Done:  E(RHF) =  -152.111659252     A.U. after   10 cycles
 E2 =    -0.5270687328D+00 EUMP2 =    -0.15263872798477D+03
 CCSD(T)
 CCSD(T)= -0.15266577667D+03

 The electronic state is 1-A'.
 Alpha  occ. eigenvalues --  -20.57745 -20.53711  -1.35042  -1.31091  -0.72508
 Alpha  occ. eigenvalues --   -0.68528  -0.58700  -0.54474  -0.52149  -0.48220
 Alpha virt. eigenvalues --    0.11811   0.16762   0.19598   0.27658   0.50121
 Alpha virt. eigenvalues --    0.55289   0.56902   0.58365   0.69354   0.73911
 Alpha virt. eigenvalues --    0.74769   0.77399   0.80915   0.82901   0.83908

 Mulliken charges:
               1
     1  O   -0.528429
     2  H    0.273013
     3  H    0.242447
     4  O   -0.497405
     5  H    0.257926
     6  H    0.252449
 Sum of Mulliken charges =  -0.00000

 Dipole moment (field-independent basis, Debye):
    X=             -2.5762    Y=             -3.1498    Z=              0.0000  Tot=              4.0691
 Quadrupole moment (field-independent basis, Debye-Ang):
   XX=             -9.9808   YY=             -8.4270   ZZ=            -14.7253
   XY=             -3.0477   XZ=              0.0000   YZ=             -0.0000

 Normal termination of Gaussian 16 at Sun Aug 28 00:06:03 2022.
