 Gaussian 16, Revision A.03,
 Gaussian 16:  ES64L-G16RevA.03 25-Dec-2016

 ------------------
 #p CCSD(T)/cc-pVTZ
 ------------------

 -----------
 H2O_H2O_875
 -----------
 Symbolic Z-matrix:
 Charge =  0 Multiplicity = 1

                         Standard orientation:
 ---------------------------------------------------------------------
 Center     Atomic      Atomic             Coordinates (Angstroms)
 Number     Number       Type             X           Y           Z
 ---------------------------------------------------------------------
      1          8           0        0.092949   -1.435889    0.000000
      2          1           0        0.092949   -0.453288    0.000000
      3          1           0       -0.836544   -1.754556    0.000000
      4          8           0        0.092949    1.303102    0.000000
      5          1           0        0.092950    2.285704    0.000000
      6          1           0       -0.836544    0.984435    0.000000
 ---------------------------------------------------------------------

 SCF Done:  E(RHF) =  -152.103337643     A.U. after   10 cycles
 E2 =    -0.5304367945D+00 EUMP2 =    -0.15263377443756D+03
 CCSD(T)
 CCSD(T)= -0.15266068024D+03

 The electronic state is 1-A'.
 Alpha  occ. eigenvalues --  -20.58959 -20.53221  -1.36832  -1.30823  -0.75442
 Alpha  occ. eigenvalues --   -0.68002  -0.59700  -0.53939  -0.53603  -0.47857
 Alpha virt. eigenvalues --    0.11426   0.16388   0.20871   0.31110   0.48131
 Alpha virt. eigenvalues --    0.52620   0.58462   0.61852   0.68444   0.71265
 Alpha virt. eigenvalues --    0.73767   0.78425   0.79440   0.82071   0.82796

 Mulliken charges:
               1
     1  O   -0.538447
     2  H    0.284868
     3  H    0.227161
     4  O   -0.437264
     5  H    0.235726
     6  H    0.227956
 Sum of Mulliken charges =  -0.00000

 Dipole moment (field-independent basis, Debye):
    X=             -3.0455    Y=              2.8857    Z=              0.0000  Tot=              4.1955
 Quadrupole moment (field-independent basis, Debye-Ang):
   XX=            -10.9017   YY=             -9.2764   ZZ=            -14.6782
   XY=              2.0677   XZ=              0.0000   YZ=              0.0000

 Normal termination of Gaussian 16 at Fri Aug 26 21:04:09 2022.
