 Gaussian 16, Revision A.03,
 Gaussian 16:  ES64L-G16RevA.03 25-Dec-2016

 ------------------
 #p CCSD(T)/cc-pVTZ
 ------------------

 ------------
 H2O_H2O_2672
 ------------
 Symbolic Z-matrix:
 Charge =  0 Multiplicity = 1

                         Standard orientation:
 ---------------------------------------------------------------------
 Center     Atomic      Atomic             Coordinates (Angstroms)
 Number     Number       Type             X           Y           Z
 ---------------------------------------------------------------------
      1          8           0       -0.019882    2.162541    0.000000
      2          1           0       -0.016898    1.179944    0.000000
      3          1           0        0.908639    2.484028    0.000000
      4          8           0       -0.019882   -1.995447    0.000000
      5          1           0       -0.993683   -2.126660    0.000000
      6          1           0        0.420052   -2.874063    0.000000
 ---------------------------------------------------------------------

 SCF Done:  E(RHF) =  -152.110448390     A.U. after   10 cycles
 E2 =    -0.5260104606D+00 EUMP2 =    -0.15263645885057D+03
 CCSD(T)
 CCSD(T)= -0.15266358253D+03

 The electronic state is 1-A'.
 Alpha  occ. eigenvalues --  -20.56804 -20.54411  -1.34081  -1.31736  -0.71488
 Alpha  occ. eigenvalues --   -0.69143  -0.57650  -0.55228  -0.51212  -0.48879
 Alpha virt. eigenvalues --    0.12273   0.16228   0.19280   0.23811   0.53685
 Alpha virt. eigenvalues --    0.55570   0.56336   0.58510   0.68829   0.69948
 Alpha virt. eigenvalues --    0.77583   0.79128   0.79966   0.80578   0.83419

 Mulliken charges:
               1
     1  O   -0.522898
     2  H    0.264614
     3  H    0.253985
     4  O   -0.513416
     5  H    0.259441
     6  H    0.258275
 Sum of Mulliken charges =  -0.00000

 Dipole moment (field-independent basis, Debye):
    X=              0.6805    Y=             -3.0381    Z=              0.0000  Tot=              3.1134
 Quadrupole moment (field-independent basis, Debye-Ang):
   XX=             -9.4470   YY=             -7.8233   ZZ=            -14.7214
   XY=              5.5144   XZ=              0.0000   YZ=              0.0000

 Normal termination of Gaussian 16 at Fri Aug 26 16:27:43 2022.
