 Gaussian 16, Revision A.03,
 Gaussian 16:  ES64L-G16RevA.03 25-Dec-2016

 ------------------
 #p CCSD(T)/cc-pVTZ
 ------------------

 ------------
 H2O_H2O_3984
 ------------
 Symbolic Z-matrix:
 Charge =  0 Multiplicity = 1

                         Standard orientation:
 ---------------------------------------------------------------------
 Center     Atomic      Atomic             Coordinates (Angstroms)
 Number     Number       Type             X           Y           Z
 ---------------------------------------------------------------------
      1          8           0        0.066749    2.694318    0.000000
      2          1           0        0.065896    1.711717    0.000000
      3          1           0       -0.862467    3.013791    0.000000
      4          8           0        0.066749   -2.521197   -0.000000
      5          1           0        0.611944   -3.338673   -0.000000
      6          1           0       -0.883356   -2.771810   -0.000000
 ---------------------------------------------------------------------

 SCF Done:  E(RHF) =  -152.108496327     A.U. after   10 cycles
 E2 =    -0.5258446301D+00 EUMP2 =    -0.15263434095663D+03
 CCSD(T)
 CCSD(T)= -0.15266153121D+03

 The electronic state is 1-A'.
 Alpha  occ. eigenvalues --  -20.56303 -20.54893  -1.33601  -1.32202  -0.71008
 Alpha  occ. eigenvalues --   -0.69597  -0.57095  -0.55671  -0.50720  -0.49324
 Alpha virt. eigenvalues --    0.12953   0.15149   0.19530   0.21362   0.53409
 Alpha virt. eigenvalues --    0.54964   0.56548   0.57857   0.66690   0.69050
 Alpha virt. eigenvalues --    0.78176   0.79099   0.79529   0.80218   0.82798

 Mulliken charges:
               1
     1  O   -0.513597
     2  H    0.261076
     3  H    0.252082
     4  O   -0.514288
     5  H    0.259331
     6  H    0.255396
 Sum of Mulliken charges =  -0.00000

 Dipole moment (field-independent basis, Debye):
    X=             -2.2853    Y=             -3.0562    Z=             -0.0000  Tot=              3.8161
 Quadrupole moment (field-independent basis, Debye-Ang):
   XX=             -9.5611   YY=             -6.9238   ZZ=            -14.7151
   XY=             -4.2457   XZ=             -0.0000   YZ=              0.0000

 Normal termination of Gaussian 16 at Sat Aug 27 00:50:07 2022.
