 Gaussian 16, Revision A.03,
 Gaussian 16:  ES64L-G16RevA.03 25-Dec-2016

 ------------------
 #p CCSD(T)/cc-pVTZ
 ------------------

 ------------
 H2O_H2O_4601
 ------------
 Symbolic Z-matrix:
 Charge =  0 Multiplicity = 1

                         Standard orientation:
 ---------------------------------------------------------------------
 Center     Atomic      Atomic             Coordinates (Angstroms)
 Number     Number       Type             X           Y           Z
 ---------------------------------------------------------------------
      1          8           0        0.090683   -2.924925    0.000000
      2          1           0        0.090616   -1.942324    0.000000
      3          1           0       -0.838788   -3.243656    0.000000
      4          8           0        0.090683    2.786214    0.000000
      5          1           0        0.154882    3.766716    0.000000
      6          1           0       -0.857644    2.528955    0.000000
 ---------------------------------------------------------------------

 SCF Done:  E(RHF) =  -152.107681964     A.U. after   10 cycles
 E2 =    -0.5258685169D+00 EUMP2 =    -0.15263355048078D+03
 CCSD(T)
 CCSD(T)= -0.15266076427D+03

 The electronic state is 1-A'.
 Alpha  occ. eigenvalues --  -20.56192 -20.55314  -1.33493  -1.32616  -0.70907
 Alpha  occ. eigenvalues --   -0.70013  -0.56954  -0.56068  -0.50604  -0.49729
 Alpha virt. eigenvalues --    0.12907   0.14698   0.19009   0.21493   0.53314
 Alpha virt. eigenvalues --    0.54787   0.56569   0.57654   0.66961   0.68421
 Alpha virt. eigenvalues --    0.78286   0.79144   0.79664   0.81163   0.81653

 Mulliken charges:
               1
     1  O   -0.509808
     2  H    0.257494
     3  H    0.252265
     4  O   -0.510774
     5  H    0.258084
     6  H    0.252739
 Sum of Mulliken charges =  -0.00000

 Dipole moment (field-independent basis, Debye):
    X=             -3.1107    Y=              2.4318    Z=              0.0000  Tot=              3.9484
 Quadrupole moment (field-independent basis, Debye-Ang):
   XX=            -10.6995   YY=             -8.8606   ZZ=            -14.7120
   XY=              2.4229   XZ=              0.0000   YZ=              0.0000

 Normal termination of Gaussian 16 at Sun Aug 28 04:15:12 2022.
