 Gaussian 16, Revision A.03,
 Gaussian 16:  ES64L-G16RevA.03 25-Dec-2016

 ------------------
 #p CCSD(T)/cc-pVTZ
 ------------------

 -----------
 H2O_H2O_260
 -----------
 Symbolic Z-matrix:
 Charge =  0 Multiplicity = 1

                         Standard orientation:
 ---------------------------------------------------------------------
 Center     Atomic      Atomic             Coordinates (Angstroms)
 Number     Number       Type             X           Y           Z
 ---------------------------------------------------------------------
      1          8           0        0.063337    1.209726   -0.000000
      2          1           0        0.061090    0.227127   -0.000000
      3          1           0       -0.865424    1.530518   -0.000000
      4          8           0        0.063337   -1.034365    0.000000
      5          1           0        0.659723   -1.815281    0.000000
      6          1           0       -0.868785   -1.345257    0.000000
 ---------------------------------------------------------------------

 SCF Done:  E(RHF) =  -152.076940910     A.U. after   11 cycles
 E2 =    -0.5343411585D+00 EUMP2 =    -0.15261128206804D+03
 CCSD(T)
 CCSD(T)= -0.15263723584D+03

 The electronic state is 1-A'.
 Alpha  occ. eigenvalues --  -20.61171 -20.46881  -1.40986  -1.26096  -0.77795
 Alpha  occ. eigenvalues --   -0.73703  -0.56890  -0.56663  -0.47374  -0.42850
 Alpha virt. eigenvalues --    0.10764   0.16652   0.20742   0.33024   0.48123
 Alpha virt. eigenvalues --    0.52599   0.61365   0.63943   0.71760   0.71801
 Alpha virt. eigenvalues --    0.77735   0.79155   0.80446   0.83296   0.84485

 Mulliken charges:
               1
     1  O   -0.631113
     2  H    0.300470
     3  H    0.209124
     4  O   -0.366087
     5  H    0.243870
     6  H    0.243738
 Sum of Mulliken charges =  -0.00000

 Dipole moment (field-independent basis, Debye):
    X=             -1.9666    Y=             -4.5705    Z=              0.0000  Tot=              4.9756
 Quadrupole moment (field-independent basis, Debye-Ang):
   XX=             -9.4367   YY=             -9.7938   ZZ=            -14.6123
   XY=             -2.7769   XZ=              0.0000   YZ=              0.0000

 Normal termination of Gaussian 16 at Fri Aug 26 16:58:44 2022.
