 Gaussian 16, Revision A.03,
 Gaussian 16:  ES64L-G16RevA.03 25-Dec-2016

 ------------------
 #p CCSD(T)/cc-pVTZ
 ------------------

 ------------
 H2O_H2O_3944
 ------------
 Symbolic Z-matrix:
 Charge =  0 Multiplicity = 1

                         Standard orientation:
 ---------------------------------------------------------------------
 Center     Atomic      Atomic             Coordinates (Angstroms)
 Number     Number       Type             X           Y           Z
 ---------------------------------------------------------------------
      1          8           0        0.030162    2.675739   -0.000000
      2          1           0        0.028104    1.693140   -0.000000
      3          1           0       -0.898661    2.996352   -0.000000
      4          8           0        0.030162   -2.500114    0.000000
      5          1           0        0.959954   -2.817909    0.000000
      6          1           0       -0.571996   -3.276588    0.000000
 ---------------------------------------------------------------------

 SCF Done:  E(RHF) =  -152.108844920     A.U. after   10 cycles
 E2 =    -0.5258134135D+00 EUMP2 =    -0.15263465833315D+03
 CCSD(T)
 CCSD(T)= -0.15266184138D+03

 The electronic state is 1-A'.
 Alpha  occ. eigenvalues --  -20.56301 -20.54831  -1.33599  -1.32142  -0.71002
 Alpha  occ. eigenvalues --   -0.69545  -0.57108  -0.55621  -0.50721  -0.49270
 Alpha virt. eigenvalues --    0.13006   0.15237   0.19552   0.21452   0.53435
 Alpha virt. eigenvalues --    0.55019   0.56596   0.57848   0.66684   0.69103
 Alpha virt. eigenvalues --    0.78173   0.79127   0.79577   0.80096   0.82873

 Mulliken charges:
               1
     1  O   -0.515823
     2  H    0.261436
     3  H    0.253879
     4  O   -0.515998
     5  H    0.258507
     6  H    0.257999
 Sum of Mulliken charges =  -0.00000

 Dipole moment (field-independent basis, Debye):
    X=             -1.0335    Y=             -3.1017    Z=              0.0000  Tot=              3.2693
 Quadrupole moment (field-independent basis, Debye-Ang):
   XX=             -9.2298   YY=             -6.8091   ZZ=            -14.7163
   XY=             -6.1897   XZ=              0.0000   YZ=              0.0000

 CCSD(T)=-152.6618414\RMSD=7.068e-09\PG=CS [SG(H4O2)]\\@
 Normal termination of Gaussian 16 at Sat Aug 27 00:36:36 2022.
