 Gaussian 16, Revision A.03,
 Gaussian 16:  ES64L-G16RevA.03 25-Dec-2016

 ------------------
 #p CCSD(T)/cc-pVTZ
 ------------------

 ------------
 H2O_H2O_2633
 ------------
 Symbolic Z-matrix:
 Charge =  0 Multiplicity = 1

                         Standard orientation:
 ---------------------------------------------------------------------
 Center     Atomic      Atomic             Coordinates (Angstroms)
 Number     Number       Type             X           Y           Z
 ---------------------------------------------------------------------
      1          8           0        0.070205    2.154266    0.000000
      2          1           0        0.069272    1.171665    0.000000
      3          1           0       -0.858984    2.473815   -0.000000
      4          8           0        0.070205   -1.984033    0.000000
      5          1           0        0.560697   -2.835457    0.000000
      6          1           0       -0.894272   -2.171890   -0.000000
 ---------------------------------------------------------------------

 SCF Done:  E(RHF) =  -152.109954948     A.U. after   10 cycles
 E2 =    -0.5261054522D+00 EUMP2 =    -0.15263606039976D+03
 CCSD(T)
 CCSD(T)= -0.15266318923D+03

 The electronic state is 1-A'.
 Alpha  occ. eigenvalues --  -20.56858 -20.54414  -1.34131  -1.31736  -0.71543
 Alpha  occ. eigenvalues --   -0.69118  -0.57676  -0.55209  -0.51257  -0.48868
 Alpha virt. eigenvalues --    0.12146   0.16133   0.19423   0.23574   0.53349
 Alpha virt. eigenvalues --    0.55546   0.56152   0.58716   0.68862   0.69989
 Alpha virt. eigenvalues --    0.77535   0.79050   0.79985   0.80441   0.83252

 Mulliken charges:
               1
     1  O   -0.518572
     2  H    0.265133
     3  H    0.248895
     4  O   -0.509832
     5  H    0.259899
     6  H    0.254477
 Sum of Mulliken charges =  -0.00000

 Dipole moment (field-independent basis, Debye):
    X=             -2.3866    Y=             -3.1011    Z=             -0.0000  Tot=              3.9132
 Quadrupole moment (field-independent basis, Debye-Ang):
   XX=             -9.6890   YY=             -7.7461   ZZ=            -14.7197
   XY=             -3.6038   XZ=             -0.0000   YZ=             -0.0000

 CCSD(T)=-152.6631892\RMSD=6.858e-09\PG=CS [SG(H4O2)]\\@
 Normal termination of Gaussian 16 at Fri Aug 26 16:10:59 2022.
