 Gaussian 16, Revision A.03,
 Gaussian 16:  ES64L-G16RevA.03 25-Dec-2016

 ------------------
 #p CCSD(T)/cc-pVTZ
 ------------------

 ------------
 H2O_H2O_3033
 ------------
 Symbolic Z-matrix:
 Charge =  0 Multiplicity = 1

                         Standard orientation:
 ---------------------------------------------------------------------
 Center     Atomic      Atomic             Coordinates (Angstroms)
 Number     Number       Type             X           Y           Z
 ---------------------------------------------------------------------
      1          8           0        0.070200    2.313822   -0.000000
      2          1           0        0.069333    1.331221   -0.000000
      3          1           0       -0.859012    2.633308   -0.000000
      4          8           0        0.070200   -2.143579    0.000000
      5          1           0        0.560750   -2.994970    0.000000
      6          1           0       -0.894264   -2.331502    0.000000
 ---------------------------------------------------------------------

 SCF Done:  E(RHF) =  -152.109317107     A.U. after   10 cycles
 E2 =    -0.5259783768D+00 EUMP2 =    -0.15263529548337D+03
 CCSD(T)
 CCSD(T)= -0.15266244904D+03

 The electronic state is 1-A'.
 Alpha  occ. eigenvalues --  -20.56640 -20.54612  -1.33923  -1.31927  -0.71333
 Alpha  occ. eigenvalues --   -0.69313  -0.57441  -0.55402  -0.51046  -0.49055
 Alpha virt. eigenvalues --    0.12294   0.15802   0.19438   0.22588   0.53535
 Alpha virt. eigenvalues --    0.55249   0.56310   0.58489   0.68020   0.69319
 Alpha virt. eigenvalues --    0.77850   0.78862   0.79787   0.80047   0.83052

 Mulliken charges:
               1
     1  O   -0.516106
     2  H    0.263403
     3  H    0.250156
     4  O   -0.512316
     5  H    0.260066
     6  H    0.254798
 Sum of Mulliken charges =  -0.00000

 Dipole moment (field-independent basis, Debye):
    X=             -2.3929    Y=             -3.0616    Z=              0.0000  Tot=              3.8858
 Quadrupole moment (field-independent basis, Debye-Ang):
   XX=             -9.6854   YY=             -7.5449   ZZ=            -14.7178
   XY=             -3.7307   XZ=              0.0000   YZ=             -0.0000

 CCSD(T)=-152.662449\RMSD=6.978e-09\PG=CS [SG(H4O2)]\\@
 Normal termination of Gaussian 16 at Fri Aug 26 19:23:08 2022.
