 Gaussian 16, Revision A.03,
 Gaussian 16:  ES64L-G16RevA.03 25-Dec-2016

 ------------------
 #p CCSD(T)/cc-pVTZ
 ------------------

 -----------
 H2O_H2O_424
 -----------
 Symbolic Z-matrix:
 Charge =  0 Multiplicity = 1

                         Standard orientation:
 ---------------------------------------------------------------------
 Center     Atomic      Atomic             Coordinates (Angstroms)
 Number     Number       Type             X           Y           Z
 ---------------------------------------------------------------------
      1          8           0        0.013740   -1.260785    0.000000
      2          1           0        0.008035   -0.278200    0.000000
      3          1           0       -0.913887   -1.584843    0.000000
      4          8           0        0.013740    1.101599    0.000000
      5          1           0        0.996325    1.107304    0.000000
      6          1           0       -0.310318    2.029226    0.000000
 ---------------------------------------------------------------------

 SCF Done:  E(RHF) =  -152.090494586     A.U. after   11 cycles
 E2 =    -0.5328319814D+00 EUMP2 =    -0.15262332656745D+03
 CCSD(T)
 CCSD(T)= -0.15264957465D+03

 The electronic state is 1-A'.
 Alpha  occ. eigenvalues --  -20.60319 -20.48802  -1.39438  -1.27398  -0.77800
 Alpha  occ. eigenvalues --   -0.69464  -0.59113  -0.55672  -0.49212  -0.44352
 Alpha virt. eigenvalues --    0.11435   0.17895   0.19788   0.34162   0.47822
 Alpha virt. eigenvalues --    0.52780   0.58686   0.68332   0.71915   0.71990
 Alpha virt. eigenvalues --    0.74927   0.76745   0.78052   0.83835   0.84743

 Mulliken charges:
               1
     1  O   -0.626581
     2  H    0.291367
     3  H    0.240587
     4  O   -0.394251
     5  H    0.258426
     6  H    0.230451
 Sum of Mulliken charges =  -0.00000

 Dipole moment (field-independent basis, Debye):
    X=             -0.4466    Y=              3.9711    Z=              0.0000  Tot=              3.9961
 Quadrupole moment (field-independent basis, Debye-Ang):
   XX=             -9.5752   YY=             -9.4972   ZZ=            -14.6413
   XY=              3.3283   XZ=              0.0000   YZ=              0.0000

 Normal termination of Gaussian 16 at Fri Aug 26 18:10:18 2022.
