 Gaussian 16, Revision A.03,
 Gaussian 16:  ES64L-G16RevA.03 25-Dec-2016

 ------------------
 #p CCSD(T)/cc-pVTZ
 ------------------

 ------------
 H2O_H2O_1481
 ------------
 Symbolic Z-matrix:
 Charge =  0 Multiplicity = 1

                         Standard orientation:
 ---------------------------------------------------------------------
 Center     Atomic      Atomic             Coordinates (Angstroms)
 Number     Number       Type             X           Y           Z
 ---------------------------------------------------------------------
      1          8           0        0.076779    1.691721    0.000000
      2          1           0        0.075925    0.709120    0.000000
      3          1           0       -0.852437    2.011195   -0.000000
      4          8           0        0.076779   -1.528551    0.000000
      5          1           0        0.452016   -2.436683    0.000000
      6          1           0       -0.903963   -1.588991   -0.000000
 ---------------------------------------------------------------------

 SCF Done:  E(RHF) =  -152.111865150     A.U. after   10 cycles
 E2 =    -0.5273769585D+00 EUMP2 =    -0.15263924210826D+03
 CCSD(T)
 CCSD(T)= -0.15266626826D+03

 The electronic state is 1-A'.
 Alpha  occ. eigenvalues --  -20.57945 -20.53487  -1.35267  -1.30896  -0.72752
 Alpha  occ. eigenvalues --   -0.68393  -0.58933  -0.54239  -0.52364  -0.48021
 Alpha virt. eigenvalues --    0.11774   0.16835   0.19627   0.28515   0.49574
 Alpha virt. eigenvalues --    0.55119   0.57290   0.58474   0.69504   0.74134
 Alpha virt. eigenvalues --    0.74200   0.76975   0.81173   0.82666   0.84018

 Mulliken charges:
               1
     1  O   -0.532366
     2  H    0.276515
     3  H    0.240883
     4  O   -0.492252
     5  H    0.255304
     6  H    0.251916
 Sum of Mulliken charges =  -0.00000

 Dipole moment (field-independent basis, Debye):
    X=             -2.5675    Y=             -3.1975    Z=             -0.0000  Tot=              4.1007
 Quadrupole moment (field-independent basis, Debye-Ang):
   XX=             -9.9837   YY=             -8.5080   ZZ=            -14.7248
   XY=             -3.0101   XZ=              0.0000   YZ=             -0.0000

 Normal termination of Gaussian 16 at Sat Aug 27 00:50:55 2022.
