 Gaussian 16, Revision A.03,
 Gaussian 16:  ES64L-G16RevA.03 25-Dec-2016

 ------------------
 #p CCSD(T)/cc-pVTZ
 ------------------

 ------------
 H2O_H2O_4639
 ------------
 Symbolic Z-matrix:
 Charge =  0 Multiplicity = 1

                         Standard orientation:
 ---------------------------------------------------------------------
 Center     Atomic      Atomic             Coordinates (Angstroms)
 Number     Number       Type             X           Y           Z
 ---------------------------------------------------------------------
      1          8           0        0.048550    2.957556   -0.000000
      2          1           0        0.047237    1.974955   -0.000000
      3          1           0       -0.880516    3.277464   -0.000000
      4          8           0        0.048550   -2.777132    0.000000
      5          1           0        0.827301   -3.376344    0.000000
      6          1           0       -0.770830   -3.319462    0.000000
 ---------------------------------------------------------------------

 SCF Done:  E(RHF) =  -152.108352330     A.U. after   10 cycles
 E2 =    -0.5258081889D+00 EUMP2 =    -0.15263416051926D+03
 CCSD(T)
 CCSD(T)= -0.15266135974D+03

 The electronic state is 1-A'.
 Alpha  occ. eigenvalues --  -20.56162 -20.54971  -1.33463  -1.32278  -0.70868
 Alpha  occ. eigenvalues --   -0.69679  -0.56954  -0.55748  -0.50582  -0.49400
 Alpha virt. eigenvalues --    0.13427   0.14877   0.19716   0.20988   0.53684
 Alpha virt. eigenvalues --    0.54835   0.56681   0.57790   0.66908   0.68676
 Alpha virt. eigenvalues --    0.78304   0.79457   0.79710   0.80247   0.82573

 Mulliken charges:
               1
     1  O   -0.513601
     2  H    0.260180
     3  H    0.253332
     4  O   -0.514330
     5  H    0.258100
     6  H    0.256319
 Sum of Mulliken charges =   0.00000

 Dipole moment (field-independent basis, Debye):
    X=             -1.6656    Y=             -3.1636    Z=              0.0000  Tot=              3.5753
 Quadrupole moment (field-independent basis, Debye-Ang):
   XX=             -9.1821   YY=             -6.1256   ZZ=            -14.7146
   XY=             -5.6528   XZ=              0.0000   YZ=             -0.0000

 08272\MP4DQ=-152.6432826\MP4SDQ=-152.64633\CCSD=-152.6457453\CCSD(T)=-
 Normal termination of Gaussian 16 at Sun Aug 28 04:33:43 2022.
