 Gaussian 16, Revision A.03,
 Gaussian 16:  ES64L-G16RevA.03 25-Dec-2016

 ------------------
 #p CCSD(T)/cc-pVTZ
 ------------------

 -----------
 H2O_H2O_999
 -----------
 Symbolic Z-matrix:
 Charge =  0 Multiplicity = 1

                         Standard orientation:
 ---------------------------------------------------------------------
 Center     Atomic      Atomic             Coordinates (Angstroms)
 Number     Number       Type             X           Y           Z
 ---------------------------------------------------------------------
      1          8           0        0.013665   -1.490149    0.000000
      2          1           0        0.008887   -0.507559    0.000000
      3          1           0       -0.914267   -1.813331    0.000000
      4          8           0        0.013665    1.330937    0.000000
      5          1           0        0.996255    1.335715    0.000000
      6          1           0       -0.309518    2.258870    0.000000
 ---------------------------------------------------------------------

 SCF Done:  E(RHF) =  -152.111587286     A.U. after   10 cycles
 E2 =    -0.5287254145D+00 EUMP2 =    -0.15264031270040D+03
 CCSD(T)
 CCSD(T)= -0.15266717779D+03

 The electronic state is 1-A'.
 Alpha  occ. eigenvalues --  -20.58715 -20.52124  -1.36321  -1.29790  -0.74054
 Alpha  occ. eigenvalues --   -0.67850  -0.59928  -0.53313  -0.52783  -0.46909
 Alpha virt. eigenvalues --    0.12003   0.18078   0.19074   0.32046   0.49011
 Alpha virt. eigenvalues --    0.54425   0.55963   0.63628   0.68346   0.72465
 Alpha virt. eigenvalues --    0.74545   0.76327   0.81157   0.82569   0.84211

 Mulliken charges:
               1
     1  O   -0.570437
     2  H    0.287598
     3  H    0.251304
     4  O   -0.465960
     5  H    0.259790
     6  H    0.237705
 Sum of Mulliken charges =   0.00000

 Dipole moment (field-independent basis, Debye):
    X=             -0.4675    Y=              3.3714    Z=              0.0000  Tot=              3.4037
 Quadrupole moment (field-independent basis, Debye-Ang):
   XX=             -9.6351   YY=             -8.8908   ZZ=            -14.7136
   XY=              3.9887   XZ=              0.0000   YZ=              0.0000

 Normal termination of Gaussian 16 at Fri Aug 26 21:49:31 2022.
