 Gaussian 16, Revision A.03,
 Gaussian 16:  ES64L-G16RevA.03 25-Dec-2016

 ------------------
 #p CCSD(T)/cc-pVTZ
 ------------------

 -----------
 H2O_H2O_863
 -----------
 Symbolic Z-matrix:
 Charge =  0 Multiplicity = 1

                         Standard orientation:
 ---------------------------------------------------------------------
 Center     Atomic      Atomic             Coordinates (Angstroms)
 Number     Number       Type             X           Y           Z
 ---------------------------------------------------------------------
      1          8           0       -0.052391    1.451454    0.000000
      2          1           0       -0.049857    0.468856    0.000000
      3          1           0        0.876277    1.772517    0.000000
      4          8           0       -0.052391   -1.271671    0.000000
      5          1           0       -0.789477   -1.921449    0.000000
      6          1           0        0.801310   -1.758189    0.000000
 ---------------------------------------------------------------------

 SCF Done:  E(RHF) =  -152.111693297     A.U. after   10 cycles
 E2 =    -0.5293438515D+00 EUMP2 =    -0.15264103714861D+03
 CCSD(T)
 CCSD(T)= -0.15266778882D+03

 The electronic state is 1-A'.
 Alpha  occ. eigenvalues --  -20.59173 -20.50985  -1.36828  -1.28826  -0.73933
 Alpha  occ. eigenvalues --   -0.68572  -0.59652  -0.53820  -0.51660  -0.45902
 Alpha virt. eigenvalues --    0.11664   0.17824   0.19255   0.32587   0.48056
 Alpha virt. eigenvalues --    0.54425   0.58371   0.60962   0.69869   0.71802
 Alpha virt. eigenvalues --    0.72527   0.77653   0.82093   0.82855   0.84651

 Mulliken charges:
               1
     1  O   -0.577887
     2  H    0.305165
     3  H    0.235590
     4  O   -0.481657
     5  H    0.263313
     6  H    0.255476
 Sum of Mulliken charges =  -0.00000

 Dipole moment (field-independent basis, Debye):
    X=              1.7151    Y=             -3.8980    Z=              0.0000  Tot=              4.2586
 Quadrupole moment (field-independent basis, Debye-Ang):
   XX=             -9.2255   YY=             -8.9286   ZZ=            -14.7164
   XY=              3.2605   XZ=              0.0000   YZ=              0.0000

 Normal termination of Gaussian 16 at Fri Aug 26 20:58:34 2022.
