 Gaussian 16, Revision A.03,
 Gaussian 16:  ES64L-G16RevA.03 25-Dec-2016

 ------------------
 #p CCSD(T)/cc-pVTZ
 ------------------

 ------------
 H2O_H2O_1271
 ------------
 Symbolic Z-matrix:
 Charge =  0 Multiplicity = 1

                         Standard orientation:
 ---------------------------------------------------------------------
 Center     Atomic      Atomic             Coordinates (Angstroms)
 Number     Number       Type             X           Y           Z
 ---------------------------------------------------------------------
      1          8           0       -0.023320    1.605873    0.000000
      2          1           0       -0.019428    0.623280    0.000000
      3          1           0        0.904903    1.928219    0.000000
      4          8           0       -0.023320   -1.435547    0.000000
      5          1           0       -0.986274   -1.631059    0.000000
      6          1           0        0.473920   -2.283049    0.000000
 ---------------------------------------------------------------------

 SCF Done:  E(RHF) =  -152.113786097     A.U. after   10 cycles
 E2 =    -0.5276481340D+00 EUMP2 =    -0.15264143423085D+03
 CCSD(T)
 CCSD(T)= -0.15266838568D+03

 The electronic state is 1-A'.
 Alpha  occ. eigenvalues --  -20.58256 -20.52608  -1.35634  -1.30130  -0.73057
 Alpha  occ. eigenvalues --   -0.67964  -0.59452  -0.53352  -0.52731  -0.47276
 Alpha virt. eigenvalues --    0.12079   0.17979   0.18887   0.30392   0.49777
 Alpha virt. eigenvalues --    0.54513   0.55796   0.61537   0.68655   0.73330
 Alpha virt. eigenvalues --    0.73377   0.76985   0.81881   0.82548   0.84464

 Mulliken charges:
               1
     1  O   -0.554666
     2  H    0.282798
     3  H    0.249888
     4  O   -0.494182
     5  H    0.264428
     6  H    0.251734
 Sum of Mulliken charges =  -0.00000

 Dipole moment (field-independent basis, Debye):
    X=              0.7847    Y=             -3.4390    Z=              0.0000  Tot=              3.5274
 Quadrupole moment (field-independent basis, Debye-Ang):
   XX=             -9.3580   YY=             -8.5684   ZZ=            -14.7304
   XY=              4.0077   XZ=              0.0000   YZ=              0.0000

 CCSD(T)=-152.6683857\RMSD=6.440e-09\PG=CS [SG(H4O2)]\\@
 Normal termination of Gaussian 16 at Fri Aug 26 23:31:12 2022.
