 Gaussian 16, Revision A.03,
 Gaussian 16:  ES64L-G16RevA.03 25-Dec-2016

 ------------------
 #p CCSD(T)/cc-pVTZ
 ------------------

 ------------
 H2O_H2O_4081
 ------------
 Symbolic Z-matrix:
 Charge =  0 Multiplicity = 1

                         Standard orientation:
 ---------------------------------------------------------------------
 Center     Atomic      Atomic             Coordinates (Angstroms)
 Number     Number       Type             X           Y           Z
 ---------------------------------------------------------------------
      1          8           0        0.076751    2.728828   -0.000000
      2          1           0        0.076232    1.746227   -0.000000
      3          1           0       -0.852574    3.047985   -0.000000
      4          8           0        0.076751   -2.565606    0.000000
      5          1           0        0.452298   -3.473610    0.000000
      6          1           0       -0.903969   -2.626379    0.000000
 ---------------------------------------------------------------------

 SCF Done:  E(RHF) =  -152.108225443     A.U. after   10 cycles
 E2 =    -0.5258565574D+00 EUMP2 =    -0.15263408200050D+03
 CCSD(T)
 CCSD(T)= -0.15266127956D+03

 The electronic state is 1-A'.
 Alpha  occ. eigenvalues --  -20.56284 -20.55017  -1.33584  -1.32323  -0.70994
 Alpha  occ. eigenvalues --   -0.69718  -0.57066  -0.55786  -0.50699  -0.49442
 Alpha virt. eigenvalues --    0.12864   0.15044   0.19373   0.21426   0.53292
 Alpha virt. eigenvalues --    0.54979   0.56541   0.57846   0.66715   0.68909
 Alpha virt. eigenvalues --    0.78195   0.79112   0.79418   0.80658   0.82650

 Mulliken charges:
               1
     1  O   -0.512255
     2  H    0.260069
     3  H    0.251881
     4  O   -0.513192
     5  H    0.259167
     6  H    0.254330
 Sum of Mulliken charges =  -0.00000

 Dipole moment (field-independent basis, Debye):
    X=             -2.6285    Y=             -2.8771    Z=              0.0000  Tot=              3.8971
 Quadrupole moment (field-independent basis, Debye-Ang):
   XX=             -9.9493   YY=             -7.4142   ZZ=            -14.7140
   XY=             -3.6112   XZ=              0.0000   YZ=             -0.0000

 Normal termination of Gaussian 16 at Sat Aug 27 23:21:40 2022.
