 Gaussian 16, Revision A.03,
 Gaussian 16:  ES64L-G16RevA.03 25-Dec-2016

 ------------------
 #p CCSD(T)/cc-pVTZ
 ------------------

 ------------
 H2O_H2O_1895
 ------------
 Symbolic Z-matrix:
 Charge =  0 Multiplicity = 1

                         Standard orientation:
 ---------------------------------------------------------------------
 Center     Atomic      Atomic             Coordinates (Angstroms)
 Number     Number       Type             X           Y           Z
 ---------------------------------------------------------------------
      1          8           0        0.026718    1.856723    0.000000
      2          1           0        0.023539    0.874126    0.000000
      3          1           0       -0.901739    2.178394   -0.000000
      4          8           0        0.026718   -1.683535    0.000000
      5          1           0        0.975011   -1.940920    0.000000
      6          1           0       -0.524296   -2.497101   -0.000000
 ---------------------------------------------------------------------

 SCF Done:  E(RHF) =  -152.112654395     A.U. after   10 cycles
 E2 =    -0.5264951844D+00 EUMP2 =    -0.15263914957897D+03
 CCSD(T)
 CCSD(T)= -0.15266620360D+03

 The electronic state is 1-A'.
 Alpha  occ. eigenvalues --  -20.57437 -20.53650  -1.34700  -1.31021  -0.72096
 Alpha  occ. eigenvalues --   -0.68475  -0.58423  -0.54467  -0.51837  -0.48178
 Alpha virt. eigenvalues --    0.12224   0.17143   0.19131   0.26799   0.51963
 Alpha virt. eigenvalues --    0.54540   0.56161   0.59160   0.69027   0.72786
 Alpha virt. eigenvalues --    0.75848   0.77822   0.80799   0.83362   0.84352

 Mulliken charges:
               1
     1  O   -0.533214
     2  H    0.269450
     3  H    0.251734
     4  O   -0.508769
     5  H    0.262297
     6  H    0.258502
 Sum of Mulliken charges =   0.00000

 Dipole moment (field-independent basis, Debye):
    X=             -0.9060    Y=             -3.2810    Z=             -0.0000  Tot=              3.4038
 Quadrupole moment (field-independent basis, Debye-Ang):
   XX=             -9.2897   YY=             -8.0820   ZZ=            -14.7302
   XY=             -4.5121   XZ=              0.0000   YZ=             -0.0000

 Normal termination of Gaussian 16 at Sun Aug 28 02:29:13 2022.
