 Gaussian 16, Revision A.03,
 Gaussian 16:  ES64L-G16RevA.03 25-Dec-2016

 ------------------
 #p CCSD(T)/cc-pVTZ
 ------------------

 ------------
 H2O_H2O_4703
 ------------
 Symbolic Z-matrix:
 Charge =  0 Multiplicity = 1

                         Standard orientation:
 ---------------------------------------------------------------------
 Center     Atomic      Atomic             Coordinates (Angstroms)
 Number     Number       Type             X           Y           Z
 ---------------------------------------------------------------------
      1          8           0        0.085596   -2.970731    0.000000
      2          1           0        0.085381   -1.988129    0.000000
      3          1           0       -0.843827   -3.289601    0.000000
      4          8           0        0.085596    2.821123    0.000000
      5          1           0        0.277081    3.784886    0.000000
      6          1           0       -0.888176    2.689702    0.000000
 ---------------------------------------------------------------------

 SCF Done:  E(RHF) =  -152.107807097     A.U. after   10 cycles
 E2 =    -0.5258538839D+00 EUMP2 =    -0.15263366098085D+03
 CCSD(T)
 CCSD(T)= -0.15266087218D+03

 The electronic state is 1-A'.
 Alpha  occ. eigenvalues --  -20.56169 -20.55239  -1.33471  -1.32541  -0.70883
 Alpha  occ. eigenvalues --   -0.69939  -0.56937  -0.55997  -0.50584  -0.49656
 Alpha virt. eigenvalues --    0.13140   0.14685   0.19247   0.21212   0.53426
 Alpha virt. eigenvalues --    0.54785   0.56608   0.57663   0.66995   0.68438
 Alpha virt. eigenvalues --    0.78304   0.79214   0.79663   0.80935   0.81830

 Mulliken charges:
               1
     1  O   -0.510527
     2  H    0.258083
     3  H    0.252399
     4  O   -0.511460
     5  H    0.258069
     6  H    0.253437
 Sum of Mulliken charges =  -0.00000

 Dipole moment (field-independent basis, Debye):
    X=             -2.9368    Y=              2.6213    Z=              0.0000  Tot=              3.9365
 Quadrupole moment (field-independent basis, Debye-Ang):
   XX=            -10.3964   YY=             -8.0791   ZZ=            -14.7126
   XY=              2.9633   XZ=              0.0000   YZ=              0.0000

 Normal termination of Gaussian 16 at Sun Aug 28 05:10:47 2022.
