 Gaussian 16, Revision A.03,
 Gaussian 16:  ES64L-G16RevA.03 25-Dec-2016

 ------------------
 #p CCSD(T)/cc-pVTZ
 ------------------

 ------------
 H2O_H2O_1276
 ------------
 Symbolic Z-matrix:
 Charge =  0 Multiplicity = 1

                         Standard orientation:
 ---------------------------------------------------------------------
 Center     Atomic      Atomic             Coordinates (Angstroms)
 Number     Number       Type             X           Y           Z
 ---------------------------------------------------------------------
      1          8           0        0.090688   -1.598653    0.000000
      2          1           0        0.090562   -0.616051    0.000000
      3          1           0       -0.838765   -1.917438    0.000000
      4          8           0        0.090688    1.459952    0.000000
      5          1           0        0.154827    2.440458    0.000000
      6          1           0       -0.857625    1.202638    0.000000
 ---------------------------------------------------------------------

 SCF Done:  E(RHF) =  -152.108872938     A.U. after   10 cycles
 E2 =    -0.5282978034D+00 EUMP2 =    -0.15263717074162D+03
 CCSD(T)
 CCSD(T)= -0.15266421703D+03

 The electronic state is 1-A'.
 Alpha  occ. eigenvalues --  -20.58197 -20.53966  -1.35642  -1.31379  -0.73532
 Alpha  occ. eigenvalues --   -0.68614  -0.59092  -0.54680  -0.52654  -0.48466
 Alpha virt. eigenvalues --    0.11506   0.16412   0.20451   0.29103   0.49054
 Alpha virt. eigenvalues --    0.53928   0.57908   0.59010   0.68085   0.72802
 Alpha virt. eigenvalues --    0.74285   0.77906   0.80917   0.81432   0.83311

 Mulliken charges:
               1
     1  O   -0.527220
     2  H    0.277391
     3  H    0.236383
     4  O   -0.468505
     5  H    0.242895
     6  H    0.239057
 Sum of Mulliken charges =  -0.00000

 Dipole moment (field-independent basis, Debye):
    X=             -3.0117    Y=              2.7838    Z=              0.0000  Tot=              4.1012
 Quadrupole moment (field-independent basis, Debye-Ang):
   XX=            -10.7560   YY=             -9.0397   ZZ=            -14.7067
   XY=              2.2703   XZ=              0.0000   YZ=              0.0000

 CCSD(T)=-152.664217\RMSD=7.449e-09\PG=CS [SG(H4O2)]\\@
 Normal termination of Gaussian 16 at Fri Aug 26 23:33:03 2022.
