 Gaussian 16, Revision A.03,
 Gaussian 16:  ES64L-G16RevA.03 25-Dec-2016

 ------------------
 #p CCSD(T)/cc-pVTZ
 ------------------

 ------------
 H2O_H2O_2583
 ------------
 Symbolic Z-matrix:
 Charge =  0 Multiplicity = 1

                         Standard orientation:
 ---------------------------------------------------------------------
 Center     Atomic      Atomic             Coordinates (Angstroms)
 Number     Number       Type             X           Y           Z
 ---------------------------------------------------------------------
      1          8           0        0.070206    2.134322    0.000000
      2          1           0        0.069264    1.151721    0.000000
      3          1           0       -0.858981    2.453879    0.000000
      4          8           0        0.070206   -1.964090   -0.000000
      5          1           0        0.560691   -2.815518   -0.000000
      6          1           0       -0.894272   -2.151938   -0.000000
 ---------------------------------------------------------------------

 SCF Done:  E(RHF) =  -152.110049341     A.U. after   10 cycles
 E2 =    -0.5261265927D+00 EUMP2 =    -0.15263617593377D+03
 CCSD(T)
 CCSD(T)= -0.15266330128D+03

 The electronic state is 1-A'.
 Alpha  occ. eigenvalues --  -20.56890 -20.54385  -1.34162  -1.31708  -0.71573
 Alpha  occ. eigenvalues --   -0.69090  -0.57711  -0.55181  -0.51288  -0.48840
 Alpha virt. eigenvalues --    0.12132   0.16176   0.19421   0.23724   0.53280
 Alpha virt. eigenvalues --    0.55592   0.56125   0.58713   0.68865   0.70208
 Alpha virt. eigenvalues --    0.77477   0.79026   0.80017   0.80614   0.83285

 Mulliken charges:
               1
     1  O   -0.518934
     2  H    0.265359
     3  H    0.248710
     4  O   -0.509451
     5  H    0.259885
     6  H    0.254431
 Sum of Mulliken charges =  -0.00000

 Dipole moment (field-independent basis, Debye):
    X=             -2.3857    Y=             -3.1070    Z=             -0.0000  Tot=              3.9173
 Quadrupole moment (field-independent basis, Debye-Ang):
   XX=             -9.6896   YY=             -7.7717   ZZ=            -14.7199
   XY=             -3.5880   XZ=             -0.0000   YZ=              0.0000

 Normal termination of Gaussian 16 at Fri Aug 26 15:47:21 2022.
