 Gaussian 16, Revision A.03,
 Gaussian 16:  ES64L-G16RevA.03 25-Dec-2016

 ------------------
 #p CCSD(T)/cc-pVTZ
 ------------------

 ----------
 H2O_H2O_18
 ----------
 Symbolic Z-matrix:
 Charge =  0 Multiplicity = 1

                         Standard orientation:
 ---------------------------------------------------------------------
 Center     Atomic      Atomic             Coordinates (Angstroms)
 Number     Number       Type             X           Y           Z
 ---------------------------------------------------------------------
      1          8           0        0.034034    1.111092   -0.000000
      2          1           0        0.029122    0.128503   -0.000000
      3          1           0       -0.893855    1.434400   -0.000000
      4          8           0        0.034034   -0.933755    0.000000
      5          1           0        0.939948   -1.314312    0.000000
      6          1           0       -0.619752   -1.667287    0.000000
 ---------------------------------------------------------------------

 SCF Done:  E(RHF) =  -152.026710443     A.U. after   11 cycles
 E2 =    -0.5361699590D+00 EUMP2 =    -0.15256288040214D+03
 CCSD(T)
 CCSD(T)= -0.15258832344D+03

 The electronic state is 1-A'.
 Alpha  occ. eigenvalues --  -20.62238 -20.43302  -1.44748  -1.23995  -0.81344
 Alpha  occ. eigenvalues --   -0.77223  -0.59137  -0.54270  -0.43327  -0.40385
 Alpha virt. eigenvalues --    0.10271   0.16462   0.21246   0.33085   0.46638
 Alpha virt. eigenvalues --    0.51677   0.61862   0.67388   0.70146   0.70380
 Alpha virt. eigenvalues --    0.77160   0.78574   0.81697   0.83419   0.89382

 Mulliken charges:
               1
     1  O   -0.690968
     2  H    0.274526
     3  H    0.206098
     4  O   -0.286341
     5  H    0.262041
     6  H    0.234644
 Sum of Mulliken charges =  -0.00000

 Dipole moment (field-independent basis, Debye):
    X=             -1.0153    Y=             -5.1494    Z=              0.0000  Tot=              5.2486
 Quadrupole moment (field-independent basis, Debye-Ang):
   XX=             -9.0949   YY=            -10.3252   ZZ=            -14.5353
   XY=             -2.6304   XZ=              0.0000   YZ=             -0.0000

 Normal termination of Gaussian 16 at Fri Aug 26 15:18:30 2022.
