 Gaussian 16, Revision A.03,
 Gaussian 16:  ES64L-G16RevA.03 25-Dec-2016

 ------------------
 #p CCSD(T)/cc-pVTZ
 ------------------

 -----------
 H2O_H2O_926
 -----------
 Symbolic Z-matrix:
 Charge =  0 Multiplicity = 1

                         Standard orientation:
 ---------------------------------------------------------------------
 Center     Atomic      Atomic             Coordinates (Angstroms)
 Number     Number       Type             X           Y           Z
 ---------------------------------------------------------------------
      1          8           0        0.090688   -1.459044    0.000000
      2          1           0        0.090550   -0.476443    0.000000
      3          1           0       -0.838760   -1.777842    0.000000
      4          8           0        0.090688    1.320346    0.000000
      5          1           0        0.154816    2.300852    0.000000
      6          1           0       -0.857620    1.063020    0.000000
 ---------------------------------------------------------------------

 SCF Done:  E(RHF) =  -152.105578916     A.U. after   10 cycles
 E2 =    -0.5299581382D+00 EUMP2 =    -0.15263553705394D+03
 CCSD(T)
 CCSD(T)= -0.15266245466D+03

 The electronic state is 1-A'.
 Alpha  occ. eigenvalues --  -20.58863 -20.53138  -1.36622  -1.30721  -0.74955
 Alpha  occ. eigenvalues --   -0.68103  -0.59646  -0.53850  -0.53469  -0.47769
 Alpha virt. eigenvalues --    0.11443   0.16457   0.20642   0.31023   0.48267
 Alpha virt. eigenvalues --    0.52996   0.58381   0.61255   0.68430   0.71627
 Alpha virt. eigenvalues --    0.73999   0.78142   0.79898   0.82052   0.83041

 Mulliken charges:
               1
     1  O   -0.539959
     2  H    0.285417
     3  H    0.229019
     4  O   -0.441591
     5  H    0.235449
     6  H    0.231666
 Sum of Mulliken charges =   0.00000

 Dipole moment (field-independent basis, Debye):
    X=             -2.9763    Y=              2.9725    Z=              0.0000  Tot=              4.2065
 Quadrupole moment (field-independent basis, Debye-Ang):
   XX=            -10.7573   YY=             -9.1596   ZZ=            -14.6871
   XY=              2.2303   XZ=              0.0000   YZ=              0.0000

 Normal termination of Gaussian 16 at Fri Aug 26 21:22:56 2022.
