 Gaussian 16, Revision A.03,
 Gaussian 16:  ES64L-G16RevA.03 25-Dec-2016

 ------------------
 #p CCSD(T)/cc-pVTZ
 ------------------

 ------------
 H2O_H2O_1965
 ------------
 Symbolic Z-matrix:
 Charge =  0 Multiplicity = 1

                         Standard orientation:
 ---------------------------------------------------------------------
 Center     Atomic      Atomic             Coordinates (Angstroms)
 Number     Number       Type             X           Y           Z
 ---------------------------------------------------------------------
      1          8           0        0.044901    1.890529    0.000000
      2          1           0        0.042633    0.907930    0.000000
      3          1           0       -0.883855    2.211339    0.000000
      4          8           0        0.044901   -1.710171   -0.000000
      5          1           0        0.860643   -2.257959   -0.000000
      6          1           0       -0.737832   -2.304171   -0.000000
 ---------------------------------------------------------------------

 SCF Done:  E(RHF) =  -152.112504448     A.U. after   10 cycles
 E2 =    -0.5264501634D+00 EUMP2 =    -0.15263895461168D+03
 CCSD(T)
 CCSD(T)= -0.15266601333D+03

 The electronic state is 1-A'.
 Alpha  occ. eigenvalues --  -20.57396 -20.53616  -1.34647  -1.30981  -0.72025
 Alpha  occ. eigenvalues --   -0.68421  -0.58355  -0.54435  -0.51787  -0.48134
 Alpha virt. eigenvalues --    0.12215   0.17057   0.19142   0.26448   0.51506
 Alpha virt. eigenvalues --    0.54954   0.56415   0.59008   0.69075   0.72369
 Alpha virt. eigenvalues --    0.76124   0.77441   0.80794   0.83410   0.84380

 Mulliken charges:
               1
     1  O   -0.530634
     2  H    0.269917
     3  H    0.248926
     4  O   -0.508151
     5  H    0.262350
     6  H    0.257592
 Sum of Mulliken charges =  -0.00000

 Dipole moment (field-independent basis, Debye):
    X=             -1.5175    Y=             -3.4029    Z=             -0.0000  Tot=              3.7260
 Quadrupole moment (field-independent basis, Debye-Ang):
   XX=             -9.1604   YY=             -7.8937   ZZ=            -14.7297
   XY=             -4.1001   XZ=             -0.0000   YZ=              0.0000

 Normal termination of Gaussian 16 at Sun Aug 28 03:12:49 2022.
