 Gaussian 16, Revision A.03,
 Gaussian 16:  ES64L-G16RevA.03 25-Dec-2016

 ------------------
 #p CCSD(T)/cc-pVTZ
 ------------------

 ------------
 H2O_H2O_4232
 ------------
 Symbolic Z-matrix:
 Charge =  0 Multiplicity = 1

                         Standard orientation:
 ---------------------------------------------------------------------
 Center     Atomic      Atomic             Coordinates (Angstroms)
 Number     Number       Type             X           Y           Z
 ---------------------------------------------------------------------
      1          8           0        0.073526    2.790690   -0.000000
      2          1           0        0.072917    1.808089   -0.000000
      3          1           0       -0.855770    3.109932   -0.000000
      4          8           0        0.073526   -2.623730    0.000000
      5          1           0        0.507574   -3.505268    0.000000
      6          1           0       -0.901132   -2.748427    0.000000
 ---------------------------------------------------------------------

 SCF Done:  E(RHF) =  -152.108226485     A.U. after   10 cycles
 E2 =    -0.5258437300D+00 EUMP2 =    -0.15263407021549D+03
 CCSD(T)
 CCSD(T)= -0.15266126920D+03

 The electronic state is 1-A'.
 Alpha  occ. eigenvalues --  -20.56248 -20.55012  -1.33549  -1.32318  -0.70958
 Alpha  occ. eigenvalues --   -0.69715  -0.57032  -0.55783  -0.50665  -0.49438
 Alpha virt. eigenvalues --    0.13036   0.14978   0.19457   0.21269   0.53385
 Alpha virt. eigenvalues --    0.54934   0.56576   0.57809   0.66747   0.68841
 Alpha virt. eigenvalues --    0.78227   0.79258   0.79421   0.80550   0.82642

 Mulliken charges:
               1
     1  O   -0.512442
     2  H    0.260068
     3  H    0.252151
     4  O   -0.513410
     5  H    0.258951
     6  H    0.254681
 Sum of Mulliken charges =  -0.00000

 Dipole moment (field-independent basis, Debye):
    X=             -2.5193    Y=             -2.9382    Z=              0.0000  Tot=              3.8704
 Quadrupole moment (field-independent basis, Debye-Ang):
   XX=             -9.8097   YY=             -7.1372   ZZ=            -14.7141
   XY=             -3.8806   XZ=              0.0000   YZ=             -0.0000

 Normal termination of Gaussian 16 at Sun Aug 28 00:59:15 2022.
