 Gaussian 16, Revision A.03,
 Gaussian 16:  ES64L-G16RevA.03 25-Dec-2016

 ------------------
 #p CCSD(T)/cc-pVTZ
 ------------------

 -----------
 H2O_H2O_901
 -----------
 Symbolic Z-matrix:
 Charge =  0 Multiplicity = 1

                         Standard orientation:
 ---------------------------------------------------------------------
 Center     Atomic      Atomic             Coordinates (Angstroms)
 Number     Number       Type             X           Y           Z
 ---------------------------------------------------------------------
      1          8           0        0.090689   -1.449072    0.000000
      2          1           0        0.090549   -0.466471    0.000000
      3          1           0       -0.838759   -1.767871    0.000000
      4          8           0        0.090689    1.310374    0.000000
      5          1           0        0.154814    2.290881    0.000000
      6          1           0       -0.857620    1.053047    0.000000
 ---------------------------------------------------------------------

 SCF Done:  E(RHF) =  -152.105129842     A.U. after   10 cycles
 E2 =    -0.5301118611D+00 EUMP2 =    -0.15263524170277D+03
 CCSD(T)
 CCSD(T)= -0.15266214469D+03

 The electronic state is 1-A'.
 Alpha  occ. eigenvalues --  -20.58919 -20.53057  -1.36714  -1.30659  -0.75089
 Alpha  occ. eigenvalues --   -0.68071  -0.59676  -0.53770  -0.53542  -0.47703
 Alpha virt. eigenvalues --    0.11435   0.16457   0.20659   0.31143   0.48246
 Alpha virt. eigenvalues --    0.52929   0.58418   0.61464   0.68482   0.71574
 Alpha virt. eigenvalues --    0.73985   0.78163   0.79785   0.82133   0.83020

 Mulliken charges:
               1
     1  O   -0.541153
     2  H    0.285921
     3  H    0.228347
     4  O   -0.439561
     5  H    0.235239
     6  H    0.231207
 Sum of Mulliken charges =   0.00000

 Dipole moment (field-independent basis, Debye):
    X=             -2.9733    Y=              2.9900    Z=              0.0000  Tot=              4.2167
 Quadrupole moment (field-independent basis, Debye-Ang):
   XX=            -10.7568   YY=             -9.1715   ZZ=            -14.6850
   XY=              2.2267   XZ=              0.0000   YZ=              0.0000

 Normal termination of Gaussian 16 at Fri Aug 26 21:13:52 2022.
