 Gaussian 16, Revision A.03,
 Gaussian 16:  ES64L-G16RevA.03 25-Dec-2016

 ------------------
 #p CCSD(T)/cc-pVTZ
 ------------------

 -----------
 H2O_H2O_733
 -----------
 Symbolic Z-matrix:
 Charge =  0 Multiplicity = 1

                         Standard orientation:
 ---------------------------------------------------------------------
 Center     Atomic      Atomic             Coordinates (Angstroms)
 Number     Number       Type             X           Y           Z
 ---------------------------------------------------------------------
      1          8           0        0.070252    1.396361    0.000000
      2          1           0        0.068779    0.413761    0.000000
      3          1           0       -0.858762    1.716420    0.000000
      4          8           0        0.070252   -1.226205   -0.000000
      5          1           0        0.560277   -2.077898   -0.000000
      6          1           0       -0.894329   -1.413532   -0.000000
 ---------------------------------------------------------------------

 SCF Done:  E(RHF) =  -152.107376549     A.U. after   10 cycles
 E2 =    -0.5304222411D+00 EUMP2 =    -0.15263779879005D+03
 CCSD(T)
 CCSD(T)= -0.15266446961D+03

 The electronic state is 1-A'.
 Alpha  occ. eigenvalues --  -20.59470 -20.50886  -1.37379  -1.28821  -0.74811
 Alpha  occ. eigenvalues --   -0.68866  -0.59492  -0.54233  -0.51546  -0.45853
 Alpha virt. eigenvalues --    0.11435   0.17111   0.19876   0.32708   0.48103
 Alpha virt. eigenvalues --    0.53958   0.59536   0.61227   0.70277   0.72273
 Alpha virt. eigenvalues --    0.73786   0.77518   0.80745   0.83312   0.84148

 Mulliken charges:
               1
     1  O   -0.577308
     2  H    0.303118
     3  H    0.227836
     4  O   -0.446219
     5  H    0.246641
     6  H    0.245933
 Sum of Mulliken charges =  -0.00000

 Dipole moment (field-independent basis, Debye):
    X=             -2.2795    Y=             -3.8014    Z=             -0.0000  Tot=              4.4324
 Quadrupole moment (field-independent basis, Debye-Ang):
   XX=             -9.7036   YY=             -9.0702   ZZ=            -14.6936
   XY=             -2.9455   XZ=             -0.0000   YZ=              0.0000

 Normal termination of Gaussian 16 at Fri Aug 26 20:10:24 2022.
