 Gaussian 16, Revision A.03,
 Gaussian 16:  ES64L-G16RevA.03 25-Dec-2016

 ------------------
 #p CCSD(T)/cc-pVTZ
 ------------------

 ------------
 H2O_H2O_1995
 ------------
 Symbolic Z-matrix:
 Charge =  0 Multiplicity = 1

                         Standard orientation:
 ---------------------------------------------------------------------
 Center     Atomic      Atomic             Coordinates (Angstroms)
 Number     Number       Type             X           Y           Z
 ---------------------------------------------------------------------
      1          8           0        0.026712    1.896612   -0.000000
      2          1           0        0.023603    0.914015   -0.000000
      3          1           0       -0.901769    2.218217   -0.000000
      4          8           0        0.026712   -1.723421    0.000000
      5          1           0        0.975023   -1.980737    0.000000
      6          1           0       -0.524243   -2.537026    0.000000
 ---------------------------------------------------------------------

 SCF Done:  E(RHF) =  -152.112346272     A.U. after   10 cycles
 E2 =    -0.5263962153D+00 EUMP2 =    -0.15263874248750D+03
 CCSD(T)
 CCSD(T)= -0.15266580675D+03

 The electronic state is 1-A'.
 Alpha  occ. eigenvalues --  -20.57336 -20.53765  -1.34598  -1.31127  -0.71995
 Alpha  occ. eigenvalues --   -0.68564  -0.58294  -0.54586  -0.51735  -0.48282
 Alpha virt. eigenvalues --    0.12239   0.17019   0.19161   0.26311   0.52269
 Alpha virt. eigenvalues --    0.54708   0.56218   0.58971   0.69012   0.72607
 Alpha virt. eigenvalues --    0.76193   0.78046   0.80666   0.83437   0.84212

 Mulliken charges:
               1
     1  O   -0.531328
     2  H    0.268530
     3  H    0.251974
     4  O   -0.509316
     5  H    0.261797
     6  H    0.258344
 Sum of Mulliken charges =  -0.00000

 Dipole moment (field-independent basis, Debye):
    X=             -0.9068    Y=             -3.2587    Z=              0.0000  Tot=              3.3825
 Quadrupole moment (field-independent basis, Debye-Ang):
   XX=             -9.2896   YY=             -8.0184   ZZ=            -14.7288
   XY=             -4.6044   XZ=              0.0000   YZ=             -0.0000

 Normal termination of Gaussian 16 at Sun Aug 28 03:24:11 2022.
