 Gaussian 16, Revision A.03,
 Gaussian 16:  ES64L-G16RevA.03 25-Dec-2016

 ------------------
 #p CCSD(T)/cc-pVTZ
 ------------------

 ------------
 H2O_H2O_1015
 ------------
 Symbolic Z-matrix:
 Charge =  0 Multiplicity = 1

                         Standard orientation:
 ---------------------------------------------------------------------
 Center     Atomic      Atomic             Coordinates (Angstroms)
 Number     Number       Type             X           Y           Z
 ---------------------------------------------------------------------
      1          8           0        0.044956    1.511569    0.000000
      2          1           0        0.042084    0.528972    0.000000
      3          1           0       -0.883601    1.832951    0.000000
      4          8           0        0.044956   -1.331267   -0.000000
      5          1           0        0.860360   -1.879557   -0.000000
      6          1           0       -0.738143   -1.924785   -0.000000
 ---------------------------------------------------------------------

 SCF Done:  E(RHF) =  -152.113491217     A.U. after   10 cycles
 E2 =    -0.5285809759D+00 EUMP2 =    -0.15264207219250D+03
 CCSD(T)
 CCSD(T)= -0.15266891507D+03

 The electronic state is 1-A'.
 Alpha  occ. eigenvalues --  -20.58817 -20.51562  -1.36311  -1.29258  -0.73501
 Alpha  occ. eigenvalues --   -0.68102  -0.59725  -0.53369  -0.52267  -0.46370
 Alpha virt. eigenvalues --    0.11832   0.18095   0.18922   0.31932   0.48476
 Alpha virt. eigenvalues --    0.54674   0.56788   0.61178   0.69130   0.71581
 Alpha virt. eigenvalues --    0.72772   0.77474   0.82399   0.82632   0.84844

 Mulliken charges:
               1
     1  O   -0.568349
     2  H    0.297753
     3  H    0.240604
     4  O   -0.493599
     5  H    0.266035
     6  H    0.257557
 Sum of Mulliken charges =  -0.00000

 Dipole moment (field-independent basis, Debye):
    X=             -1.4842    Y=             -3.7924    Z=             -0.0000  Tot=              4.0725
 Quadrupole moment (field-independent basis, Debye-Ang):
   XX=             -9.1542   YY=             -8.7519   ZZ=            -14.7267
   XY=             -3.4425   XZ=             -0.0000   YZ=              0.0000

 CCSD(T)=-152.6689151\RMSD=7.553e-09\PG=CS [SG(H4O2)]\\@
 Normal termination of Gaussian 16 at Fri Aug 26 21:55:08 2022.
