 Gaussian 16, Revision A.03,
 Gaussian 16:  ES64L-G16RevA.03 25-Dec-2016

 ------------------
 #p CCSD(T)/cc-pVTZ
 ------------------

 ------------
 H2O_H2O_1662
 ------------
 Symbolic Z-matrix:
 Charge =  0 Multiplicity = 1

                         Standard orientation:
 ---------------------------------------------------------------------
 Center     Atomic      Atomic             Coordinates (Angstroms)
 Number     Number       Type             X           Y           Z
 ---------------------------------------------------------------------
      1          8           0        0.056034    1.770047    0.000000
      2          1           0        0.054167    0.787447    0.000000
      3          1           0       -0.872852    2.090479    0.000000
      4          8           0        0.056034   -1.591194   -0.000000
      5          1           0        0.749517   -2.287317   -0.000000
      6          1           0       -0.827368   -2.021436   -0.000000
 ---------------------------------------------------------------------

 SCF Done:  E(RHF) =  -152.113148309     A.U. after   10 cycles
 E2 =    -0.5268780781D+00 EUMP2 =    -0.15264002638691D+03
 CCSD(T)
 CCSD(T)= -0.15266705322D+03

 The electronic state is 1-A'.
 Alpha  occ. eigenvalues --  -20.57741 -20.53272  -1.35006  -1.30674  -0.72374
 Alpha  occ. eigenvalues --   -0.68197  -0.58770  -0.54067  -0.52139  -0.47822
 Alpha virt. eigenvalues --    0.12058   0.17265   0.19128   0.27979   0.50276
 Alpha virt. eigenvalues --    0.54939   0.56314   0.59100   0.69189   0.72379
 Alpha virt. eigenvalues --    0.74983   0.76906   0.81195   0.83155   0.84550

 Mulliken charges:
               1
     1  O   -0.534882
     2  H    0.274085
     3  H    0.245549
     4  O   -0.505760
     5  H    0.263789
     6  H    0.257219
 Sum of Mulliken charges =  -0.00000

 Dipole moment (field-independent basis, Debye):
    X=             -1.8834    Y=             -3.4518    Z=             -0.0000  Tot=              3.9322
 Quadrupole moment (field-independent basis, Debye-Ang):
   XX=             -9.2965   YY=             -8.1506   ZZ=            -14.7326
   XY=             -3.6646   XZ=             -0.0000   YZ=              0.0000

 Normal termination of Gaussian 16 at Sun Aug 28 00:25:13 2022.
