 Gaussian 16, Revision A.03,
 Gaussian 16:  ES64L-G16RevA.03 25-Dec-2016

 ------------------
 #p CCSD(T)/cc-pVTZ
 ------------------

 -----------
 H2O_H2O_968
 -----------
 Symbolic Z-matrix:
 Charge =  0 Multiplicity = 1

                         Standard orientation:
 ---------------------------------------------------------------------
 Center     Atomic      Atomic             Coordinates (Angstroms)
 Number     Number       Type             X           Y           Z
 ---------------------------------------------------------------------
      1          8           0        0.033914    1.490068   -0.000000
      2          1           0        0.030330    0.507473   -0.000000
      3          1           0       -0.894411    1.812121   -0.000000
      4          8           0        0.033914   -1.312639    0.000000
      5          1           0        0.940342   -1.691972    0.000000
      6          1           0       -0.618880   -2.047054    0.000000
 ---------------------------------------------------------------------

 SCF Done:  E(RHF) =  -152.113050705     A.U. after   10 cycles
 E2 =    -0.5287512848D+00 EUMP2 =    -0.15264180198937D+03
 CCSD(T)
 CCSD(T)= -0.15266861940D+03

 The electronic state is 1-A'.
 Alpha  occ. eigenvalues --  -20.58895 -20.51422  -1.36448  -1.29160  -0.73689
 Alpha  occ. eigenvalues --   -0.68130  -0.59797  -0.53484  -0.52106  -0.46269
 Alpha virt. eigenvalues --    0.11861   0.18434   0.18687   0.32221   0.48509
 Alpha virt. eigenvalues --    0.54633   0.56588   0.62594   0.68479   0.72244
 Alpha virt. eigenvalues --    0.72664   0.77498   0.82065   0.82826   0.84614

 Mulliken charges:
               1
     1  O   -0.574035
     2  H    0.297854
     3  H    0.243116
     4  O   -0.486553
     5  H    0.265512
     6  H    0.254107
 Sum of Mulliken charges =  -0.00000

 Dipole moment (field-independent basis, Debye):
    X=             -1.1208    Y=             -3.7707    Z=              0.0000  Tot=              3.9338
 Quadrupole moment (field-independent basis, Debye-Ang):
   XX=             -9.1762   YY=             -8.8152   ZZ=            -14.7230
   XY=             -3.5347   XZ=              0.0000   YZ=             -0.0000

 Normal termination of Gaussian 16 at Fri Aug 26 21:38:18 2022.
