 Gaussian 16, Revision A.03,
 Gaussian 16:  ES64L-G16RevA.03 25-Dec-2016

 ------------------
 #p CCSD(T)/cc-pVTZ
 ------------------

 ------------
 H2O_H2O_1300
 ------------
 Symbolic Z-matrix:
 Charge =  0 Multiplicity = 1

                         Standard orientation:
 ---------------------------------------------------------------------
 Center     Atomic      Atomic             Coordinates (Angstroms)
 Number     Number       Type             X           Y           Z
 ---------------------------------------------------------------------
      1          8           0        0.092949   -1.605412    0.000000
      2          1           0        0.092949   -0.622811    0.000000
      3          1           0       -0.836544   -1.924079    0.000000
      4          8           0        0.092949    1.472625    0.000000
      5          1           0        0.092949    2.455227    0.000000
      6          1           0       -0.836544    1.153958    0.000000
 ---------------------------------------------------------------------

 SCF Done:  E(RHF) =  -152.108196793     A.U. after   10 cycles
 E2 =    -0.5283093876D+00 EUMP2 =    -0.15263650618046D+03
 CCSD(T)
 CCSD(T)= -0.15266357488D+03

 The electronic state is 1-A'.
 Alpha  occ. eigenvalues --  -20.58146 -20.54210  -1.35592  -1.31605  -0.73558
 Alpha  occ. eigenvalues --   -0.68739  -0.59012  -0.54921  -0.52597  -0.48686
 Alpha virt. eigenvalues --    0.11470   0.16328   0.20631   0.28841   0.49039
 Alpha virt. eigenvalues --    0.53733   0.57836   0.59046   0.67865   0.72713
 Alpha virt. eigenvalues --    0.74025   0.78179   0.80713   0.81288   0.83192

 Mulliken charges:
               1
     1  O   -0.523732
     2  H    0.275866
     3  H    0.236531
     4  O   -0.469180
     5  H    0.244068
     6  H    0.236446
 Sum of Mulliken charges =  -0.00000

 Dipole moment (field-independent basis, Debye):
    X=             -3.0885    Y=              2.6552    Z=              0.0000  Tot=              4.0730
 Quadrupole moment (field-independent basis, Debye-Ang):
   XX=            -10.9017   YY=             -9.1648   ZZ=            -14.7040
   XY=              2.1057   XZ=              0.0000   YZ=              0.0000

 CCSD(T)=-152.6635749\RMSD=7.449e-09\PG=CS [SG(H4O2)]\\@
 Normal termination of Gaussian 16 at Fri Aug 26 23:41:52 2022.
