 Gaussian 16, Revision A.03,
 Gaussian 16:  ES64L-G16RevA.03 25-Dec-2016

 ------------------
 #p CCSD(T)/cc-pVTZ
 ------------------

 ------------
 H2O_H2O_2284
 ------------
 Symbolic Z-matrix:
 Charge =  0 Multiplicity = 1

                         Standard orientation:
 ---------------------------------------------------------------------
 Center     Atomic      Atomic             Coordinates (Angstroms)
 Number     Number       Type             X           Y           Z
 ---------------------------------------------------------------------
      1          8           0        0.066775    2.016207   -0.000000
      2          1           0        0.065623    1.033606   -0.000000
      3          1           0       -0.862343    2.335963   -0.000000
      4          8           0        0.066775   -1.843126    0.000000
      5          1           0        0.611721   -2.660769    0.000000
      6          1           0       -0.883406   -2.093449    0.000000
 ---------------------------------------------------------------------

 SCF Done:  E(RHF) =  -152.110864901     A.U. after   10 cycles
 E2 =    -0.5262719406D+00 EUMP2 =    -0.15263713684136D+03
 CCSD(T)
 CCSD(T)= -0.15266423640D+03

 The electronic state is 1-A'.
 Alpha  occ. eigenvalues --  -20.57107 -20.54125  -1.34369  -1.31458  -0.71776
 Alpha  occ. eigenvalues --   -0.68846  -0.57964  -0.54926  -0.51499  -0.48597
 Alpha virt. eigenvalues --    0.12112   0.16487   0.19367   0.24796   0.52496
 Alpha virt. eigenvalues --    0.55783   0.55969   0.58708   0.68869   0.71565
 Alpha virt. eigenvalues --    0.76986   0.78577   0.80293   0.82529   0.83551

 Mulliken charges:
               1
     1  O   -0.522185
     2  H    0.266994
     3  H    0.247756
     4  O   -0.507604
     5  H    0.260308
     6  H    0.254733
 Sum of Mulliken charges =  -0.00000

 Dipole moment (field-independent basis, Debye):
    X=             -2.2634    Y=             -3.2021    Z=              0.0000  Tot=              3.9213
 Quadrupole moment (field-independent basis, Debye-Ang):
   XX=             -9.5722   YY=             -7.8501   ZZ=            -14.7229
   XY=             -3.6261   XZ=              0.0000   YZ=             -0.0000

 Normal termination of Gaussian 16 at Sun Aug 28 05:59:10 2022.
