 Gaussian 16, Revision A.03,
 Gaussian 16:  ES64L-G16RevA.03 25-Dec-2016

 ------------------
 #p CCSD(T)/cc-pVTZ
 ------------------

 ------------
 H2O_H2O_4682
 ------------
 Symbolic Z-matrix:
 Charge =  0 Multiplicity = 1

                         Standard orientation:
 ---------------------------------------------------------------------
 Center     Atomic      Atomic             Coordinates (Angstroms)
 Number     Number       Type             X           Y           Z
 ---------------------------------------------------------------------
      1          8           0        0.073523    2.970187   -0.000000
      2          1           0        0.072952    1.987586   -0.000000
      3          1           0       -0.855785    3.289394   -0.000000
      4          8           0        0.073523   -2.803222    0.000000
      5          1           0        0.507604   -3.684743    0.000000
      6          1           0       -0.901130   -2.927956    0.000000
 ---------------------------------------------------------------------

 SCF Done:  E(RHF) =  -152.108054798     A.U. after   10 cycles
 E2 =    -0.5258334230D+00 EUMP2 =    -0.15263388822081D+03
 CCSD(T)
 CCSD(T)= -0.15266109381D+03

 The electronic state is 1-A'.
 Alpha  occ. eigenvalues --  -20.56164 -20.55096  -1.33466  -1.32401  -0.70875
 Alpha  occ. eigenvalues --   -0.69800  -0.56943  -0.55863  -0.50582  -0.49519
 Alpha virt. eigenvalues --    0.13319   0.14768   0.19537   0.21019   0.53551
 Alpha virt. eigenvalues --    0.54822   0.56647   0.57727   0.66961   0.68559
 Alpha virt. eigenvalues --    0.78305   0.79344   0.79597   0.80644   0.82259

 Mulliken charges:
               1
     1  O   -0.511876
     2  H    0.259219
     3  H    0.252593
     4  O   -0.512785
     5  H    0.258238
     6  H    0.254611
 Sum of Mulliken charges =  -0.00000

 Dipole moment (field-independent basis, Debye):
    X=             -2.5224    Y=             -2.9264    Z=              0.0000  Tot=              3.8634
 Quadrupole moment (field-independent basis, Debye-Ang):
   XX=             -9.8087   YY=             -6.9299   ZZ=            -14.7135
   XY=             -4.0027   XZ=              0.0000   YZ=             -0.0000

 Normal termination of Gaussian 16 at Sun Aug 28 05:03:16 2022.
