 Gaussian 16, Revision A.03,
 Gaussian 16:  ES64L-G16RevA.03 25-Dec-2016

 ------------------
 #p CCSD(T)/cc-pVTZ
 ------------------

 ------------
 H2O_H2O_2990
 ------------
 Symbolic Z-matrix:
 Charge =  0 Multiplicity = 1

                         Standard orientation:
 ---------------------------------------------------------------------
 Center     Atomic      Atomic             Coordinates (Angstroms)
 Number     Number       Type             X           Y           Z
 ---------------------------------------------------------------------
      1          8           0        0.044862    2.299396    0.000000
      2          1           0        0.043014    1.316797    0.000000
      3          1           0       -0.884030    2.619810   -0.000000
      4          8           0        0.044862   -2.119000    0.000000
      5          1           0        0.860837   -2.666440    0.000000
      6          1           0       -0.737618   -2.713334   -0.000000
 ---------------------------------------------------------------------

 SCF Done:  E(RHF) =  -152.109943533     A.U. after   10 cycles
 E2 =    -0.5259377881D+00 EUMP2 =    -0.15263588132137D+03
 CCSD(T)
 CCSD(T)= -0.15266302138D+03

 The electronic state is 1-A'.
 Alpha  occ. eigenvalues --  -20.56656 -20.54419  -1.33933  -1.31741  -0.71333
 Alpha  occ. eigenvalues --   -0.69135  -0.57482  -0.55229  -0.51064  -0.48877
 Alpha virt. eigenvalues --    0.12512   0.15966   0.19452   0.22720   0.53158
 Alpha virt. eigenvalues --    0.55463   0.56363   0.58574   0.68345   0.69327
 Alpha virt. eigenvalues --    0.77828   0.79148   0.79319   0.79950   0.83276

 Mulliken charges:
               1
     1  O   -0.519480
     2  H    0.264571
     3  H    0.251827
     4  O   -0.514278
     5  H    0.260124
     6  H    0.257235
 Sum of Mulliken charges =  -0.00000

 Dipole moment (field-independent basis, Debye):
    X=             -1.5295    Y=             -3.2510    Z=              0.0000  Tot=              3.5928
 Quadrupole moment (field-independent basis, Debye-Ang):
   XX=             -9.1571   YY=             -7.1895   ZZ=            -14.7201
   XY=             -4.7846   XZ=              0.0000   YZ=              0.0000

 Normal termination of Gaussian 16 at Fri Aug 26 19:04:53 2022.
