 Gaussian 16, Revision A.03,
 Gaussian 16:  ES64L-G16RevA.03 25-Dec-2016

 ------------------
 #p CCSD(T)/cc-pVTZ
 ------------------

 ------------
 H2O_H2O_4722
 ------------
 Symbolic Z-matrix:
 Charge =  0 Multiplicity = 1

                         Standard orientation:
 ---------------------------------------------------------------------
 Center     Atomic      Atomic             Coordinates (Angstroms)
 Number     Number       Type             X           Y           Z
 ---------------------------------------------------------------------
      1          8           0       -0.019810    2.980254    0.000000
      2          1           0       -0.017669    1.997655    0.000000
      3          1           0        0.908986    3.300945    0.000000
      4          8           0       -0.019810   -2.813126    0.000000
      5          1           0       -0.993724   -2.943504    0.000000
      6          1           0        0.419370   -3.692119    0.000000
 ---------------------------------------------------------------------

 SCF Done:  E(RHF) =  -152.108353415     A.U. after   10 cycles
 E2 =    -0.5257989714D+00 EUMP2 =    -0.15263415238691D+03
 CCSD(T)
 CCSD(T)= -0.15266135271D+03

 The electronic state is 1-A'.
 Alpha  occ. eigenvalues --  -20.56143 -20.55073  -1.33446  -1.32380  -0.70852
 Alpha  occ. eigenvalues --   -0.69786  -0.56936  -0.55852  -0.50565  -0.49503
 Alpha virt. eigenvalues --    0.13387   0.14814   0.19561   0.21073   0.53573
 Alpha virt. eigenvalues --    0.54839   0.56698   0.57753   0.66958   0.68546
 Alpha virt. eigenvalues --    0.78319   0.79356   0.79639   0.80656   0.82222

 Mulliken charges:
               1
     1  O   -0.513938
     2  H    0.259237
     3  H    0.254641
     4  O   -0.514450
     5  H    0.256999
     6  H    0.257511
 Sum of Mulliken charges =   0.00000

 Dipole moment (field-independent basis, Debye):
    X=              0.6809    Y=             -2.9273    Z=              0.0000  Tot=              3.0054
 Quadrupole moment (field-independent basis, Debye-Ang):
   XX=             -9.4478   YY=             -6.8835   ZZ=            -14.7146
   XY=              7.5760   XZ=              0.0000   YZ=              0.0000

 Normal termination of Gaussian 16 at Sun Aug 28 05:23:42 2022.
