 Gaussian 16, Revision A.03,
 Gaussian 16:  ES64L-G16RevA.03 25-Dec-2016

 ------------------
 #p CCSD(T)/cc-pVTZ
 ------------------

 ------------
 H2O_H2O_3494
 ------------
 Symbolic Z-matrix:
 Charge =  0 Multiplicity = 1

                         Standard orientation:
 ---------------------------------------------------------------------
 Center     Atomic      Atomic             Coordinates (Angstroms)
 Number     Number       Type             X           Y           Z
 ---------------------------------------------------------------------
      1          8           0        0.030176    2.496240   -0.000000
      2          1           0        0.027964    1.513641   -0.000000
      3          1           0       -0.898597    2.816998   -0.000000
      4          8           0        0.030176   -2.320624    0.000000
      5          1           0        0.959917   -2.638565    0.000000
      6          1           0       -0.572104   -3.097003    0.000000
 ---------------------------------------------------------------------

 SCF Done:  E(RHF) =  -152.109279064     A.U. after   10 cycles
 E2 =    -0.5258470832D+00 EUMP2 =    -0.15263512614708D+03
 CCSD(T)
 CCSD(T)= -0.15266229237D+03

 The electronic state is 1-A'.
 Alpha  occ. eigenvalues --  -20.56436 -20.54685  -1.33728  -1.32000  -0.71130
 Alpha  occ. eigenvalues --   -0.69401  -0.57251  -0.55485  -0.50853  -0.49131
 Alpha virt. eigenvalues --    0.12716   0.15548   0.19479   0.21928   0.53363
 Alpha virt. eigenvalues --    0.55216   0.56521   0.58006   0.67033   0.69313
 Alpha virt. eigenvalues --    0.78049   0.78847   0.79706   0.79946   0.83023

 Mulliken charges:
               1
     1  O   -0.517420
     2  H    0.262524
     3  H    0.253622
     4  O   -0.516076
     5  H    0.259077
     6  H    0.258274
 Sum of Mulliken charges =  -0.00000

 Dipole moment (field-independent basis, Debye):
    X=             -1.0323    Y=             -3.1250    Z=              0.0000  Tot=              3.2911
 Quadrupole moment (field-independent basis, Debye-Ang):
   XX=             -9.2295   YY=             -7.0677   ZZ=            -14.7179
   XY=             -5.8005   XZ=              0.0000   YZ=             -0.0000

 Normal termination of Gaussian 16 at Fri Aug 26 22:00:31 2022.
