 Gaussian 16, Revision A.03,
 Gaussian 16:  ES64L-G16RevA.03 25-Dec-2016

 ------------------
 #p CCSD(T)/cc-pVTZ
 ------------------

 ------------
 H2O_H2O_3596
 ------------
 Symbolic Z-matrix:
 Charge =  0 Multiplicity = 1

                         Standard orientation:
 ---------------------------------------------------------------------
 Center     Atomic      Atomic             Coordinates (Angstroms)
 Number     Number       Type             X           Y           Z
 ---------------------------------------------------------------------
      1          8           0       -0.023192    2.533294    0.000000
      2          1           0       -0.020774    1.550695    0.000000
      3          1           0        0.905514    2.854246    0.000000
      4          8           0       -0.023192   -2.362898    0.000000
      5          1           0       -0.986439   -2.556964    0.000000
      6          1           0        0.472775   -3.211144    0.000000
 ---------------------------------------------------------------------

 SCF Done:  E(RHF) =  -152.109133405     A.U. after   10 cycles
 E2 =    -0.5258353356D+00 EUMP2 =    -0.15263496874107D+03
 CCSD(T)
 CCSD(T)= -0.15266214064D+03

 The electronic state is 1-A'.
 Alpha  occ. eigenvalues --  -20.56398 -20.54772  -1.33693  -1.32086  -0.71097
 Alpha  occ. eigenvalues --   -0.69490  -0.57210  -0.55570  -0.50817  -0.49217
 Alpha virt. eigenvalues --    0.12702   0.15460   0.19401   0.21917   0.53321
 Alpha virt. eigenvalues --    0.55235   0.56552   0.57943   0.66886   0.69251
 Alpha virt. eigenvalues --    0.78083   0.78798   0.79625   0.80298   0.82945

 Mulliken charges:
               1
     1  O   -0.517014
     2  H    0.261792
     3  H    0.254228
     4  O   -0.516155
     5  H    0.258528
     6  H    0.258620
 Sum of Mulliken charges =  -0.00000

 Dipole moment (field-independent basis, Debye):
    X=              0.7947    Y=             -3.0251    Z=              0.0000  Tot=              3.1277
 Quadrupole moment (field-independent basis, Debye-Ang):
   XX=             -9.3613   YY=             -7.2472   ZZ=            -14.7173
   XY=              6.2548   XZ=              0.0000   YZ=              0.0000

 Normal termination of Gaussian 16 at Fri Aug 26 22:35:31 2022.
