 Gaussian 16, Revision A.03,
 Gaussian 16:  ES64L-G16RevA.03 25-Dec-2016

 ------------------
 #p CCSD(T)/cc-pVTZ
 ------------------

 ------------
 H2O_H2O_4132
 ------------
 Symbolic Z-matrix:
 Charge =  0 Multiplicity = 1

                         Standard orientation:
 ---------------------------------------------------------------------
 Center     Atomic      Atomic             Coordinates (Angstroms)
 Number     Number       Type             X           Y           Z
 ---------------------------------------------------------------------
      1          8           0        0.073526    2.750801    0.000000
      2          1           0        0.072909    1.768200    0.000000
      3          1           0       -0.855766    3.070052    0.000000
      4          8           0        0.073526   -2.583843   -0.000000
      5          1           0        0.507566   -3.465385   -0.000000
      6          1           0       -0.901132   -2.708532   -0.000000
 ---------------------------------------------------------------------

 SCF Done:  E(RHF) =  -152.108274782     A.U. after   10 cycles
 E2 =    -0.5258479768D+00 EUMP2 =    -0.15263412275914D+03
 CCSD(T)
 CCSD(T)= -0.15266131970D+03

 The electronic state is 1-A'.
 Alpha  occ. eigenvalues --  -20.56270 -20.54991  -1.33570  -1.32298  -0.70980
 Alpha  occ. eigenvalues --   -0.69693  -0.57055  -0.55762  -0.50686  -0.49417
 Alpha virt. eigenvalues --    0.12963   0.15032   0.19444   0.21334   0.53353
 Alpha virt. eigenvalues --    0.54958   0.56559   0.57831   0.66718   0.68906
 Alpha virt. eigenvalues --    0.78207   0.79167   0.79441   0.80529   0.82680

 Mulliken charges:
               1
     1  O   -0.512586
     2  H    0.260266
     3  H    0.252035
     4  O   -0.513513
     5  H    0.259108
     6  H    0.254690
 Sum of Mulliken charges =  -0.00000

 Dipole moment (field-independent basis, Debye):
    X=             -2.5185    Y=             -2.9415    Z=             -0.0000  Tot=              3.8724
 Quadrupole moment (field-independent basis, Debye-Ang):
   XX=             -9.8101   YY=             -7.1827   ZZ=            -14.7142
   XY=             -3.8535   XZ=             -0.0000   YZ=              0.0000

 Normal termination of Gaussian 16 at Sat Aug 27 23:59:58 2022.
