 Gaussian 16, Revision A.03,
 Gaussian 16:  ES64L-G16RevA.03 25-Dec-2016

 ------------------
 #p CCSD(T)/cc-pVTZ
 ------------------

 -----------
 H2O_H2O_397
 -----------
 Symbolic Z-matrix:
 Charge =  0 Multiplicity = 1

                         Standard orientation:
 ---------------------------------------------------------------------
 Center     Atomic      Atomic             Coordinates (Angstroms)
 Number     Number       Type             X           Y           Z
 ---------------------------------------------------------------------
      1          8           0       -0.020078    1.255056    0.000000
      2          1           0       -0.014784    0.272469    0.000000
      3          1           0        0.907684    1.578726    0.000000
      4          8           0       -0.020078   -1.088056    0.000000
      5          1           0       -0.993568   -1.221558    0.000000
      6          1           0        0.421921   -1.965634    0.000000
 ---------------------------------------------------------------------

 SCF Done:  E(RHF) =  -152.089971095     A.U. after   11 cycles
 E2 =    -0.5328697222D+00 EUMP2 =    -0.15262284081728D+03
 CCSD(T)
 CCSD(T)= -0.15264903471D+03

 The electronic state is 1-A'.
 Alpha  occ. eigenvalues --  -20.60486 -20.48212  -1.39633  -1.26954  -0.77446
 Alpha  occ. eigenvalues --   -0.70602  -0.58516  -0.55887  -0.48622  -0.43868
 Alpha virt. eigenvalues --    0.11291   0.17764   0.19896   0.34057   0.47504
 Alpha virt. eigenvalues --    0.53019   0.59214   0.68460   0.71090   0.72062
 Alpha virt. eigenvalues --    0.75451   0.77062   0.78612   0.83883   0.84529

 Mulliken charges:
               1
     1  O   -0.631342
     2  H    0.295928
     3  H    0.235354
     4  O   -0.394016
     5  H    0.260148
     6  H    0.233928
 Sum of Mulliken charges =  -0.00000

 Dipole moment (field-independent basis, Debye):
    X=              0.6434    Y=             -4.1866    Z=              0.0000  Tot=              4.2358
 Quadrupole moment (field-independent basis, Debye-Ang):
   XX=             -9.3812   YY=             -9.5492   ZZ=            -14.6418
   XY=              3.1625   XZ=              0.0000   YZ=              0.0000

 Normal termination of Gaussian 16 at Fri Aug 26 17:56:44 2022.
