 Gaussian 16, Revision A.03,
 Gaussian 16:  ES64L-G16RevA.03 25-Dec-2016

 ------------------
 #p CCSD(T)/cc-pVTZ
 ------------------

 -----------
 H2O_H2O_981
 -----------
 Symbolic Z-matrix:
 Charge =  0 Multiplicity = 1

                         Standard orientation:
 ---------------------------------------------------------------------
 Center     Atomic      Atomic             Coordinates (Angstroms)
 Number     Number       Type             X           Y           Z
 ---------------------------------------------------------------------
      1          8           0       -0.076789    1.492273    0.000000
      2          1           0       -0.075815    0.509672    0.000000
      3          1           0        0.852388    1.811861    0.000000
      4          8           0       -0.076789   -1.329122    0.000000
      5          1           0       -0.451914   -2.237299    0.000000
      6          1           0        0.903960   -1.389442    0.000000
 ---------------------------------------------------------------------

 SCF Done:  E(RHF) =  -152.110408839     A.U. after   10 cycles
 E2 =    -0.5291312787D+00 EUMP2 =    -0.15263954011768D+03
 CCSD(T)
 CCSD(T)= -0.15266640985D+03

 The electronic state is 1-A'.
 Alpha  occ. eigenvalues --  -20.58827 -20.52284  -1.36411  -1.29917  -0.74021
 Alpha  occ. eigenvalues --   -0.68174  -0.59647  -0.53396  -0.52983  -0.46998
 Alpha virt. eigenvalues --    0.11576   0.16939   0.19845   0.31447   0.48299
 Alpha virt. eigenvalues --    0.54315   0.58796   0.59775   0.69532   0.72480
 Alpha virt. eigenvalues --    0.74445   0.76942   0.81301   0.82430   0.83981

 Mulliken charges:
               1
     1  O   -0.553799
     2  H    0.291987
     3  H    0.232890
     4  O   -0.459433
     5  H    0.242669
     6  H    0.245685
 Sum of Mulliken charges =  -0.00000

 Dipole moment (field-independent basis, Debye):
    X=              2.5250    Y=             -3.4452    Z=              0.0000  Tot=              4.2714
 Quadrupole moment (field-independent basis, Debye-Ang):
   XX=             -9.9887   YY=             -8.8498   ZZ=            -14.7089
   XY=              2.8720   XZ=              0.0000   YZ=              0.0000

 Normal termination of Gaussian 16 at Fri Aug 26 21:43:08 2022.
