 Gaussian 16, Revision A.03,
 Gaussian 16:  ES64L-G16RevA.03 25-Dec-2016

 ------------------
 #p CCSD(T)/cc-pVTZ
 ------------------

 -----------
 H2O_H2O_484
 -----------
 Symbolic Z-matrix:
 Charge =  0 Multiplicity = 1

                         Standard orientation:
 ---------------------------------------------------------------------
 Center     Atomic      Atomic             Coordinates (Angstroms)
 Number     Number       Type             X           Y           Z
 ---------------------------------------------------------------------
      1          8           0        0.066835    1.298182   -0.000000
      2          1           0        0.065001    0.315583   -0.000000
      3          1           0       -0.862061    1.618583   -0.000000
      4          8           0        0.066835   -1.125194    0.000000
      5          1           0        0.611213   -1.943215    0.000000
      6          1           0       -0.883519   -1.374858    0.000000
 ---------------------------------------------------------------------

 SCF Done:  E(RHF) =  -152.097419441     A.U. after   11 cycles
 E2 =    -0.5322930481D+00 EUMP2 =    -0.15262971248956D+03
 CCSD(T)
 CCSD(T)= -0.15265607010D+03

 The electronic state is 1-A'.
 Alpha  occ. eigenvalues --  -20.60272 -20.49110  -1.38874  -1.27555  -0.76084
 Alpha  occ. eigenvalues --   -0.70776  -0.58444  -0.55404  -0.49714  -0.44483
 Alpha virt. eigenvalues --    0.11149   0.16981   0.20226   0.33186   0.48155
 Alpha virt. eigenvalues --    0.53327   0.60380   0.63076   0.71871   0.72163
 Alpha virt. eigenvalues --    0.74125   0.78689   0.79844   0.83686   0.84068

 Mulliken charges:
               1
     1  O   -0.603206
     2  H    0.306201
     3  H    0.219630
     4  O   -0.412551
     5  H    0.245503
     6  H    0.244423
 Sum of Mulliken charges =  -0.00000

 Dipole moment (field-independent basis, Debye):
    X=             -2.1268    Y=             -4.1581    Z=              0.0000  Tot=              4.6705
 Quadrupole moment (field-independent basis, Debye-Ang):
   XX=             -9.5661   YY=             -9.4062   ZZ=            -14.6602
   XY=             -2.8788   XZ=              0.0000   YZ=             -0.0000

 Normal termination of Gaussian 16 at Fri Aug 26 18:34:39 2022.
