 Gaussian 16, Revision A.03,
 Gaussian 16:  ES64L-G16RevA.03 25-Dec-2016

 ------------------
 #p CCSD(T)/cc-pVTZ
 ------------------

 ------------
 H2O_H2O_1342
 ------------
 Symbolic Z-matrix:
 Charge =  0 Multiplicity = 1

                         Standard orientation:
 ---------------------------------------------------------------------
 Center     Atomic      Atomic             Coordinates (Angstroms)
 Number     Number       Type             X           Y           Z
 ---------------------------------------------------------------------
      1          8           0        0.037533    1.640438   -0.000000
      2          1           0        0.034496    0.657841   -0.000000
      3          1           0       -0.890970    1.961976   -0.000000
      4          8           0        0.037533   -1.461547    0.000000
      5          1           0        0.917455   -1.898862    0.000000
      6          1           0       -0.661513   -2.152083    0.000000
 ---------------------------------------------------------------------

 SCF Done:  E(RHF) =  -152.114236665     A.U. after   10 cycles
 E2 =    -0.5274713424D+00 EUMP2 =    -0.15264170800688D+03
 CCSD(T)
 CCSD(T)= -0.15266867029D+03

 The electronic state is 1-A'.
 Alpha  occ. eigenvalues --  -20.58187 -20.52574  -1.35513  -1.30075  -0.72835
 Alpha  occ. eigenvalues --   -0.67922  -0.59338  -0.53341  -0.52632  -0.47223
 Alpha virt. eigenvalues --    0.12050   0.17927   0.18837   0.30017   0.49678
 Alpha virt. eigenvalues --    0.54511   0.55912   0.60484   0.68740   0.72039
 Alpha virt. eigenvalues --    0.73698   0.77038   0.81857   0.82852   0.84857

 Mulliken charges:
               1
     1  O   -0.550185
     2  H    0.282808
     3  H    0.246587
     4  O   -0.503743
     5  H    0.265939
     6  H    0.258594
 Sum of Mulliken charges =  -0.00000

 Dipole moment (field-independent basis, Debye):
    X=             -1.2550    Y=             -3.5762    Z=              0.0000  Tot=              3.7901
 Quadrupole moment (field-independent basis, Debye-Ang):
   XX=             -9.1590   YY=             -8.4262   ZZ=            -14.7350
   XY=             -3.7929   XZ=              0.0000   YZ=             -0.0000

 Normal termination of Gaussian 16 at Fri Aug 26 23:58:33 2022.
