 Gaussian 16, Revision A.03,
 Gaussian 16:  ES64L-G16RevA.03 25-Dec-2016

 ------------------
 #p CCSD(T)/cc-pVTZ
 ------------------

 ------------
 H2O_H2O_3657
 ------------
 Symbolic Z-matrix:
 Charge =  0 Multiplicity = 1

                         Standard orientation:
 ---------------------------------------------------------------------
 Center     Atomic      Atomic             Coordinates (Angstroms)
 Number     Number       Type             X           Y           Z
 ---------------------------------------------------------------------
      1          8           0        0.073530    2.561331    0.000000
      2          1           0        0.072865    1.578730    0.000000
      3          1           0       -0.855747    2.880626    0.000000
      4          8           0        0.073530   -2.394380   -0.000000
      5          1           0        0.507528   -3.275942   -0.000000
      6          1           0       -0.901134   -2.519022   -0.000000
 ---------------------------------------------------------------------

 SCF Done:  E(RHF) =  -152.108570444     A.U. after   10 cycles
 E2 =    -0.5258832949D+00 EUMP2 =    -0.15263445373904D+03
 CCSD(T)
 CCSD(T)= -0.15266163741D+03

 The electronic state is 1-A'.
 Alpha  occ. eigenvalues --  -20.56398 -20.54873  -1.33693  -1.32182  -0.71104
 Alpha  occ. eigenvalues --   -0.69574  -0.57187  -0.55650  -0.50811  -0.49304
 Alpha virt. eigenvalues --    0.12604   0.15323   0.19413   0.21720   0.53319
 Alpha virt. eigenvalues --    0.55058   0.56468   0.57994   0.66818   0.69175
 Alpha virt. eigenvalues --    0.78091   0.78784   0.79548   0.80419   0.82814

 Mulliken charges:
               1
     1  O   -0.513426
     2  H    0.261254
     3  H    0.251355
     4  O   -0.513571
     5  H    0.259738
     6  H    0.254650
 Sum of Mulliken charges =  -0.00000

 Dipole moment (field-independent basis, Debye):
    X=             -2.5142    Y=             -2.9612    Z=             -0.0000  Tot=              3.8846
 Quadrupole moment (field-independent basis, Debye-Ang):
   XX=             -9.8120   YY=             -7.3968   ZZ=            -14.7153
   XY=             -3.7247   XZ=             -0.0000   YZ=             -0.0000

 Normal termination of Gaussian 16 at Fri Aug 26 22:55:38 2022.
