 Gaussian 16, Revision A.03,
 Gaussian 16:  ES64L-G16RevA.03 25-Dec-2016

 ------------------
 #p CCSD(T)/cc-pVTZ
 ------------------

 ------------
 H2O_H2O_3054
 ------------
 Symbolic Z-matrix:
 Charge =  0 Multiplicity = 1

                         Standard orientation:
 ---------------------------------------------------------------------
 Center     Atomic      Atomic             Coordinates (Angstroms)
 Number     Number       Type             X           Y           Z
 ---------------------------------------------------------------------
      1          8           0        0.082804   -2.315251    0.000000
      2          1           0        0.082419   -1.332649    0.000000
      3          1           0       -0.846564   -2.634281    0.000000
      4          8           0        0.082804    2.160734    0.000000
      5          1           0        0.336748    3.109953    0.000000
      6          1           0       -0.897469    2.093112    0.000000
 ---------------------------------------------------------------------

 SCF Done:  E(RHF) =  -152.108731011     A.U. after   10 cycles
 E2 =    -0.5260153732D+00 EUMP2 =    -0.15263474638394D+03
 CCSD(T)
 CCSD(T)= -0.15266191422D+03

 The electronic state is 1-A'.
 Alpha  occ. eigenvalues --  -20.56628 -20.54852  -1.33918  -1.32161  -0.71339
 Alpha  occ. eigenvalues --   -0.69544  -0.57410  -0.55624  -0.51033  -0.49282
 Alpha virt. eigenvalues --    0.11974   0.15662   0.19397   0.22721   0.53968
 Alpha virt. eigenvalues --    0.54935   0.56394   0.58298   0.67869   0.69187
 Alpha virt. eigenvalues --    0.77862   0.78647   0.79576   0.80782   0.82800

 Mulliken charges:
               1
     1  O   -0.513387
     2  H    0.261810
     3  H    0.249629
     4  O   -0.510506
     5  H    0.259830
     6  H    0.252624
 Sum of Mulliken charges =  -0.00000

 Dipole moment (field-independent basis, Debye):
    X=             -2.8217    Y=              2.7734    Z=              0.0000  Tot=              3.9565
 Quadrupole moment (field-independent basis, Debye-Ang):
   XX=            -10.2545   YY=             -8.1907   ZZ=            -14.7155
   XY=              2.9917   XZ=              0.0000   YZ=              0.0000

 Normal termination of Gaussian 16 at Fri Aug 26 19:31:04 2022.
