 Gaussian 16, Revision A.03,
 Gaussian 16:  ES64L-G16RevA.03 25-Dec-2016

 ------------------
 #p CCSD(T)/cc-pVTZ
 ------------------

 ------------
 H2O_H2O_3320
 ------------
 Symbolic Z-matrix:
 Charge =  0 Multiplicity = 1

                         Standard orientation:
 ---------------------------------------------------------------------
 Center     Atomic      Atomic             Coordinates (Angstroms)
 Number     Number       Type             X           Y           Z
 ---------------------------------------------------------------------
      1          8           0        0.026650    2.425141    0.000000
      2          1           0        0.024244    1.442543    0.000000
      3          1           0       -0.902060    2.746083   -0.000000
      4          8           0        0.026650   -2.251912    0.000000
      5          1           0        0.975145   -2.508551    0.000000
      6          1           0       -0.523724   -3.065910   -0.000000
 ---------------------------------------------------------------------

 SCF Done:  E(RHF) =  -152.109475797     A.U. after   10 cycles
 E2 =    -0.5258667739D+00 EUMP2 =    -0.15263534257097D+03
 CCSD(T)
 CCSD(T)= -0.15266250135D+03

 The electronic state is 1-A'.
 Alpha  occ. eigenvalues --  -20.56498 -20.54643  -1.33787  -1.31959  -0.71190
 Alpha  occ. eigenvalues --   -0.69362  -0.57317  -0.55447  -0.50914  -0.49093
 Alpha virt. eigenvalues --    0.12583   0.15678   0.19414   0.22238   0.53371
 Alpha virt. eigenvalues --    0.55348   0.56496   0.58114   0.67338   0.69339
 Alpha virt. eigenvalues --    0.77990   0.78779   0.79742   0.80056   0.83068

 Mulliken charges:
               1
     1  O   -0.518265
     2  H    0.262784
     3  H    0.253785
     4  O   -0.515877
     5  H    0.259085
     6  H    0.258489
 Sum of Mulliken charges =  -0.00000

 Dipole moment (field-independent basis, Debye):
    X=             -0.9116    Y=             -3.0932    Z=             -0.0000  Tot=              3.2248
 Quadrupole moment (field-independent basis, Debye-Ang):
   XX=             -9.2883   YY=             -7.2658   ZZ=            -14.7185
   XY=             -5.8178   XZ=              0.0000   YZ=             -0.0000

 Normal termination of Gaussian 16 at Fri Aug 26 21:02:58 2022.
