 Gaussian 16, Revision A.03,
 Gaussian 16:  ES64L-G16RevA.03 25-Dec-2016

 ------------------
 #p CCSD(T)/cc-pVTZ
 ------------------

 ------------
 H2O_H2O_2049
 ------------
 Symbolic Z-matrix:
 Charge =  0 Multiplicity = 1

                         Standard orientation:
 ---------------------------------------------------------------------
 Center     Atomic      Atomic             Coordinates (Angstroms)
 Number     Number       Type             X           Y           Z
 ---------------------------------------------------------------------
      1          8           0       -0.013577    1.908982    0.000000
      2          1           0       -0.009892    0.926387    0.000000
      3          1           0        0.914715    2.231131    0.000000
      4          8           0       -0.013577   -1.749739    0.000000
      5          1           0       -0.996171   -1.753424    0.000000
      6          1           0        0.308573   -2.678032    0.000000
 ---------------------------------------------------------------------

 SCF Done:  E(RHF) =  -152.111666655     A.U. after   10 cycles
 E2 =    -0.5263585474D+00 EUMP2 =    -0.15263802520262D+03
 CCSD(T)
 CCSD(T)= -0.15266510830D+03

 The electronic state is 1-A'.
 Alpha  occ. eigenvalues --  -20.57245 -20.54096  -1.34525  -1.31445  -0.71962
 Alpha  occ. eigenvalues --   -0.68865  -0.58175  -0.54909  -0.51652  -0.48597
 Alpha virt. eigenvalues --    0.12170   0.16818   0.19270   0.26125   0.53048
 Alpha virt. eigenvalues --    0.54620   0.55954   0.59049   0.68675   0.73011
 Alpha virt. eigenvalues --    0.76315   0.78801   0.80391   0.83415   0.83529

 Mulliken charges:
               1
     1  O   -0.529810
     2  H    0.266387
     3  H    0.254629
     4  O   -0.509655
     5  H    0.260315
     6  H    0.258135
 Sum of Mulliken charges =  -0.00000

 Dipole moment (field-independent basis, Debye):
    X=              0.4691    Y=             -2.9797    Z=              0.0000  Tot=              3.0164
 Quadrupole moment (field-independent basis, Debye-Ang):
   XX=             -9.6502   YY=             -8.3271   ZZ=            -14.7256
   XY=              5.1471   XZ=              0.0000   YZ=              0.0000

 Normal termination of Gaussian 16 at Sun Aug 28 03:52:06 2022.
