 Gaussian 16, Revision A.03,
 Gaussian 16:  ES64L-G16RevA.03 25-Dec-2016

 ------------------
 #p CCSD(T)/cc-pVTZ
 ------------------

 ------------
 H2O_H2O_2047
 ------------
 Symbolic Z-matrix:
 Charge =  0 Multiplicity = 1

                         Standard orientation:
 ---------------------------------------------------------------------
 Center     Atomic      Atomic             Coordinates (Angstroms)
 Number     Number       Type             X           Y           Z
 ---------------------------------------------------------------------
      1          8           0       -0.019916    1.913236    0.000000
      2          1           0       -0.016527    0.930641    0.000000
      3          1           0        0.908472    2.235107    0.000000
      4          8           0       -0.019916   -1.746159    0.000000
      5          1           0       -0.993664   -1.877774    0.000000
      6          1           0        0.420380   -2.624591    0.000000
 ---------------------------------------------------------------------

 SCF Done:  E(RHF) =  -152.111984351     A.U. after   10 cycles
 E2 =    -0.5263524311D+00 EUMP2 =    -0.15263833678232D+03
 CCSD(T)
 CCSD(T)= -0.15266541118D+03

 The electronic state is 1-A'.
 Alpha  occ. eigenvalues --  -20.57268 -20.53938  -1.34538  -1.31292  -0.71952
 Alpha  occ. eigenvalues --   -0.68719  -0.58207  -0.54757  -0.51671  -0.48446
 Alpha virt. eigenvalues --    0.12218   0.16900   0.19211   0.26081   0.52761
 Alpha virt. eigenvalues --    0.54688   0.56079   0.58956   0.68866   0.72709
 Alpha virt. eigenvalues --    0.76338   0.78511   0.80512   0.83456   0.83870

 Mulliken charges:
               1
     1  O   -0.530288
     2  H    0.267336
     3  H    0.253332
     4  O   -0.509737
     5  H    0.261130
     6  H    0.258227
 Sum of Mulliken charges =  -0.00000

 Dipole moment (field-independent basis, Debye):
    X=              0.6799    Y=             -3.1305    Z=              0.0000  Tot=              3.2035
 Quadrupole moment (field-independent basis, Debye-Ang):
   XX=             -9.4482   YY=             -8.1288   ZZ=            -14.7271
   XY=              4.8842   XZ=              0.0000   YZ=              0.0000

 Normal termination of Gaussian 16 at Sun Aug 28 03:50:24 2022.
