 Gaussian 16, Revision A.03,
 Gaussian 16:  ES64L-G16RevA.03 25-Dec-2016

 ------------------
 #p CCSD(T)/cc-pVTZ
 ------------------

 -----------
 H2O_H2O_852
 -----------
 Symbolic Z-matrix:
 Charge =  0 Multiplicity = 1

                         Standard orientation:
 ---------------------------------------------------------------------
 Center     Atomic      Atomic             Coordinates (Angstroms)
 Number     Number       Type             X           Y           Z
 ---------------------------------------------------------------------
      1          8           0        0.088240   -1.432171    0.000000
      2          1           0        0.087946   -0.449570    0.000000
      3          1           0       -0.841157   -1.751116    0.000000
      4          8           0        0.088240    1.287872    0.000000
      5          1           0        0.216204    2.262107    0.000000
      6          1           0       -0.874837    1.092967    0.000000
 ---------------------------------------------------------------------

 SCF Done:  E(RHF) =  -152.105284738     A.U. after   10 cycles
 E2 =    -0.5302855292D+00 EUMP2 =    -0.15263557026735D+03
 CCSD(T)
 CCSD(T)= -0.15266242305D+03

 The electronic state is 1-A'.
 Alpha  occ. eigenvalues --  -20.59053 -20.52644  -1.36894  -1.30307  -0.75170
 Alpha  occ. eigenvalues --   -0.68069  -0.59723  -0.53711  -0.53352  -0.47349
 Alpha virt. eigenvalues --    0.11424   0.16532   0.20520   0.31517   0.48259
 Alpha virt. eigenvalues --    0.53072   0.58507   0.61695   0.68789   0.71706
 Alpha virt. eigenvalues --    0.74129   0.78008   0.79793   0.82437   0.83188

 Mulliken charges:
               1
     1  O   -0.547533
     2  H    0.288423
     3  H    0.227467
     4  O   -0.436107
     5  H    0.234620
     6  H    0.233130
 Sum of Mulliken charges =  -0.00000

 Dipole moment (field-independent basis, Debye):
    X=             -2.8858    Y=              3.1432    Z=              0.0000  Tot=              4.2670
 Quadrupole moment (field-independent basis, Debye-Ang):
   XX=            -10.6041   YY=             -9.1229   ZZ=            -14.6847
   XY=              2.3643   XZ=              0.0000   YZ=              0.0000

 Normal termination of Gaussian 16 at Fri Aug 26 20:54:29 2022.
