 Gaussian 16, Revision A.03,
 Gaussian 16:  ES64L-G16RevA.03 25-Dec-2016

 ------------------
 #p CCSD(T)/cc-pVTZ
 ------------------

 ------------
 H2O_H2O_3703
 ------------
 Symbolic Z-matrix:
 Charge =  0 Multiplicity = 1

                         Standard orientation:
 ---------------------------------------------------------------------
 Center     Atomic      Atomic             Coordinates (Angstroms)
 Number     Number       Type             X           Y           Z
 ---------------------------------------------------------------------
      1          8           0        0.085599   -2.571850    0.000000
      2          1           0        0.085349   -1.589249    0.000000
      3          1           0       -0.843813   -2.890753    0.000000
      4          8           0        0.085599    2.422249    0.000000
      5          1           0        0.277051    3.386019    0.000000
      6          1           0       -0.888170    2.290794    0.000000
 ---------------------------------------------------------------------

 SCF Done:  E(RHF) =  -152.108127518     A.U. after   10 cycles
 E2 =    -0.5259096052D+00 EUMP2 =    -0.15263403712327D+03
 CCSD(T)
 CCSD(T)= -0.15266123242D+03

 The electronic state is 1-A'.
 Alpha  occ. eigenvalues --  -20.56389 -20.55081  -1.33687  -1.32386  -0.71104
 Alpha  occ. eigenvalues --   -0.69777  -0.57163  -0.55845  -0.50800  -0.49502
 Alpha virt. eigenvalues --    0.12287   0.15216   0.19155   0.22045   0.53235
 Alpha virt. eigenvalues --    0.55026   0.56467   0.57970   0.66801   0.68986
 Alpha virt. eigenvalues --    0.78102   0.78805   0.79361   0.81097   0.82580

 Mulliken charges:
               1
     1  O   -0.511261
     2  H    0.259614
     3  H    0.251085
     4  O   -0.511816
     5  H    0.259530
     6  H    0.252848
 Sum of Mulliken charges =  -0.00000

 Dipole moment (field-independent basis, Debye):
    X=             -2.9270    Y=              2.6495    Z=              0.0000  Tot=              3.9480
 Quadrupole moment (field-independent basis, Debye-Ang):
   XX=            -10.4013   YY=             -8.2858   ZZ=            -14.7135
   XY=              2.8573   XZ=              0.0000   YZ=              0.0000

 Normal termination of Gaussian 16 at Fri Aug 26 23:12:19 2022.
