 Gaussian 16, Revision A.03,
 Gaussian 16:  ES64L-G16RevA.03 25-Dec-2016

 ------------------
 #p CCSD(T)/cc-pVTZ
 ------------------

 -----------
 H2O_H2O_393
 -----------
 Symbolic Z-matrix:
 Charge =  0 Multiplicity = 1

                         Standard orientation:
 ---------------------------------------------------------------------
 Center     Atomic      Atomic             Coordinates (Angstroms)
 Number     Number       Type             X           Y           Z
 ---------------------------------------------------------------------
      1          8           0        0.033977    1.260691    0.000000
      2          1           0        0.029693    0.278099    0.000000
      3          1           0       -0.894118    1.583407   -0.000000
      4          8           0        0.033977   -1.083310    0.000000
      5          1           0        0.940135   -1.463290    0.000000
      6          1           0       -0.619340   -1.817260   -0.000000
 ---------------------------------------------------------------------

 SCF Done:  E(RHF) =  -152.091769084     A.U. after   11 cycles
 E2 =    -0.5326256098D+00 EUMP2 =    -0.15262439469410D+03
 CCSD(T)
 CCSD(T)= -0.15265057701D+03

 The electronic state is 1-A'.
 Alpha  occ. eigenvalues --  -20.60611 -20.47748  -1.39625  -1.26589  -0.76354
 Alpha  occ. eigenvalues --   -0.72199  -0.57890  -0.55989  -0.48213  -0.43461
 Alpha virt. eigenvalues --    0.11139   0.17566   0.20027   0.33808   0.47089
 Alpha virt. eigenvalues --    0.53263   0.60604   0.67216   0.69584   0.72114
 Alpha virt. eigenvalues --    0.75852   0.78530   0.80039   0.83198   0.83810

 Mulliken charges:
               1
     1  O   -0.632034
     2  H    0.306474
     3  H    0.227118
     4  O   -0.406466
     5  H    0.261207
     6  H    0.243700
 Sum of Mulliken charges =  -0.00000

 Dipole moment (field-independent basis, Debye):
    X=             -1.0770    Y=             -4.4237    Z=             -0.0000  Tot=              4.5529
 Quadrupole moment (field-independent basis, Debye-Ang):
   XX=             -9.1402   YY=             -9.6087   ZZ=            -14.6502
   XY=             -3.0079   XZ=             -0.0000   YZ=             -0.0000

 Normal termination of Gaussian 16 at Fri Aug 26 17:55:05 2022.
