 Gaussian 16, Revision A.03,
 Gaussian 16:  ES64L-G16RevA.03 25-Dec-2016

 ------------------
 #p CCSD(T)/cc-pVTZ
 ------------------

 ------------
 H2O_H2O_1929
 ------------
 Symbolic Z-matrix:
 Charge =  0 Multiplicity = 1

                         Standard orientation:
 ---------------------------------------------------------------------
 Center     Atomic      Atomic             Coordinates (Angstroms)
 Number     Number       Type             X           Y           Z
 ---------------------------------------------------------------------
      1          8           0        0.082812   -1.866505    0.000000
      2          1           0        0.082330   -0.883904    0.000000
      3          1           0       -0.846525   -2.185627    0.000000
      4          8           0        0.082812    1.712005    0.000000
      5          1           0        0.336663    2.661250    0.000000
      6          1           0       -0.897454    1.644287    0.000000
 ---------------------------------------------------------------------

 SCF Done:  E(RHF) =  -152.110412297     A.U. after   10 cycles
 E2 =    -0.5266930447D+00 EUMP2 =    -0.15263710534207D+03
 CCSD(T)
 CCSD(T)= -0.15266419950D+03

 The electronic state is 1-A'.
 Alpha  occ. eigenvalues --  -20.57398 -20.54269  -1.34682  -1.31605  -0.72157
 Alpha  occ. eigenvalues --   -0.68968  -0.58256  -0.55032  -0.51791  -0.48730
 Alpha virt. eigenvalues --    0.11741   0.16418   0.19759   0.25996   0.51469
 Alpha virt. eigenvalues --    0.55616   0.56673   0.57871   0.68796   0.73569
 Alpha virt. eigenvalues --    0.75911   0.78496   0.80336   0.83139   0.83250

 Mulliken charges:
               1
     1  O   -0.520681
     2  H    0.267839
     3  H    0.244347
     4  O   -0.500845
     5  H    0.258710
     6  H    0.250631
 Sum of Mulliken charges =  -0.00000

 Dipole moment (field-independent basis, Debye):
    X=             -2.7916    Y=              2.9088    Z=              0.0000  Tot=              4.0316
 Quadrupole moment (field-independent basis, Debye-Ang):
   XX=            -10.2765   YY=             -8.5019   ZZ=            -14.7208
   XY=              2.8246   XZ=              0.0000   YZ=              0.0000

 Normal termination of Gaussian 16 at Sun Aug 28 02:51:56 2022.
