 Gaussian 16, Revision A.03,
 Gaussian 16:  ES64L-G16RevA.03 25-Dec-2016

 ------------------
 #p CCSD(T)/cc-pVTZ
 ------------------

 ------------
 H2O_H2O_1309
 ------------
 Symbolic Z-matrix:
 Charge =  0 Multiplicity = 1

                         Standard orientation:
 ---------------------------------------------------------------------
 Center     Atomic      Atomic             Coordinates (Angstroms)
 Number     Number       Type             X           Y           Z
 ---------------------------------------------------------------------
      1          8           0        0.066801    1.627282   -0.000000
      2          1           0        0.065358    0.644682   -0.000000
      3          1           0       -0.862223    1.947313   -0.000000
      4          8           0        0.066801   -1.454241    0.000000
      5          1           0        0.611506   -2.272044    0.000000
      6          1           0       -0.883454   -1.704282    0.000000
 ---------------------------------------------------------------------

 SCF Done:  E(RHF) =  -152.113046094     A.U. after   10 cycles
 E2 =    -0.5277172341D+00 EUMP2 =    -0.15264076332844D+03
 CCSD(T)
 CCSD(T)= -0.15266773374D+03

 The electronic state is 1-A'.
 Alpha  occ. eigenvalues --  -20.58237 -20.52807  -1.35585  -1.30292  -0.72977
 Alpha  occ. eigenvalues --   -0.68074  -0.59293  -0.53555  -0.52682  -0.47420
 Alpha virt. eigenvalues --    0.11835   0.17246   0.19346   0.29874   0.48962
 Alpha virt. eigenvalues --    0.54951   0.57204   0.59099   0.69796   0.73147
 Alpha virt. eigenvalues --    0.73548   0.76541   0.81737   0.82628   0.84513

 Mulliken charges:
               1
     1  O   -0.543226
     2  H    0.283391
     3  H    0.240264
     4  O   -0.493962
     5  H    0.258902
     6  H    0.254630
 Sum of Mulliken charges =  -0.00000

 Dipole moment (field-independent basis, Debye):
    X=             -2.2250    Y=             -3.4664    Z=              0.0000  Tot=              4.1190
 Quadrupole moment (field-independent basis, Debye-Ang):
   XX=             -9.5845   YY=             -8.4998   ZZ=            -14.7289
   XY=             -3.2577   XZ=              0.0000   YZ=             -0.0000

 CCSD(T)=-152.6677337\RMSD=7.036e-09\PG=CS [SG(H4O2)]\\@
 Normal termination of Gaussian 16 at Fri Aug 26 23:45:22 2022.
