 Gaussian 16, Revision A.03,
 Gaussian 16:  ES64L-G16RevA.03 25-Dec-2016

 ------------------
 #p CCSD(T)/cc-pVTZ
 ------------------

 -----------
 H2O_H2O_117
 -----------
 Symbolic Z-matrix:
 Charge =  0 Multiplicity = 1

                         Standard orientation:
 ---------------------------------------------------------------------
 Center     Atomic      Atomic             Coordinates (Angstroms)
 Number     Number       Type             X           Y           Z
 ---------------------------------------------------------------------
      1          8           0        0.037660    1.151763    0.000000
      2          1           0        0.033226    0.169172    0.000000
      3          1           0       -0.890385    1.474621    0.000000
      4          8           0        0.037660   -0.972979    0.000000
      5          1           0        0.916959   -1.411545    0.000000
      6          1           0       -0.662367   -1.662521    0.000000
 ---------------------------------------------------------------------

 SCF Done:  E(RHF) =  -152.052855143     A.U. after   11 cycles
 E2 =    -0.5351827658D+00 EUMP2 =    -0.15258803790850D+03
 CCSD(T)
 CCSD(T)= -0.15261368687D+03

 The electronic state is 1-A'.
 Alpha  occ. eigenvalues --  -20.61812 -20.44615  -1.42960  -1.24700  -0.79058
 Alpha  occ. eigenvalues --   -0.76481  -0.58162  -0.55253  -0.44839  -0.41253
 Alpha virt. eigenvalues --    0.10501   0.16739   0.20941   0.33323   0.46689
 Alpha virt. eigenvalues --    0.52167   0.62214   0.66825   0.70298   0.70991
 Alpha virt. eigenvalues --    0.78162   0.79294   0.81037   0.82800   0.86980

 Mulliken charges:
               1
     1  O   -0.670841
     2  H    0.292032
     3  H    0.210424
     4  O   -0.330422
     5  H    0.259608
     6  H    0.239199
 Sum of Mulliken charges =  -0.00000

 Dipole moment (field-independent basis, Debye):
    X=             -1.1456    Y=             -4.9660    Z=             -0.0000  Tot=              5.0965
 Quadrupole moment (field-independent basis, Debye-Ang):
   XX=             -9.0901   YY=            -10.1328   ZZ=            -14.5748
   XY=             -2.7226   XZ=             -0.0000   YZ=             -0.0000

 Normal termination of Gaussian 16 at Fri Aug 26 15:58:19 2022.
