 Gaussian 16, Revision A.03,
 Gaussian 16:  ES64L-G16RevA.03 25-Dec-2016

 ------------------
 #p CCSD(T)/cc-pVTZ
 ------------------

 -----------
 H2O_H2O_576
 -----------
 Symbolic Z-matrix:
 Charge =  0 Multiplicity = 1

                         Standard orientation:
 ---------------------------------------------------------------------
 Center     Atomic      Atomic             Coordinates (Angstroms)
 Number     Number       Type             X           Y           Z
 ---------------------------------------------------------------------
      1          8           0        0.090690   -1.319436    0.000000
      2          1           0        0.090536   -0.336835    0.000000
      3          1           0       -0.838754   -1.638248    0.000000
      4          8           0        0.090690    1.180740    0.000000
      5          1           0        0.154801    2.161248    0.000000
      6          1           0       -0.857616    0.923399    0.000000
 ---------------------------------------------------------------------

 SCF Done:  E(RHF) =  -152.093952929     A.U. after   11 cycles
 E2 =    -0.5326921406D+00 EUMP2 =    -0.15262664507003D+03
 CCSD(T)
 CCSD(T)= -0.15265324663D+03

 The electronic state is 1-A'.
 Alpha  occ. eigenvalues --  -20.59774 -20.51612  -1.38387  -1.29587  -0.77404
 Alpha  occ. eigenvalues --   -0.67995  -0.59650  -0.54761  -0.52351  -0.46567
 Alpha virt. eigenvalues --    0.11271   0.16396   0.20960   0.32224   0.48458
 Alpha virt. eigenvalues --    0.52042   0.58927   0.64542   0.70176   0.71277
 Alpha virt. eigenvalues --    0.73908   0.78018   0.78582   0.82763   0.83441

 Mulliken charges:
               1
     1  O   -0.559810
     2  H    0.286800
     3  H    0.217020
     4  O   -0.403939
     5  H    0.231548
     6  H    0.228381
 Sum of Mulliken charges =  -0.00000

 Dipole moment (field-independent basis, Debye):
    X=             -2.9259    Y=              3.2829    Z=              0.0000  Tot=              4.3975
 Quadrupole moment (field-independent basis, Debye-Ang):
   XX=            -10.7396   YY=             -9.3821   ZZ=            -14.6444
   XY=              2.1695   XZ=              0.0000   YZ=              0.0000

 Normal termination of Gaussian 16 at Fri Aug 26 19:10:29 2022.
