 Gaussian 16, Revision A.03,
 Gaussian 16:  ES64L-G16RevA.03 25-Dec-2016

 ------------------
 #p CCSD(T)/cc-pVTZ
 ------------------

 ------------
 H2O_H2O_4377
 ------------
 Symbolic Z-matrix:
 Charge =  0 Multiplicity = 1

                         Standard orientation:
 ---------------------------------------------------------------------
 Center     Atomic      Atomic             Coordinates (Angstroms)
 Number     Number       Type             X           Y           Z
 ---------------------------------------------------------------------
      1          8           0        0.088229   -2.838226    0.000000
      2          1           0        0.088084   -1.855625    0.000000
      3          1           0       -0.841217   -3.157030    0.000000
      4          8           0        0.088229    2.693901    0.000000
      5          1           0        0.216341    3.668116    0.000000
      6          1           0       -0.874878    2.499142    0.000000
 ---------------------------------------------------------------------

 SCF Done:  E(RHF) =  -152.107799634     A.U. after   10 cycles
 E2 =    -0.5258692454D+00 EUMP2 =    -0.15263366887928D+03
 CCSD(T)
 CCSD(T)= -0.15266087889D+03

 The electronic state is 1-A'.
 Alpha  occ. eigenvalues --  -20.56229 -20.55241  -1.33531  -1.32544  -0.70945
 Alpha  occ. eigenvalues --   -0.69940  -0.56996  -0.55999  -0.50643  -0.49658
 Alpha virt. eigenvalues --    0.12797   0.14820   0.19058   0.21577   0.53240
 Alpha virt. eigenvalues --    0.54877   0.56550   0.57739   0.66852   0.68581
 Alpha virt. eigenvalues --    0.78249   0.79212   0.79504   0.81225   0.81968

 Mulliken charges:
               1
     1  O   -0.510291
     2  H    0.258154
     3  H    0.252034
     4  O   -0.511346
     5  H    0.258507
     6  H    0.252943
 Sum of Mulliken charges =  -0.00000

 Dipole moment (field-independent basis, Debye):
    X=             -3.0245    Y=              2.5351    Z=              0.0000  Tot=              3.9465
 Quadrupole moment (field-independent basis, Debye-Ang):
   XX=            -10.5502   YY=             -8.4952   ZZ=            -14.7124
   XY=              2.6725   XZ=              0.0000   YZ=              0.0000

 Normal termination of Gaussian 16 at Sun Aug 28 02:21:54 2022.
