 Gaussian 16, Revision A.03,
 Gaussian 16:  ES64L-G16RevA.03 25-Dec-2016

 ------------------
 #p CCSD(T)/cc-pVTZ
 ------------------

 ------------
 H2O_H2O_4216
 ------------
 Symbolic Z-matrix:
 Charge =  0 Multiplicity = 1

                         Standard orientation:
 ---------------------------------------------------------------------
 Center     Atomic      Atomic             Coordinates (Angstroms)
 Number     Number       Type             X           Y           Z
 ---------------------------------------------------------------------
      1          8           0        0.041112    2.787778    0.000000
      2          1           0        0.039482    1.805178    0.000000
      3          1           0       -0.887851    3.107986   -0.000000
      4          8           0        0.041112   -2.607827    0.000000
      5          1           0        0.891254   -3.100539    0.000000
      6          1           0       -0.700678   -3.252229   -0.000000
 ---------------------------------------------------------------------

 SCF Done:  E(RHF) =  -152.108625727     A.U. after   10 cycles
 E2 =    -0.5258087668D+00 EUMP2 =    -0.15263443449382D+03
 CCSD(T)
 CCSD(T)= -0.15266162499D+03

 The electronic state is 1-A'.
 Alpha  occ. eigenvalues --  -20.56240 -20.54872  -1.33539  -1.32182  -0.70943
 Alpha  occ. eigenvalues --   -0.69583  -0.57041  -0.55657  -0.50660  -0.49307
 Alpha virt. eigenvalues --    0.13218   0.15083   0.19664   0.21194   0.53597
 Alpha virt. eigenvalues --    0.54891   0.56628   0.57816   0.66708   0.68954
 Alpha virt. eigenvalues --    0.78230   0.79544   0.79550   0.79880   0.82815

 Mulliken charges:
               1
     1  O   -0.514809
     2  H    0.261122
     3  H    0.253409
     4  O   -0.515402
     5  H    0.258548
     6  H    0.257132
 Sum of Mulliken charges =  -0.00000

 Dipole moment (field-independent basis, Debye):
    X=             -1.4090    Y=             -3.1679    Z=              0.0000  Tot=              3.4671
 Quadrupole moment (field-independent basis, Debye-Ang):
   XX=             -9.1493   YY=             -6.4242   ZZ=            -14.7156
   XY=             -5.8042   XZ=              0.0000   YZ=             -0.0000

 Normal termination of Gaussian 16 at Sun Aug 28 00:53:06 2022.
