 Gaussian 16, Revision A.03,
 Gaussian 16:  ES64L-G16RevA.03 25-Dec-2016

 ------------------
 #p CCSD(T)/cc-pVTZ
 ------------------

 ------------
 H2O_H2O_1601
 ------------
 Symbolic Z-matrix:
 Charge =  0 Multiplicity = 1

                         Standard orientation:
 ---------------------------------------------------------------------
 Center     Atomic      Atomic             Coordinates (Angstroms)
 Number     Number       Type             X           Y           Z
 ---------------------------------------------------------------------
      1          8           0        0.090687   -1.728289    0.000000
      2          1           0        0.090571   -0.745687    0.000000
      3          1           0       -0.838769   -2.047065    0.000000
      4          8           0        0.090687    1.589586    0.000000
      5          1           0        0.154836    2.570092    0.000000
      6          1           0       -0.857627    1.332281    0.000000
 ---------------------------------------------------------------------

 SCF Done:  E(RHF) =  -152.109454595     A.U. after   10 cycles
 E2 =    -0.5273663062D+00 EUMP2 =    -0.15263682090163D+03
 CCSD(T)
 CCSD(T)= -0.15266391575D+03

 The electronic state is 1-A'.
 Alpha  occ. eigenvalues --  -20.57736 -20.54399  -1.35073  -1.31745  -0.72735
 Alpha  occ. eigenvalues --   -0.69013  -0.58591  -0.55126  -0.52142  -0.48850
 Alpha virt. eigenvalues --    0.11521   0.16323   0.20305   0.27329   0.50315
 Alpha virt. eigenvalues --    0.54741   0.57576   0.57842   0.68055   0.74332
 Alpha virt. eigenvalues --    0.74480   0.77851   0.80460   0.82193   0.83408

 Mulliken charges:
               1
     1  O   -0.520725
     2  H    0.271193
     3  H    0.240818
     4  O   -0.487676
     5  H    0.252579
     6  H    0.243812
 Sum of Mulliken charges =  -0.00000

 Dipole moment (field-independent basis, Debye):
    X=             -3.0358    Y=              2.6756    Z=              0.0000  Tot=              4.0466
 Quadrupole moment (field-independent basis, Debye-Ang):
   XX=            -10.7480   YY=             -8.9848   ZZ=            -14.7138
   XY=              2.2964   XZ=              0.0000   YZ=              0.0000

 Normal termination of Gaussian 16 at Sat Aug 27 23:48:14 2022.
