 Gaussian 16, Revision A.03,
 Gaussian 16:  ES64L-G16RevA.03 25-Dec-2016

 ------------------
 #p CCSD(T)/cc-pVTZ
 ------------------

 ------------
 H2O_H2O_2627
 ------------
 Symbolic Z-matrix:
 Charge =  0 Multiplicity = 1

                         Standard orientation:
 ---------------------------------------------------------------------
 Center     Atomic      Atomic             Coordinates (Angstroms)
 Number     Number       Type             X           Y           Z
 ---------------------------------------------------------------------
      1          8           0        0.088233   -2.140187    0.000000
      2          1           0        0.088039   -1.157586    0.000000
      3          1           0       -0.841197   -2.459037    0.000000
      4          8           0        0.088233    1.995871    0.000000
      5          1           0        0.216296    2.970091    0.000000
      6          1           0       -0.874865    1.801063    0.000000
 ---------------------------------------------------------------------

 SCF Done:  E(RHF) =  -152.108794670     A.U. after   10 cycles
 E2 =    -0.5261987443D+00 EUMP2 =    -0.15263499341413D+03
 CCSD(T)
 CCSD(T)= -0.15266214916D+03

 The electronic state is 1-A'.
 Alpha  occ. eigenvalues --  -20.56848 -20.54872  -1.34136  -1.32179  -0.71578
 Alpha  occ. eigenvalues --   -0.69548  -0.57627  -0.55632  -0.51247  -0.49297
 Alpha virt. eigenvalues --    0.11642   0.15858   0.19631   0.23702   0.53937
 Alpha virt. eigenvalues --    0.55286   0.56481   0.58072   0.68563   0.70094
 Alpha virt. eigenvalues --    0.77518   0.78878   0.79605   0.80572   0.82993

 Mulliken charges:
               1
     1  O   -0.513553
     2  H    0.262706
     3  H    0.247926
     4  O   -0.506561
     5  H    0.259403
     6  H    0.250079
 Sum of Mulliken charges =  -0.00000

 Dipole moment (field-independent basis, Debye):
    X=             -2.9962    Y=              2.6210    Z=              0.0000  Tot=              3.9808
 Quadrupole moment (field-independent basis, Debye-Ang):
   XX=            -10.5688   YY=             -8.7034   ZZ=            -14.7151
   XY=              2.5495   XZ=              0.0000   YZ=              0.0000

 Normal termination of Gaussian 16 at Fri Aug 26 16:08:21 2022.
