 Gaussian 16, Revision A.03,
 Gaussian 16:  ES64L-G16RevA.03 25-Dec-2016

 ------------------
 #p CCSD(T)/cc-pVTZ
 ------------------

 ------------
 H2O_H2O_2560
 ------------
 Symbolic Z-matrix:
 Charge =  0 Multiplicity = 1

                         Standard orientation:
 ---------------------------------------------------------------------
 Center     Atomic      Atomic             Coordinates (Angstroms)
 Number     Number       Type             X           Y           Z
 ---------------------------------------------------------------------
      1          8           0        0.063247    2.127208   -0.000000
      2          1           0        0.062010    1.144607   -0.000000
      3          1           0       -0.865844    2.447044   -0.000000
      4          8           0        0.063247   -1.951716    0.000000
      5          1           0        0.660435   -2.732018    0.000000
      6          1           0       -0.868555   -2.263568    0.000000
 ---------------------------------------------------------------------

 SCF Done:  E(RHF) =  -152.110381142     A.U. after   10 cycles
 E2 =    -0.5261117842D+00 EUMP2 =    -0.15263649292588D+03
 CCSD(T)
 CCSD(T)= -0.15266361116D+03

 The electronic state is 1-A'.
 Alpha  occ. eigenvalues --  -20.56908 -20.54271  -1.34175  -1.31597  -0.71579
 Alpha  occ. eigenvalues --   -0.68984  -0.57742  -0.55075  -0.51305  -0.48734
 Alpha virt. eigenvalues --    0.12232   0.16273   0.19382   0.23839   0.52983
 Alpha virt. eigenvalues --    0.55682   0.56088   0.58883   0.68944   0.70328
 Alpha virt. eigenvalues --    0.77450   0.78881   0.80114   0.80632   0.83448

 Mulliken charges:
               1
     1  O   -0.520463
     2  H    0.265951
     3  H    0.249161
     4  O   -0.510150
     5  H    0.260160
     6  H    0.255340
 Sum of Mulliken charges =  -0.00000

 Dipole moment (field-independent basis, Debye):
    X=             -2.1493    Y=             -3.2081    Z=              0.0000  Tot=              3.8615
 Quadrupole moment (field-independent basis, Debye-Ang):
   XX=             -9.4611   YY=             -7.6194   ZZ=            -14.7212
   XY=             -3.8667   XZ=              0.0000   YZ=              0.0000

 CCSD(T)=-152.6636112\RMSD=6.777e-09\PG=CS [SG(H4O2)]\\@
 Normal termination of Gaussian 16 at Fri Aug 26 15:37:07 2022.
