 Gaussian 16, Revision A.03,
 Gaussian 16:  ES64L-G16RevA.03 25-Dec-2016

 ------------------
 #p CCSD(T)/cc-pVTZ
 ------------------

 ------------
 H2O_H2O_3260
 ------------
 Symbolic Z-matrix:
 Charge =  0 Multiplicity = 1

                         Standard orientation:
 ---------------------------------------------------------------------
 Center     Atomic      Atomic             Coordinates (Angstroms)
 Number     Number       Type             X           Y           Z
 ---------------------------------------------------------------------
      1          8           0        0.063234    2.406431   -0.000000
      2          1           0        0.062146    1.423830   -0.000000
      3          1           0       -0.865906    2.726127   -0.000000
      4          8           0        0.063234   -2.230920    0.000000
      5          1           0        0.660540   -3.011133    0.000000
      6          1           0       -0.868521   -2.542913    0.000000
 ---------------------------------------------------------------------

 SCF Done:  E(RHF) =  -152.109228500     A.U. after   10 cycles
 E2 =    -0.5259159838D+00 EUMP2 =    -0.15263514448355D+03
 CCSD(T)
 CCSD(T)= -0.15266230551D+03

 The electronic state is 1-A'.
 Alpha  occ. eigenvalues --  -20.56539 -20.54629  -1.33825  -1.31944  -0.71231
 Alpha  occ. eigenvalues --   -0.69334  -0.57343  -0.55422  -0.50949  -0.49072
 Alpha virt. eigenvalues --    0.12519   0.15667   0.19482   0.22149   0.53391
 Alpha virt. eigenvalues --    0.55191   0.56381   0.58282   0.67456   0.69339
 Alpha virt. eigenvalues --    0.77958   0.78847   0.79766   0.79784   0.83053

 Mulliken charges:
               1
     1  O   -0.516104
     2  H    0.263127
     3  H    0.251089
     4  O   -0.513923
     5  H    0.260077
     6  H    0.255735
 Sum of Mulliken charges =  -0.00000

 Dipole moment (field-independent basis, Debye):
    X=             -2.1584    Y=             -3.1394    Z=              0.0000  Tot=              3.8098
 Quadrupole moment (field-independent basis, Debye-Ang):
   XX=             -9.4569   YY=             -7.2133   ZZ=            -14.7177
   XY=             -4.1557   XZ=              0.0000   YZ=              0.0000

 Normal termination of Gaussian 16 at Fri Aug 26 20:41:37 2022.
