 Gaussian 16, Revision A.03,
 Gaussian 16:  ES64L-G16RevA.03 25-Dec-2016

 ------------------
 #p CCSD(T)/cc-pVTZ
 ------------------

 ------------
 H2O_H2O_4477
 ------------
 Symbolic Z-matrix:
 Charge =  0 Multiplicity = 1

                         Standard orientation:
 ---------------------------------------------------------------------
 Center     Atomic      Atomic             Coordinates (Angstroms)
 Number     Number       Type             X           Y           Z
 ---------------------------------------------------------------------
      1          8           0        0.088229   -2.878115    0.000000
      2          1           0        0.088086   -1.895513    0.000000
      3          1           0       -0.841218   -3.196916    0.000000
      4          8           0        0.088229    2.733789    0.000000
      5          1           0        0.216343    3.708003    0.000000
      6          1           0       -0.874878    2.539032    0.000000
 ---------------------------------------------------------------------

 SCF Done:  E(RHF) =  -152.107778891     A.U. after   10 cycles
 E2 =    -0.5258656917D+00 EUMP2 =    -0.15263364458245D+03
 CCSD(T)
 CCSD(T)= -0.15266085558D+03

 The electronic state is 1-A'.
 Alpha  occ. eigenvalues --  -20.56211 -20.55254  -1.33512  -1.32556  -0.70926
 Alpha  occ. eigenvalues --   -0.69953  -0.56977  -0.56011  -0.50624  -0.49671
 Alpha virt. eigenvalues --    0.12886   0.14771   0.19081   0.21489   0.53284
 Alpha virt. eigenvalues --    0.54845   0.56563   0.57709   0.66896   0.68525
 Alpha virt. eigenvalues --    0.78267   0.79200   0.79575   0.81171   0.81854

 Mulliken charges:
               1
     1  O   -0.510249
     2  H    0.258024
     3  H    0.252146
     4  O   -0.511274
     5  H    0.258350
     6  H    0.253003
 Sum of Mulliken charges =  -0.00000

 Dipole moment (field-independent basis, Debye):
    X=             -3.0254    Y=              2.5330    Z=              0.0000  Tot=              3.9457
 Quadrupole moment (field-independent basis, Debye-Ang):
   XX=            -10.5498   YY=             -8.4816   ZZ=            -14.7124
   XY=              2.6795   XZ=              0.0000   YZ=              0.0000

 03157\MP4DQ=-152.642765\MP4SDQ=-152.6458177\CCSD=-152.6452315\CCSD(T)=
 Normal termination of Gaussian 16 at Sun Aug 28 03:14:24 2022.
