 Gaussian 16, Revision A.03,
 Gaussian 16:  ES64L-G16RevA.03 25-Dec-2016

 ------------------
 #p CCSD(T)/cc-pVTZ
 ------------------

 -----------
 H2O_H2O_286
 -----------
 Symbolic Z-matrix:
 Charge =  0 Multiplicity = 1

                         Standard orientation:
 ---------------------------------------------------------------------
 Center     Atomic      Atomic             Coordinates (Angstroms)
 Number     Number       Type             X           Y           Z
 ---------------------------------------------------------------------
      1          8           0        0.059753    1.220748   -0.000000
      2          1           0        0.057256    0.238150   -0.000000
      3          1           0       -0.868927    1.541776   -0.000000
      4          8           0        0.059753   -1.043455    0.000000
      5          1           0        0.705749   -1.783858    0.000000
      6          1           0       -0.850134   -1.414415    0.000000
 ---------------------------------------------------------------------

 SCF Done:  E(RHF) =  -152.080693855     A.U. after   11 cycles
 E2 =    -0.5339308726D+00 EUMP2 =    -0.15261462472787D+03
 CCSD(T)
 CCSD(T)= -0.15264062489D+03

 The electronic state is 1-A'.
 Alpha  occ. eigenvalues --  -20.61076 -20.46994  -1.40682  -1.26146  -0.77189
 Alpha  occ. eigenvalues --   -0.73765  -0.56831  -0.56714  -0.47490  -0.42918
 Alpha virt. eigenvalues --    0.10816   0.16797   0.20617   0.33171   0.47838
 Alpha virt. eigenvalues --    0.52754   0.61864   0.63746   0.71588   0.71847
 Alpha virt. eigenvalues --    0.77456   0.79660   0.80185   0.82904   0.84234

 Mulliken charges:
               1
     1  O   -0.631710
     2  H    0.304102
     3  H    0.211716
     4  O   -0.376776
     5  H    0.247678
     6  H    0.244988
 Sum of Mulliken charges =  -0.00000

 Dipole moment (field-independent basis, Debye):
    X=             -1.8606    Y=             -4.5742    Z=              0.0000  Tot=              4.9381
 Quadrupole moment (field-independent basis, Debye-Ang):
   XX=             -9.3424   YY=             -9.7691   ZZ=            -14.6220
   XY=             -2.8185   XZ=              0.0000   YZ=              0.0000

 Normal termination of Gaussian 16 at Fri Aug 26 17:10:37 2022.
