 Gaussian 16, Revision A.03,
 Gaussian 16:  ES64L-G16RevA.03 25-Dec-2016

 ------------------
 #p CCSD(T)/cc-pVTZ
 ------------------

 ------------
 H2O_H2O_4336
 ------------
 Symbolic Z-matrix:
 Charge =  0 Multiplicity = 1

                         Standard orientation:
 ---------------------------------------------------------------------
 Center     Atomic      Atomic             Coordinates (Angstroms)
 Number     Number       Type             X           Y           Z
 ---------------------------------------------------------------------
      1          8           0        0.059621    2.836288    0.000000
      2          1           0        0.058592    1.853688    0.000000
      3          1           0       -0.869538    3.155928    0.000000
      4          8           0        0.059621   -2.658817   -0.000000
      5          1           0        0.706721   -3.398254   -0.000000
      6          1           0       -0.849711   -3.031136   -0.000000
 ---------------------------------------------------------------------

 SCF Done:  E(RHF) =  -152.108398304     A.U. after   10 cycles
 E2 =    -0.5258216111D+00 EUMP2 =    -0.15263421991535D+03
 CCSD(T)
 CCSD(T)= -0.15266141606D+03

 The electronic state is 1-A'.
 Alpha  occ. eigenvalues --  -20.56221 -20.54935  -1.33521  -1.32243  -0.70927
 Alpha  occ. eigenvalues --   -0.69641  -0.57013  -0.55712  -0.50639  -0.49365
 Alpha virt. eigenvalues --    0.13242   0.14985   0.19640   0.21119   0.53576
 Alpha virt. eigenvalues --    0.54877   0.56624   0.57800   0.66764   0.68851
 Alpha virt. eigenvalues --    0.78250   0.79487   0.79491   0.80153   0.82729

 Mulliken charges:
               1
     1  O   -0.513538
     2  H    0.260635
     3  H    0.252707
     4  O   -0.514376
     5  H    0.258732
     6  H    0.255839
 Sum of Mulliken charges =  -0.00000

 Dipole moment (field-independent basis, Debye):
    X=             -2.0436    Y=             -3.1204    Z=             -0.0000  Tot=              3.7300
 Quadrupole moment (field-independent basis, Debye-Ang):
   XX=             -9.3618   YY=             -6.4878   ZZ=            -14.7147
   XY=             -4.8210   XZ=             -0.0000   YZ=             -0.0000

 Normal termination of Gaussian 16 at Sun Aug 28 01:56:48 2022.
