 Gaussian 16, Revision A.03,
 Gaussian 16:  ES64L-G16RevA.03 25-Dec-2016

 ------------------
 #p CCSD(T)/cc-pVTZ
 ------------------

 ------------
 H2O_H2O_1197
 ------------
 Symbolic Z-matrix:
 Charge =  0 Multiplicity = 1

                         Standard orientation:
 ---------------------------------------------------------------------
 Center     Atomic      Atomic             Coordinates (Angstroms)
 Number     Number       Type             X           Y           Z
 ---------------------------------------------------------------------
      1          8           0       -0.019982    1.574177    0.000000
      2          1           0       -0.015821    0.591584    0.000000
      3          1           0        0.908153    1.896776    0.000000
      4          8           0       -0.019982   -1.407131    0.000000
      5          1           0       -0.993625   -1.539510    0.000000
      6          1           0        0.421003   -2.285218    0.000000
 ---------------------------------------------------------------------

 SCF Done:  E(RHF) =  -152.113433624     A.U. after   10 cycles
 E2 =    -0.5278877589D+00 EUMP2 =    -0.15264132138248D+03
 CCSD(T)
 CCSD(T)= -0.15266825477D+03

 The electronic state is 1-A'.
 Alpha  occ. eigenvalues --  -20.58368 -20.52504  -1.35793  -1.30057  -0.73275
 Alpha  occ. eigenvalues --   -0.67947  -0.59580  -0.53227  -0.52869  -0.47197
 Alpha virt. eigenvalues --    0.12062   0.18019   0.18922   0.30840   0.49580
 Alpha virt. eigenvalues --    0.54610   0.55755   0.62087   0.68595   0.73102
 Alpha virt. eigenvalues --    0.73720   0.76842   0.81932   0.82347   0.84370

 Mulliken charges:
               1
     1  O   -0.558624
     2  H    0.284264
     3  H    0.250447
     4  O   -0.487038
     5  H    0.263549
     6  H    0.247404
 Sum of Mulliken charges =  -0.00000

 Dipole moment (field-independent basis, Debye):
    X=              0.6745    Y=             -3.4109    Z=              0.0000  Tot=              3.4769
 Quadrupole moment (field-independent basis, Debye-Ang):
   XX=             -9.4417   YY=             -8.6605   ZZ=            -14.7269
   XY=              4.0169   XZ=              0.0000   YZ=              0.0000

 CCSD(T)=-152.6682548\RMSD=6.455e-09\PG=CS [SG(H4O2)]\\@
 Normal termination of Gaussian 16 at Fri Aug 26 23:04:04 2022.
