 Gaussian 16, Revision A.03,
 Gaussian 16:  ES64L-G16RevA.03 25-Dec-2016

 ------------------
 #p CCSD(T)/cc-pVTZ
 ------------------

 ------------
 H2O_H2O_4469
 ------------
 Symbolic Z-matrix:
 Charge =  0 Multiplicity = 1

                         Standard orientation:
 ---------------------------------------------------------------------
 Center     Atomic      Atomic             Coordinates (Angstroms)
 Number     Number       Type             X           Y           Z
 ---------------------------------------------------------------------
      1          8           0        0.030149    2.885154    0.000000
      2          1           0        0.028244    1.902555    0.000000
      3          1           0       -0.898725    3.205621   -0.000000
      4          8           0        0.030149   -2.709519    0.000000
      5          1           0        0.959990   -3.027169    0.000000
      6          1           0       -0.571888   -3.486086   -0.000000
 ---------------------------------------------------------------------

 SCF Done:  E(RHF) =  -152.108498739     A.U. after   10 cycles
 E2 =    -0.5258001002D+00 EUMP2 =    -0.15263429883944D+03
 CCSD(T)
 CCSD(T)= -0.15266149445D+03

 The electronic state is 1-A'.
 Alpha  occ. eigenvalues --  -20.56187 -20.54962  -1.33488  -1.32270  -0.70892
 Alpha  occ. eigenvalues --   -0.69674  -0.56985  -0.55744  -0.50608  -0.49395
 Alpha virt. eigenvalues --    0.13325   0.14950   0.19641   0.21110   0.53587
 Alpha virt. eigenvalues --    0.54884   0.56669   0.57800   0.66818   0.68753
 Alpha virt. eigenvalues --    0.78278   0.79460   0.79536   0.80329   0.82654

 Mulliken charges:
               1
     1  O   -0.514471
     2  H    0.260266
     3  H    0.254067
     4  O   -0.515072
     5  H    0.257796
     6  H    0.257413
 Sum of Mulliken charges =  -0.00000

 Dipole moment (field-independent basis, Debye):
    X=             -1.0345    Y=             -3.0834    Z=             -0.0000  Tot=              3.2523
 Quadrupole moment (field-independent basis, Debye-Ang):
   XX=             -9.2304   YY=             -6.5039   ZZ=            -14.7151
   XY=             -6.6435   XZ=              0.0000   YZ=             -0.0000

 Normal termination of Gaussian 16 at Sun Aug 28 03:11:34 2022.
