 Gaussian 16, Revision A.03,
 Gaussian 16:  ES64L-G16RevA.03 25-Dec-2016

 ------------------
 #p CCSD(T)/cc-pVTZ
 ------------------

 ------------
 H2O_H2O_4062
 ------------
 Symbolic Z-matrix:
 Charge =  0 Multiplicity = 1

                         Standard orientation:
 ---------------------------------------------------------------------
 Center     Atomic      Atomic             Coordinates (Angstroms)
 Number     Number       Type             X           Y           Z
 ---------------------------------------------------------------------
      1          8           0        0.055972    2.727391   -0.000000
      2          1           0        0.054782    1.744790   -0.000000
      3          1           0       -0.873135    3.047182   -0.000000
      4          8           0        0.055972   -2.548460    0.000000
      5          1           0        0.749934   -3.244104    0.000000
      6          1           0       -0.827132   -2.979311    0.000000
 ---------------------------------------------------------------------

 SCF Done:  E(RHF) =  -152.108608014     A.U. after   10 cycles
 E2 =    -0.5258265777D+00 EUMP2 =    -0.15263443459124D+03
 CCSD(T)
 CCSD(T)= -0.15266162346D+03

 The electronic state is 1-A'.
 Alpha  occ. eigenvalues --  -20.56280 -20.54851  -1.33578  -1.32161  -0.70983
 Alpha  occ. eigenvalues --   -0.69558  -0.57078  -0.55633  -0.50698  -0.49285
 Alpha virt. eigenvalues --    0.13096   0.15143   0.19627   0.21270   0.53540
 Alpha virt. eigenvalues --    0.54908   0.56584   0.57830   0.66683   0.69047
 Alpha virt. eigenvalues --    0.78195   0.79366   0.79566   0.79875   0.82843

 Mulliken charges:
               1
     1  O   -0.514378
     2  H    0.261381
     3  H    0.252602
     4  O   -0.514996
     5  H    0.259114
     6  H    0.256277
 Sum of Mulliken charges =  -0.00000

 Dipole moment (field-independent basis, Debye):
    X=             -1.9169    Y=             -3.1559    Z=              0.0000  Tot=              3.6925
 Quadrupole moment (field-independent basis, Debye-Ang):
   XX=             -9.2854   YY=             -6.5782   ZZ=            -14.7155
   XY=             -4.8989   XZ=              0.0000   YZ=             -0.0000

 Normal termination of Gaussian 16 at Sat Aug 27 23:04:53 2022.
