 Gaussian 16, Revision A.03,
 Gaussian 16:  ES64L-G16RevA.03 25-Dec-2016

 ------------------
 #p CCSD(T)/cc-pVTZ
 ------------------

 ------------
 H2O_H2O_2998
 ------------
 Symbolic Z-matrix:
 Charge =  0 Multiplicity = 1

                         Standard orientation:
 ---------------------------------------------------------------------
 Center     Atomic      Atomic             Coordinates (Angstroms)
 Number     Number       Type             X           Y           Z
 ---------------------------------------------------------------------
      1          8           0       -0.016632    2.290163    0.000000
      2          1           0       -0.013700    1.307566    0.000000
      3          1           0        0.911905    2.611602    0.000000
      4          8           0       -0.016632   -2.126776    0.000000
      5          1           0       -0.996935   -2.193967    0.000000
      6          1           0        0.364848   -3.032303    0.000000
 ---------------------------------------------------------------------

 SCF Done:  E(RHF) =  -152.109796885     A.U. after   10 cycles
 E2 =    -0.5259223118D+00 EUMP2 =    -0.15263571919637D+03
 CCSD(T)
 CCSD(T)= -0.15266286557D+03

 The electronic state is 1-A'.
 Alpha  occ. eigenvalues --  -20.56626 -20.54626  -1.33913  -1.31945  -0.71321
 Alpha  occ. eigenvalues --   -0.69352  -0.57453  -0.55436  -0.51040  -0.49083
 Alpha virt. eigenvalues --    0.12295   0.15910   0.19261   0.23085   0.53711
 Alpha virt. eigenvalues --    0.55561   0.56412   0.58268   0.68104   0.69363
 Alpha virt. eigenvalues --    0.77843   0.78790   0.79755   0.80557   0.83148

 Mulliken charges:
               1
     1  O   -0.520075
     2  H    0.262916
     3  H    0.254603
     4  O   -0.514954
     5  H    0.258652
     6  H    0.258859
 Sum of Mulliken charges =  -0.00000

 Dipole moment (field-independent basis, Debye):
    X=              0.5712    Y=             -2.9384    Z=              0.0000  Tot=              2.9934
 Quadrupole moment (field-independent basis, Debye-Ang):
   XX=             -9.5430   YY=             -7.8189   ZZ=            -14.7194
   XY=              6.0098   XZ=              0.0000   YZ=              0.0000

 Normal termination of Gaussian 16 at Fri Aug 26 19:09:22 2022.
