 Gaussian 16, Revision A.03,
 Gaussian 16:  ES64L-G16RevA.03 25-Dec-2016

 ------------------
 #p CCSD(T)/cc-pVTZ
 ------------------

 ------------
 H2O_H2O_1039
 ------------
 Symbolic Z-matrix:
 Charge =  0 Multiplicity = 1

                         Standard orientation:
 ---------------------------------------------------------------------
 Center     Atomic      Atomic             Coordinates (Angstroms)
 Number     Number       Type             X           Y           Z
 ---------------------------------------------------------------------
      1          8           0        0.048671    1.521535   -0.000000
      2          1           0        0.046040    0.538937   -0.000000
      3          1           0       -0.879965    1.842689   -0.000000
      4          8           0        0.048671   -1.341242    0.000000
      5          1           0        0.826618   -1.941497    0.000000
      6          1           0       -0.771435   -1.882472    0.000000
 ---------------------------------------------------------------------

 SCF Done:  E(RHF) =  -152.113552913     A.U. after   10 cycles
 E2 =    -0.5285033122D+00 EUMP2 =    -0.15264205622505D+03
 CCSD(T)
 CCSD(T)= -0.15266891249D+03

 The electronic state is 1-A'.
 Alpha  occ. eigenvalues --  -20.58768 -20.51673  -1.36242  -1.29346  -0.73445
 Alpha  occ. eigenvalues --   -0.68071  -0.59700  -0.53306  -0.52385  -0.46460
 Alpha virt. eigenvalues --    0.11826   0.17969   0.18997   0.31776   0.48485
 Alpha virt. eigenvalues --    0.54695   0.56883   0.60746   0.69378   0.71507
 Alpha virt. eigenvalues --    0.72821   0.77375   0.82454   0.82549   0.84868

 Mulliken charges:
               1
     1  O   -0.565547
     2  H    0.296774
     3  H    0.240035
     4  O   -0.494477
     5  H    0.265550
     6  H    0.257665
 Sum of Mulliken charges =  -0.00000

 Dipole moment (field-independent basis, Debye):
    X=             -1.6076    Y=             -3.7739    Z=              0.0000  Tot=              4.1021
 Quadrupole moment (field-independent basis, Debye-Ang):
   XX=             -9.1832   YY=             -8.7231   ZZ=            -14.7275
   XY=             -3.4168   XZ=              0.0000   YZ=             -0.0000

 Normal termination of Gaussian 16 at Fri Aug 26 22:05:08 2022.
