 Gaussian 16, Revision A.03,
 Gaussian 16:  ES64L-G16RevA.03 25-Dec-2016

 ------------------
 #p CCSD(T)/cc-pVTZ
 ------------------

 ------------
 H2O_H2O_3691
 ------------
 Symbolic Z-matrix:
 Charge =  0 Multiplicity = 1

                         Standard orientation:
 ---------------------------------------------------------------------
 Center     Atomic      Atomic             Coordinates (Angstroms)
 Number     Number       Type             X           Y           Z
 ---------------------------------------------------------------------
      1          8           0        0.041125    2.578362   -0.000000
      2          1           0        0.039357    1.595762   -0.000000
      3          1           0       -0.887794    2.898699   -0.000000
      4          8           0        0.041125   -2.398423    0.000000
      5          1           0        0.891197   -2.891253    0.000000
      6          1           0       -0.700755   -3.042720    0.000000
 ---------------------------------------------------------------------

 SCF Done:  E(RHF) =  -152.109050081     A.U. after   10 cycles
 E2 =    -0.5258353300D+00 EUMP2 =    -0.15263488541069D+03
 CCSD(T)
 CCSD(T)= -0.15266205958D+03

 The electronic state is 1-A'.
 Alpha  occ. eigenvalues --  -20.56377 -20.54717  -1.33670  -1.32030  -0.71072
 Alpha  occ. eigenvalues --   -0.69429  -0.57186  -0.55511  -0.50794  -0.49159
 Alpha virt. eigenvalues --    0.12890   0.15406   0.19585   0.21604   0.53462
 Alpha virt. eigenvalues --    0.55025   0.56537   0.57916   0.66810   0.69265
 Alpha virt. eigenvalues --    0.78106   0.79156   0.79613   0.79682   0.82986

 Mulliken charges:
               1
     1  O   -0.516332
     2  H    0.262398
     3  H    0.253026
     4  O   -0.515910
     5  H    0.259289
     6  H    0.257529
 Sum of Mulliken charges =  -0.00000

 Dipole moment (field-independent basis, Debye):
    X=             -1.4069    Y=             -3.1912    Z=              0.0000  Tot=              3.4876
 Quadrupole moment (field-independent basis, Debye-Ang):
   XX=             -9.1491   YY=             -6.7593   ZZ=            -14.7171
   XY=             -5.4289   XZ=              0.0000   YZ=             -0.0000

 Normal termination of Gaussian 16 at Fri Aug 26 23:08:15 2022.
