 Gaussian 16, Revision A.03,
 Gaussian 16:  ES64L-G16RevA.03 25-Dec-2016

 ------------------
 #p CCSD(T)/cc-pVTZ
 ------------------

 ------------
 H2O_H2O_3647
 ------------
 Symbolic Z-matrix:
 Charge =  0 Multiplicity = 1

                         Standard orientation:
 ---------------------------------------------------------------------
 Center     Atomic      Atomic             Coordinates (Angstroms)
 Number     Number       Type             X           Y           Z
 ---------------------------------------------------------------------
      1          8           0       -0.019842    2.551455    0.000000
      2          1           0       -0.017329    1.568856    0.000000
      3          1           0        0.908833    2.872497    0.000000
      4          8           0       -0.019842   -2.384342    0.000000
      5          1           0       -0.993707   -2.515088    0.000000
      6          1           0        0.419671   -3.263167    0.000000
 ---------------------------------------------------------------------

 SCF Done:  E(RHF) =  -152.109052497     A.U. after   10 cycles
 E2 =    -0.5258308963D+00 EUMP2 =    -0.15263488339296D+03
 CCSD(T)
 CCSD(T)= -0.15266205833D+03

 The electronic state is 1-A'.
 Alpha  occ. eigenvalues --  -20.56380 -20.54822  -1.33677  -1.32134  -0.71082
 Alpha  occ. eigenvalues --   -0.69540  -0.57191  -0.55618  -0.50800  -0.49264
 Alpha virt. eigenvalues --    0.12684   0.15416   0.19345   0.21939   0.53288
 Alpha virt. eigenvalues --    0.55246   0.56566   0.57919   0.66830   0.69210
 Alpha virt. eigenvalues --    0.78099   0.78797   0.79580   0.80478   0.82900

 Mulliken charges:
               1
     1  O   -0.516763
     2  H    0.261379
     3  H    0.254518
     4  O   -0.516112
     5  H    0.258213
     6  H    0.258764
 Sum of Mulliken charges =  -0.00000

 Dipole moment (field-independent basis, Debye):
    X=              0.6807    Y=             -2.9635    Z=              0.0000  Tot=              3.0407
 Quadrupole moment (field-independent basis, Debye-Ang):
   XX=             -9.4467   YY=             -7.3783   ZZ=            -14.7170
   XY=              6.4953   XZ=              0.0000   YZ=              0.0000

 Normal termination of Gaussian 16 at Fri Aug 26 22:52:23 2022.
