 Gaussian 16, Revision A.03,
 Gaussian 16:  ES64L-G16RevA.03 25-Dec-2016

 ------------------
 #p CCSD(T)/cc-pVTZ
 ------------------

 -----------
 H2O_H2O_431
 -----------
 Symbolic Z-matrix:
 Charge =  0 Multiplicity = 1

                         Standard orientation:
 ---------------------------------------------------------------------
 Center     Atomic      Atomic             Coordinates (Angstroms)
 Number     Number       Type             X           Y           Z
 ---------------------------------------------------------------------
      1          8           0        0.076804   -1.272877    0.000000
      2          1           0        0.075650   -0.290276    0.000000
      3          1           0       -0.852315   -1.592634    0.000000
      4          8           0        0.076804    1.109754    0.000000
      5          1           0        0.451764    2.018000    0.000000
      6          1           0       -0.903956    1.169895    0.000000
 ---------------------------------------------------------------------

 SCF Done:  E(RHF) =  -152.091397379     A.U. after   11 cycles
 E2 =    -0.5332332897D+00 EUMP2 =    -0.15262463066825D+03
 CCSD(T)
 CCSD(T)= -0.15265093637D+03

 The electronic state is 1-A'.
 Alpha  occ. eigenvalues --  -20.60399 -20.49306  -1.39333  -1.27772  -0.77298
 Alpha  occ. eigenvalues --   -0.70263  -0.58419  -0.55642  -0.49941  -0.44685
 Alpha virt. eigenvalues --    0.11060   0.16625   0.20578   0.32901   0.48622
 Alpha virt. eigenvalues --    0.52808   0.59565   0.64123   0.71983   0.72422
 Alpha virt. eigenvalues --    0.74460   0.78505   0.79025   0.83887   0.84474

 Mulliken charges:
               1
     1  O   -0.595816
     2  H    0.296262
     3  H    0.214526
     4  O   -0.387703
     5  H    0.234774
     6  H    0.237957
 Sum of Mulliken charges =  -0.00000

 Dipole moment (field-independent basis, Debye):
    X=             -2.4369    Y=              4.0038    Z=              0.0000  Tot=              4.6871
 Quadrupole moment (field-independent basis, Debye-Ang):
   XX=             -9.9639   YY=             -9.4414   ZZ=            -14.6391
   XY=              2.6723   XZ=              0.0000   YZ=              0.0000

 Normal termination of Gaussian 16 at Fri Aug 26 18:13:09 2022.
