 Gaussian 16, Revision A.03,
 Gaussian 16:  ES64L-G16RevA.03 25-Dec-2016

 ------------------
 #p CCSD(T)/cc-pVTZ
 ------------------

 -----------
 H2O_H2O_746
 -----------
 Symbolic Z-matrix:
 Charge =  0 Multiplicity = 1

                         Standard orientation:
 ---------------------------------------------------------------------
 Center     Atomic      Atomic             Coordinates (Angstroms)
 Number     Number       Type             X           Y           Z
 ---------------------------------------------------------------------
      1          8           0       -0.023374    1.396450    0.000000
      2          1           0       -0.018860    0.413859    0.000000
      3          1           0        0.904646    1.719382    0.000000
      4          8           0       -0.023374   -1.226153    0.000000
      5          1           0       -0.986205   -1.422274    0.000000
      6          1           0        0.474402   -2.073340    0.000000
 ---------------------------------------------------------------------

 SCF Done:  E(RHF) =  -152.108717843     A.U. after   10 cycles
 E2 =    -0.5299958126D+00 EUMP2 =    -0.15263871365575D+03
 CCSD(T)
 CCSD(T)= -0.15266537441D+03

 The electronic state is 1-A'.
 Alpha  occ. eigenvalues --  -20.59391 -20.50592  -1.37305  -1.28577  -0.74762
 Alpha  occ. eigenvalues --   -0.68567  -0.59801  -0.54180  -0.51184  -0.45641
 Alpha virt. eigenvalues --    0.11732   0.18289   0.19063   0.33291   0.48043
 Alpha virt. eigenvalues --    0.54186   0.57460   0.65842   0.68198   0.72325
 Alpha virt. eigenvalues --    0.73450   0.77129   0.80763   0.83482   0.84113

 Mulliken charges:
               1
     1  O   -0.593680
     2  H    0.300475
     3  H    0.243134
     4  O   -0.454189
     5  H    0.261657
     6  H    0.242603
 Sum of Mulliken charges =  -0.00000

 Dipole moment (field-independent basis, Debye):
    X=              0.7705    Y=             -3.8167    Z=              0.0000  Tot=              3.8937
 Quadrupole moment (field-independent basis, Debye-Ang):
   XX=             -9.3365   YY=             -9.0836   ZZ=            -14.6999
   XY=              3.4798   XZ=              0.0000   YZ=              0.0000

 Normal termination of Gaussian 16 at Fri Aug 26 20:15:12 2022.
