 Gaussian 16, Revision A.03,
 Gaussian 16:  ES64L-G16RevA.03 25-Dec-2016

 ------------------
 #p CCSD(T)/cc-pVTZ
 ------------------

 ------------
 H2O_H2O_4383
 ------------
 Symbolic Z-matrix:
 Charge =  0 Multiplicity = 1

                         Standard orientation:
 ---------------------------------------------------------------------
 Center     Atomic      Atomic             Coordinates (Angstroms)
 Number     Number       Type             X           Y           Z
 ---------------------------------------------------------------------
      1          8           0        0.070185    2.852318    0.000000
      2          1           0        0.069487    1.869717    0.000000
      3          1           0       -0.859081    3.171645   -0.000000
      4          8           0        0.070185   -2.682051    0.000000
      5          1           0        0.560882   -3.533358    0.000000
      6          1           0       -0.894247   -2.870138   -0.000000
 ---------------------------------------------------------------------

 SCF Done:  E(RHF) =  -152.108221518     A.U. after   10 cycles
 E2 =    -0.5258337833D+00 EUMP2 =    -0.15263405530130D+03
 CCSD(T)
 CCSD(T)= -0.15266125561D+03

 The electronic state is 1-A'.
 Alpha  occ. eigenvalues --  -20.56216 -20.55013  -1.33517  -1.32319  -0.70925
 Alpha  occ. eigenvalues --   -0.69716  -0.57001  -0.55784  -0.50633  -0.49439
 Alpha virt. eigenvalues --    0.13182   0.14918   0.19536   0.21144   0.53481
 Alpha virt. eigenvalues --    0.54891   0.56610   0.57785   0.66802   0.68766
 Alpha virt. eigenvalues --    0.78256   0.79403   0.79421   0.80476   0.82612

 Mulliken charges:
               1
     1  O   -0.512573
     2  H    0.260011
     3  H    0.252405
     4  O   -0.513526
     5  H    0.258715
     6  H    0.254968
 Sum of Mulliken charges =  -0.00000

 Dipole moment (field-independent basis, Debye):
    X=             -2.4060    Y=             -2.9920    Z=             -0.0000  Tot=              3.8394
 Quadrupole moment (field-independent basis, Debye-Ang):
   XX=             -9.6793   YY=             -6.8730   ZZ=            -14.7141
   XY=             -4.1586   XZ=              0.0000   YZ=             -0.0000

 Normal termination of Gaussian 16 at Sun Aug 28 02:24:07 2022.
