 Gaussian 16, Revision A.03,
 Gaussian 16:  ES64L-G16RevA.03 25-Dec-2016

 ------------------
 #p CCSD(T)/cc-pVTZ
 ------------------

 ------------
 H2O_H2O_2213
 ------------
 Symbolic Z-matrix:
 Charge =  0 Multiplicity = 1

                         Standard orientation:
 ---------------------------------------------------------------------
 Center     Atomic      Atomic             Coordinates (Angstroms)
 Number     Number       Type             X           Y           Z
 ---------------------------------------------------------------------
      1          8           0        0.052325    1.989976   -0.000000
      2          1           0        0.050509    1.007376   -0.000000
      3          1           0       -0.876577    2.310360   -0.000000
      4          8           0        0.052325   -1.810116    0.000000
      5          1           0        0.789887   -2.459354    0.000000
      6          1           0       -0.801020   -2.297259    0.000000
 ---------------------------------------------------------------------

 SCF Done:  E(RHF) =  -152.111588476     A.U. after   10 cycles
 E2 =    -0.5262658898D+00 EUMP2 =    -0.15263785436562D+03
 CCSD(T)
 CCSD(T)= -0.15266493899D+03

 The electronic state is 1-A'.
 Alpha  occ. eigenvalues --  -20.57170 -20.53902  -1.34423  -1.31246  -0.71814
 Alpha  occ. eigenvalues --   -0.68650  -0.58063  -0.54719  -0.51561  -0.48393
 Alpha virt. eigenvalues --    0.12242   0.16722   0.19253   0.25241   0.52080
 Alpha virt. eigenvalues --    0.55397   0.56312   0.58984   0.69004   0.71862
 Alpha virt. eigenvalues --    0.76833   0.78090   0.80487   0.83183   0.83547

 Mulliken charges:
               1
     1  O   -0.525812
     2  H    0.268060
     3  H    0.248949
     4  O   -0.508726
     5  H    0.261127
     6  H    0.256401
 Sum of Mulliken charges =  -0.00000

 Dipole moment (field-independent basis, Debye):
    X=             -1.7729    Y=             -3.3435    Z=              0.0000  Tot=              3.7845
 Quadrupole moment (field-independent basis, Debye-Ang):
   XX=             -9.2299   YY=             -7.7250   ZZ=            -14.7257
   XY=             -4.0588   XZ=              0.0000   YZ=             -0.0000

 Normal termination of Gaussian 16 at Sun Aug 28 05:28:17 2022.
