 Gaussian 16, Revision A.03,
 Gaussian 16:  ES64L-G16RevA.03 25-Dec-2016

 ------------------
 #p CCSD(T)/cc-pVTZ
 ------------------

 -----------
 H2O_H2O_915
 -----------
 Symbolic Z-matrix:
 Charge =  0 Multiplicity = 1

                         Standard orientation:
 ---------------------------------------------------------------------
 Center     Atomic      Atomic             Coordinates (Angstroms)
 Number     Number       Type             X           Y           Z
 ---------------------------------------------------------------------
      1          8           0        0.044964    1.471678    0.000000
      2          1           0        0.042009    0.489081    0.000000
      3          1           0       -0.883567    1.793138   -0.000000
      4          8           0        0.044964   -1.291383    0.000000
      5          1           0        0.860322   -1.839742    0.000000
      6          1           0       -0.738185   -1.884835   -0.000000
 ---------------------------------------------------------------------

 SCF Done:  E(RHF) =  -152.112596775     A.U. after   10 cycles
 E2 =    -0.5290288290D+00 EUMP2 =    -0.15264162560406D+03
 CCSD(T)
 CCSD(T)= -0.15266840991D+03

 The electronic state is 1-A'.
 Alpha  occ. eigenvalues --  -20.59044 -20.51152  -1.36636  -1.28944  -0.73764
 Alpha  occ. eigenvalues --   -0.68363  -0.59722  -0.53657  -0.51834  -0.46037
 Alpha virt. eigenvalues --    0.11754   0.18088   0.19018   0.32430   0.48210
 Alpha virt. eigenvalues --    0.54541   0.57424   0.61598   0.69247   0.71685
 Alpha virt. eigenvalues --    0.72602   0.77670   0.82234   0.82807   0.84730

 Mulliken charges:
               1
     1  O   -0.576136
     2  H    0.302587
     3  H    0.238760
     4  O   -0.487403
     5  H    0.265549
     6  H    0.256642
 Sum of Mulliken charges =  -0.00000

 Dipole moment (field-independent basis, Debye):
    X=             -1.4776    Y=             -3.8688    Z=              0.0000  Tot=              4.1413
 Quadrupole moment (field-independent basis, Debye-Ang):
   XX=             -9.1513   YY=             -8.8694   ZZ=            -14.7211
   XY=             -3.3694   XZ=              0.0000   YZ=              0.0000

 Normal termination of Gaussian 16 at Fri Aug 26 21:19:03 2022.
