 Gaussian 16, Revision A.03,
 Gaussian 16:  ES64L-G16RevA.03 25-Dec-2016

 ------------------
 #p CCSD(T)/cc-pVTZ
 ------------------

 ------------
 H2O_H2O_2673
 ------------
 Symbolic Z-matrix:
 Charge =  0 Multiplicity = 1

                         Standard orientation:
 ---------------------------------------------------------------------
 Center     Atomic      Atomic             Coordinates (Angstroms)
 Number     Number       Type             X           Y           Z
 ---------------------------------------------------------------------
      1          8           0       -0.016648    2.160525    0.000000
      2          1           0       -0.013532    1.177929    0.000000
      3          1           0        0.911830    2.482137    0.000000
      4          8           0       -0.016648   -1.997144    0.000000
      5          1           0       -0.996937   -2.064517    0.000000
      6          1           0        0.365001   -2.902600    0.000000
 ---------------------------------------------------------------------

 SCF Done:  E(RHF) =  -152.110362545     A.U. after   10 cycles
 E2 =    -0.5260114299D+00 EUMP2 =    -0.15263637397468D+03
 CCSD(T)
 CCSD(T)= -0.15266350028D+03

 The electronic state is 1-A'.
 Alpha  occ. eigenvalues --  -20.56797 -20.54466  -1.34077  -1.31791  -0.71487
 Alpha  occ. eigenvalues --   -0.69199  -0.57642  -0.55282  -0.51207  -0.48934
 Alpha virt. eigenvalues --    0.12226   0.16205   0.19262   0.23882   0.53871
 Alpha virt. eigenvalues --    0.55549   0.56282   0.58468   0.68746   0.69977
 Alpha virt. eigenvalues --    0.77584   0.79120   0.79917   0.80647   0.83413

 Mulliken charges:
               1
     1  O   -0.522768
     2  H    0.264227
     3  H    0.254429
     4  O   -0.513422
     5  H    0.259097
     6  H    0.258438
 Sum of Mulliken charges =  -0.00000

 Dipole moment (field-independent basis, Debye):
    X=              0.5716    Y=             -2.9690    Z=              0.0000  Tot=              3.0235
 Quadrupole moment (field-independent basis, Debye-Ang):
   XX=             -9.5434   YY=             -7.9512   ZZ=            -14.7211
   XY=              5.6687   XZ=              0.0000   YZ=              0.0000

 Normal termination of Gaussian 16 at Fri Aug 26 16:28:06 2022.
