 Gaussian 16, Revision A.03,
 Gaussian 16:  ES64L-G16RevA.03 25-Dec-2016

 ------------------
 #p CCSD(T)/cc-pVTZ
 ------------------

 ------------
 H2O_H2O_4163
 ------------
 Symbolic Z-matrix:
 Charge =  0 Multiplicity = 1

                         Standard orientation:
 ---------------------------------------------------------------------
 Center     Atomic      Atomic             Coordinates (Angstroms)
 Number     Number       Type             X           Y           Z
 ---------------------------------------------------------------------
      1          8           0        0.052277    2.767813    0.000000
      2          1           0        0.050988    1.785213    0.000000
      3          1           0       -0.876797    3.087699    0.000000
      4          8           0        0.052277   -2.587898   -0.000000
      5          1           0        0.790186   -3.236740   -0.000000
      6          1           0       -0.800807   -3.075498   -0.000000
 ---------------------------------------------------------------------

 SCF Done:  E(RHF) =  -152.108580721     A.U. after   10 cycles
 E2 =    -0.5258189706D+00 EUMP2 =    -0.15263439969147D+03
 CCSD(T)
 CCSD(T)= -0.15266159036D+03

 The electronic state is 1-A'.
 Alpha  occ. eigenvalues --  -20.56255 -20.54866  -1.33554  -1.32176  -0.70958
 Alpha  occ. eigenvalues --   -0.69575  -0.57053  -0.55649  -0.50674  -0.49300
 Alpha virt. eigenvalues --    0.13175   0.15096   0.19654   0.21206   0.53584
 Alpha virt. eigenvalues --    0.54887   0.56607   0.57817   0.66697   0.68988
 Alpha virt. eigenvalues --    0.78217   0.79521   0.79552   0.79830   0.82824

 Mulliken charges:
               1
     1  O   -0.514392
     2  H    0.261225
     3  H    0.252853
     4  O   -0.515061
     5  H    0.258898
     6  H    0.256477
 Sum of Mulliken charges =  -0.00000

 Dipole moment (field-independent basis, Debye):
    X=             -1.7910    Y=             -3.1694    Z=             -0.0000  Tot=              3.6405
 Quadrupole moment (field-independent basis, Debye-Ang):
   XX=             -9.2251   YY=             -6.4628   ZZ=            -14.7154
   XY=             -5.1569   XZ=             -0.0000   YZ=             -0.0000

 Normal termination of Gaussian 16 at Sun Aug 28 00:21:48 2022.
