 Gaussian 16, Revision A.03,
 Gaussian 16:  ES64L-G16RevA.03 25-Dec-2016

 ------------------
 #p CCSD(T)/cc-pVTZ
 ------------------

 ------------
 H2O_H2O_4742
 ------------
 Symbolic Z-matrix:
 Charge =  0 Multiplicity = 1

                         Standard orientation:
 ---------------------------------------------------------------------
 Center     Atomic      Atomic             Coordinates (Angstroms)
 Number     Number       Type             X           Y           Z
 ---------------------------------------------------------------------
      1          8           0        0.037404    2.996671   -0.000000
      2          1           0        0.035784    2.014071   -0.000000
      3          1           0       -0.891562    3.316870   -0.000000
      4          8           0        0.037404   -2.817672    0.000000
      5          1           0        0.917955   -3.253718    0.000000
      6          1           0       -0.660645   -3.509216    0.000000
 ---------------------------------------------------------------------

 SCF Done:  E(RHF) =  -152.108358115     A.U. after   10 cycles
 E2 =    -0.5258020774D+00 EUMP2 =    -0.15263416019198D+03
 CCSD(T)
 CCSD(T)= -0.15266135994D+03

 The electronic state is 1-A'.
 Alpha  occ. eigenvalues --  -20.56143 -20.54997  -1.33445  -1.32304  -0.70849
 Alpha  occ. eigenvalues --   -0.69707  -0.56936  -0.55774  -0.50563  -0.49427
 Alpha virt. eigenvalues --    0.13468   0.14843   0.19719   0.20965   0.53689
 Alpha virt. eigenvalues --    0.54828   0.56701   0.57784   0.66961   0.68607
 Alpha virt. eigenvalues --    0.78321   0.79431   0.79707   0.80389   0.82438

 Mulliken charges:
               1
     1  O   -0.513780
     2  H    0.259892
     3  H    0.253822
     4  O   -0.514406
     5  H    0.257693
     6  H    0.256778
 Sum of Mulliken charges =  -0.00000

 Dipole moment (field-independent basis, Debye):
    X=             -1.2838    Y=             -3.1359    Z=              0.0000  Tot=              3.3885
 Quadrupole moment (field-independent basis, Debye-Ang):
   XX=             -9.1598   YY=             -6.1407   ZZ=            -14.7146
   XY=             -6.4121   XZ=              0.0000   YZ=             -0.0000

 Normal termination of Gaussian 16 at Sun Aug 28 05:31:17 2022.
