 Gaussian 16, Revision A.03,
 Gaussian 16:  ES64L-G16RevA.03 25-Dec-2016

 ------------------
 #p CCSD(T)/cc-pVTZ
 ------------------

 ------------
 H2O_H2O_3193
 ------------
 Symbolic Z-matrix:
 Charge =  0 Multiplicity = 1

                         Standard orientation:
 ---------------------------------------------------------------------
 Center     Atomic      Atomic             Coordinates (Angstroms)
 Number     Number       Type             X           Y           Z
 ---------------------------------------------------------------------
      1          8           0        0.033788    2.377614    0.000000
      2          1           0        0.031594    1.395015    0.000000
      3          1           0       -0.894991    2.698355   -0.000000
      4          8           0        0.033788   -2.200089    0.000000
      5          1           0        0.940751   -2.578140    0.000000
      6          1           0       -0.617967   -2.935427   -0.000000
 ---------------------------------------------------------------------

 SCF Done:  E(RHF) =  -152.109673948     A.U. after   10 cycles
 E2 =    -0.5258888868D+00 EUMP2 =    -0.15263556283457D+03
 CCSD(T)
 CCSD(T)= -0.15266271401D+03

 The electronic state is 1-A'.
 Alpha  occ. eigenvalues --  -20.56555 -20.54543  -1.33840  -1.31861  -0.71240
 Alpha  occ. eigenvalues --   -0.69261  -0.57377  -0.55350  -0.50968  -0.48997
 Alpha virt. eigenvalues --    0.12579   0.15793   0.19456   0.22368   0.53321
 Alpha virt. eigenvalues --    0.55374   0.56453   0.58269   0.67679   0.69353
 Alpha virt. eigenvalues --    0.77935   0.78897   0.79700   0.79834   0.83156

 Mulliken charges:
               1
     1  O   -0.518833
     2  H    0.263589
     3  H    0.253054
     4  O   -0.515458
     5  H    0.259599
     6  H    0.258049
 Sum of Mulliken charges =  -0.00000

 Dipole moment (field-independent basis, Debye):
    X=             -1.1539    Y=             -3.1807    Z=              0.0000  Tot=              3.3836
 Quadrupole moment (field-independent basis, Debye-Ang):
   XX=             -9.1860   YY=             -7.1665   ZZ=            -14.7192
   XY=             -5.3818   XZ=              0.0000   YZ=             -0.0000

 Normal termination of Gaussian 16 at Fri Aug 26 20:19:19 2022.
