 Gaussian 16, Revision A.03,
 Gaussian 16:  ES64L-G16RevA.03 25-Dec-2016

 ------------------
 #p CCSD(T)/cc-pVTZ
 ------------------

 -----------
 H2O_H2O_885
 -----------
 Symbolic Z-matrix:
 Charge =  0 Multiplicity = 1

                         Standard orientation:
 ---------------------------------------------------------------------
 Center     Atomic      Atomic             Coordinates (Angstroms)
 Number     Number       Type             X           Y           Z
 ---------------------------------------------------------------------
      1          8           0        0.063301    1.459050    0.000000
      2          1           0        0.061462    0.476451    0.000000
      3          1           0       -0.865594    1.779456    0.000000
      4          8           0        0.063301   -1.283636   -0.000000
      5          1           0        0.660010   -2.064305   -0.000000
      6          1           0       -0.868692   -1.594916   -0.000000
 ---------------------------------------------------------------------

 SCF Done:  E(RHF) =  -152.111199010     A.U. after   10 cycles
 E2 =    -0.5293621826D+00 EUMP2 =    -0.15264056119247D+03
 CCSD(T)
 CCSD(T)= -0.15266734020D+03

 The electronic state is 1-A'.
 Alpha  occ. eigenvalues --  -20.59101 -20.51340  -1.36744  -1.29122  -0.74009
 Alpha  occ. eigenvalues --   -0.68432  -0.59662  -0.53728  -0.52022  -0.46197
 Alpha virt. eigenvalues --    0.11615   0.17438   0.19499   0.32315   0.48108
 Alpha virt. eigenvalues --    0.54410   0.59099   0.59972   0.69972   0.72507
 Alpha virt. eigenvalues --    0.72880   0.77243   0.81734   0.82885   0.84462

 Mulliken charges:
               1
     1  O   -0.570468
     2  H    0.301855
     3  H    0.233448
     4  O   -0.473232
     5  H    0.256350
     6  H    0.252048
 Sum of Mulliken charges =   0.00000

 Dipole moment (field-independent basis, Debye):
    X=             -2.0729    Y=             -3.7806    Z=             -0.0000  Tot=              4.3116
 Quadrupole moment (field-independent basis, Debye-Ang):
   XX=             -9.4705   YY=             -8.8966   ZZ=            -14.7132
   XY=             -3.1376   XZ=             -0.0000   YZ=              0.0000

 Normal termination of Gaussian 16 at Fri Aug 26 21:07:53 2022.
