 Gaussian 16, Revision A.03,
 Gaussian 16:  ES64L-G16RevA.03 25-Dec-2016

 ------------------
 #p CCSD(T)/cc-pVTZ
 ------------------

 ------------
 H2O_H2O_1087
 ------------
 Symbolic Z-matrix:
 Charge =  0 Multiplicity = 1

                         Standard orientation:
 ---------------------------------------------------------------------
 Center     Atomic      Atomic             Coordinates (Angstroms)
 Number     Number       Type             X           Y           Z
 ---------------------------------------------------------------------
      1          8           0        0.056060    1.540677   -0.000000
      2          1           0        0.053899    0.558077   -0.000000
      3          1           0       -0.872729    1.861387   -0.000000
      4          8           0        0.056060   -1.361857    0.000000
      5          1           0        0.749334   -2.058188    0.000000
      6          1           0       -0.827470   -1.791834    0.000000
 ---------------------------------------------------------------------

 SCF Done:  E(RHF) =  -152.113458780     A.U. after   10 cycles
 E2 =    -0.5283670205D+00 EUMP2 =    -0.15264182580056D+03
 CCSD(T)
 CCSD(T)= -0.15266870873D+03

 The electronic state is 1-A'.
 Alpha  occ. eigenvalues --  -20.58665 -20.51937  -1.36108  -1.29563  -0.73365
 Alpha  occ. eigenvalues --   -0.68029  -0.59640  -0.53180  -0.52658  -0.46678
 Alpha virt. eigenvalues --    0.11810   0.17706   0.19149   0.31426   0.48499
 Alpha virt. eigenvalues --    0.54739   0.57191   0.60040   0.69719   0.71799
 Alpha virt. eigenvalues --    0.72919   0.77098   0.82361   0.82489   0.84810

 Mulliken charges:
               1
     1  O   -0.559681
     2  H    0.294171
     3  H    0.239082
     4  O   -0.493569
     5  H    0.263283
     6  H    0.256714
 Sum of Mulliken charges =  -0.00000

 Dipole moment (field-independent basis, Debye):
    X=             -1.8541    Y=             -3.7085    Z=              0.0000  Tot=              4.1462
 Quadrupole moment (field-independent basis, Debye-Ang):
   XX=             -9.2950   YY=             -8.6718   ZZ=            -14.7278
   XY=             -3.3517   XZ=              0.0000   YZ=             -0.0000

 Normal termination of Gaussian 16 at Fri Aug 26 22:22:53 2022.
