 Gaussian 16, Revision A.03,
 Gaussian 16:  ES64L-G16RevA.03 25-Dec-2016

 ------------------
 #p CCSD(T)/cc-pVTZ
 ------------------

 ------------
 H2O_H2O_4653
 ------------
 Symbolic Z-matrix:
 Charge =  0 Multiplicity = 1

                         Standard orientation:
 ---------------------------------------------------------------------
 Center     Atomic      Atomic             Coordinates (Angstroms)
 Number     Number       Type             X           Y           Z
 ---------------------------------------------------------------------
      1          8           0        0.085597   -2.950787    0.000000
      2          1           0        0.085380   -1.968185    0.000000
      3          1           0       -0.843826   -3.269658    0.000000
      4          8           0        0.085597    2.801179    0.000000
      5          1           0        0.277079    3.764943    0.000000
      6          1           0       -0.888177    2.669757    0.000000
 ---------------------------------------------------------------------

 SCF Done:  E(RHF) =  -152.107816759     A.U. after   10 cycles
 E2 =    -0.5258548953D+00 EUMP2 =    -0.15263367165423D+03
 CCSD(T)
 CCSD(T)= -0.15266088247D+03

 The electronic state is 1-A'.
 Alpha  occ. eigenvalues --  -20.56178 -20.55232  -1.33479  -1.32535  -0.70891
 Alpha  occ. eigenvalues --   -0.69933  -0.56946  -0.55991  -0.50592  -0.49650
 Alpha virt. eigenvalues --    0.13104   0.14706   0.19231   0.21249   0.53402
 Alpha virt. eigenvalues --    0.54801   0.56601   0.57676   0.66971   0.68465
 Alpha virt. eigenvalues --    0.78297   0.79219   0.79641   0.80960   0.81861

 Mulliken charges:
               1
     1  O   -0.510554
     2  H    0.258149
     3  H    0.252352
     4  O   -0.511509
     5  H    0.258143
     6  H    0.253419
 Sum of Mulliken charges =  -0.00000

 Dipole moment (field-independent basis, Debye):
    X=             -2.9365    Y=              2.6222    Z=              0.0000  Tot=              3.9369
 Quadrupole moment (field-independent basis, Debye-Ang):
   XX=            -10.3966   YY=             -8.0898   ZZ=            -14.7126
   XY=              2.9580   XZ=              0.0000   YZ=              0.0000

 03439\MP4DQ=-152.642794\MP4SDQ=-152.6458459\CCSD=-152.64526\CCSD(T)=-1
 Normal termination of Gaussian 16 at Sun Aug 28 04:39:20 2022.
