 Gaussian 16, Revision A.03,
 Gaussian 16:  ES64L-G16RevA.03 25-Dec-2016

 ------------------
 #p CCSD(T)/cc-pVTZ
 ------------------

 ------------
 H2O_H2O_4691
 ------------
 Symbolic Z-matrix:
 Charge =  0 Multiplicity = 1

                         Standard orientation:
 ---------------------------------------------------------------------
 Center     Atomic      Atomic             Coordinates (Angstroms)
 Number     Number       Type             X           Y           Z
 ---------------------------------------------------------------------
      1          8           0        0.041102    2.977249    0.000000
      2          1           0        0.039579    1.994648    0.000000
      3          1           0       -0.887896    3.297356    0.000000
      4          8           0        0.041102   -2.797289   -0.000000
      5          1           0        0.891297   -3.289908   -0.000000
      6          1           0       -0.700618   -3.441771   -0.000000
 ---------------------------------------------------------------------

 SCF Done:  E(RHF) =  -152.108368445     A.U. after   10 cycles
 E2 =    -0.5258036413D+00 EUMP2 =    -0.15263417208605D+03
 CCSD(T)
 CCSD(T)= -0.15266137133D+03

 The electronic state is 1-A'.
 Alpha  occ. eigenvalues --  -20.56151 -20.54981  -1.33453  -1.32288  -0.70857
 Alpha  occ. eigenvalues --   -0.69691  -0.56945  -0.55759  -0.50572  -0.49411
 Alpha virt. eigenvalues --    0.13451   0.14863   0.19721   0.20978   0.53689
 Alpha virt. eigenvalues --    0.54832   0.56693   0.57790   0.66934   0.68642
 Alpha virt. eigenvalues --    0.78313   0.79446   0.79711   0.80315   0.82513

 Mulliken charges:
               1
     1  O   -0.513778
     2  H    0.260051
     3  H    0.253650
     4  O   -0.514440
     5  H    0.257861
     6  H    0.256656
 Sum of Mulliken charges =  -0.00000

 Dipole moment (field-independent basis, Debye):
    X=             -1.4104    Y=             -3.1540    Z=             -0.0000  Tot=              3.4550
 Quadrupole moment (field-independent basis, Debye-Ang):
   XX=             -9.1495   YY=             -6.1170   ZZ=            -14.7147
   XY=             -6.1437   XZ=             -0.0000   YZ=              0.0000

 Normal termination of Gaussian 16 at Sun Aug 28 05:06:37 2022.
