 Gaussian 16, Revision A.03,
 Gaussian 16:  ES64L-G16RevA.03 25-Dec-2016

 ------------------
 #p CCSD(T)/cc-pVTZ
 ------------------

 ------------
 H2O_H2O_2436
 ------------
 Symbolic Z-matrix:
 Charge =  0 Multiplicity = 1

                         Standard orientation:
 ---------------------------------------------------------------------
 Center     Atomic      Atomic             Coordinates (Angstroms)
 Number     Number       Type             X           Y           Z
 ---------------------------------------------------------------------
      1          8           0        0.059656    2.078399    0.000000
      2          1           0        0.058235    1.095798    0.000000
      3          1           0       -0.869375    2.398409   -0.000000
      4          8           0        0.059656   -1.900975    0.000000
      5          1           0        0.706462   -2.640669    0.000000
      6          1           0       -0.849824   -2.272930   -0.000000
 ---------------------------------------------------------------------

 SCF Done:  E(RHF) =  -152.110785187     A.U. after   10 cycles
 E2 =    -0.5261579631D+00 EUMP2 =    -0.15263694314964D+03
 CCSD(T)
 CCSD(T)= -0.15266404980D+03

 The electronic state is 1-A'.
 Alpha  occ. eigenvalues --  -20.56995 -20.54146  -1.34257  -1.31477  -0.71657
 Alpha  occ. eigenvalues --   -0.68867  -0.57846  -0.54955  -0.51389  -0.48617
 Alpha virt. eigenvalues --    0.12239   0.16427   0.19343   0.24293   0.52667
 Alpha virt. eigenvalues --    0.55682   0.56106   0.58946   0.68954   0.70923
 Alpha virt. eigenvalues --    0.77272   0.78641   0.80239   0.81328   0.83644

 Mulliken charges:
               1
     1  O   -0.522176
     2  H    0.266696
     3  H    0.249028
     4  O   -0.509599
     5  H    0.260386
     6  H    0.255664
 Sum of Mulliken charges =   0.00000

 Dipole moment (field-independent basis, Debye):
    X=             -2.0253    Y=             -3.2613    Z=             -0.0000  Tot=              3.8391
 Quadrupole moment (field-independent basis, Debye-Ang):
   XX=             -9.3683   YY=             -7.6393   ZZ=            -14.7226
   XY=             -3.9432   XZ=              0.0000   YZ=             -0.0000

 Normal termination of Gaussian 16 at Sun Aug 28 07:16:47 2022.
