 Gaussian 16, Revision A.03,
 Gaussian 16:  ES64L-G16RevA.03 25-Dec-2016

 ------------------
 #p CCSD(T)/cc-pVTZ
 ------------------

 ------------
 H2O_H2O_2912
 ------------
 Symbolic Z-matrix:
 Charge =  0 Multiplicity = 1

                         Standard orientation:
 ---------------------------------------------------------------------
 Center     Atomic      Atomic             Coordinates (Angstroms)
 Number     Number       Type             X           Y           Z
 ---------------------------------------------------------------------
      1          8           0        0.055995    2.268668    0.000000
      2          1           0        0.054555    1.286067    0.000000
      3          1           0       -0.873031    2.588695   -0.000000
      4          8           0        0.055995   -2.089766    0.000000
      5          1           0        0.749781   -2.785587    0.000000
      6          1           0       -0.827219   -2.520391   -0.000000
 ---------------------------------------------------------------------

 SCF Done:  E(RHF) =  -152.109905350     A.U. after   10 cycles
 E2 =    -0.5259744372D+00 EUMP2 =    -0.15263587978720D+03
 CCSD(T)
 CCSD(T)= -0.15266301811D+03

 The electronic state is 1-A'.
 Alpha  occ. eigenvalues --  -20.56700 -20.54414  -1.33976  -1.31735  -0.71377
 Alpha  occ. eigenvalues --   -0.69125  -0.57521  -0.55219  -0.51105  -0.48869
 Alpha virt. eigenvalues --    0.12428   0.15999   0.19439   0.22866   0.53169
 Alpha virt. eigenvalues --    0.55476   0.56279   0.58696   0.68563   0.69336
 Alpha virt. eigenvalues --    0.77778   0.79107   0.79474   0.79961   0.83277

 Mulliken charges:
               1
     1  O   -0.518893
     2  H    0.264723
     3  H    0.250779
     4  O   -0.513149
     5  H    0.260237
     6  H    0.256303
 Sum of Mulliken charges =  -0.00000

 Dipole moment (field-independent basis, Debye):
    X=             -1.9077    Y=             -3.2313    Z=             -0.0000  Tot=              3.7524
 Quadrupole moment (field-independent basis, Debye-Ang):
   XX=             -9.2878   YY=             -7.2931   ZZ=            -14.7199
   XY=             -4.3101   XZ=              0.0000   YZ=             -0.0000

 Normal termination of Gaussian 16 at Fri Aug 26 18:17:58 2022.
