 Gaussian 16, Revision A.03,
 Gaussian 16:  ES64L-G16RevA.03 25-Dec-2016

 ------------------
 #p CCSD(T)/cc-pVTZ
 ------------------

 ------------
 H2O_H2O_2429
 ------------
 Symbolic Z-matrix:
 Charge =  0 Multiplicity = 1

                         Standard orientation:
 ---------------------------------------------------------------------
 Center     Atomic      Atomic             Coordinates (Angstroms)
 Number     Number       Type             X           Y           Z
 ---------------------------------------------------------------------
      1          8           0        0.082808   -2.065948    0.000000
      2          1           0        0.082375   -1.083347    0.000000
      3          1           0       -0.846545   -2.385024    0.000000
      4          8           0        0.082808    1.911440    0.000000
      5          1           0        0.336706    2.860672    0.000000
      6          1           0       -0.897461    1.843769    0.000000
 ---------------------------------------------------------------------

 SCF Done:  E(RHF) =  -152.109535645     A.U. after   10 cycles
 E2 =    -0.5262682114D+00 EUMP2 =    -0.15263580385620D+03
 CCSD(T)
 CCSD(T)= -0.15266293555D+03

 The electronic state is 1-A'.
 Alpha  occ. eigenvalues --  -20.56982 -20.54598  -1.34262  -1.31914  -0.71699
 Alpha  occ. eigenvalues --   -0.69283  -0.57785  -0.55370  -0.51377  -0.49038
 Alpha virt. eigenvalues --    0.11800   0.16093   0.19609   0.24148   0.53387
 Alpha virt. eigenvalues --    0.55575   0.56383   0.58096   0.68673   0.71105
 Alpha virt. eigenvalues --    0.77243   0.79290   0.79875   0.80787   0.83215

 Mulliken charges:
               1
     1  O   -0.516521
     2  H    0.264555
     3  H    0.247266
     4  O   -0.506063
     5  H    0.259305
     6  H    0.251458
 Sum of Mulliken charges =  -0.00000

 Dipole moment (field-independent basis, Debye):
    X=             -2.8082    Y=              2.8317    Z=              0.0000  Tot=              3.9880
 Quadrupole moment (field-independent basis, Debye-Ang):
   XX=            -10.2646   YY=             -8.3579   ZZ=            -14.7178
   XY=              2.9007   XZ=              0.0000   YZ=              0.0000

 Normal termination of Gaussian 16 at Sun Aug 28 07:14:15 2022.
