 Gaussian 16, Revision A.03,
 Gaussian 16:  ES64L-G16RevA.03 25-Dec-2016

 ------------------
 #p CCSD(T)/cc-pVTZ
 ------------------

 -----------
 H2O_H2O_116
 -----------
 Symbolic Z-matrix:
 Charge =  0 Multiplicity = 1

                         Standard orientation:
 ---------------------------------------------------------------------
 Center     Atomic      Atomic             Coordinates (Angstroms)
 Number     Number       Type             X           Y           Z
 ---------------------------------------------------------------------
      1          8           0        0.041342    1.152281   -0.000000
      2          1           0        0.037202    0.169688   -0.000000
      3          1           0       -0.886801    1.474860   -0.000000
      4          8           0        0.041342   -0.972541    0.000000
      5          1           0        0.890223   -1.467422    0.000000
      6          1           0       -0.702092   -1.615047    0.000000
 ---------------------------------------------------------------------

 SCF Done:  E(RHF) =  -152.053035256     A.U. after   11 cycles
 E2 =    -0.5351757425D+00 EUMP2 =    -0.15258821099845D+03
 CCSD(T)
 CCSD(T)= -0.15261386137D+03

 The electronic state is 1-A'.
 Alpha  occ. eigenvalues --  -20.61835 -20.44592  -1.42961  -1.24687  -0.78626
 Alpha  occ. eigenvalues --   -0.77007  -0.58179  -0.55158  -0.44835  -0.41230
 Alpha virt. eigenvalues --    0.10474   0.16672   0.20980   0.33238   0.46728
 Alpha virt. eigenvalues --    0.52166   0.62613   0.66065   0.70409   0.70984
 Alpha virt. eigenvalues --    0.78521   0.79584   0.81098   0.82457   0.87009

 Mulliken charges:
               1
     1  O   -0.669484
     2  H    0.293250
     3  H    0.208313
     4  O   -0.330496
     5  H    0.257613
     6  H    0.240805
 Sum of Mulliken charges =  -0.00000

 Dipole moment (field-independent basis, Debye):
    X=             -1.2569    Y=             -4.9871    Z=              0.0000  Tot=              5.1430
 Quadrupole moment (field-independent basis, Debye-Ang):
   XX=             -9.0876   YY=            -10.1431   ZZ=            -14.5754
   XY=             -2.7160   XZ=              0.0000   YZ=             -0.0000

 Normal termination of Gaussian 16 at Fri Aug 26 15:57:53 2022.
