 Gaussian 16, Revision A.03,
 Gaussian 16:  ES64L-G16RevA.03 25-Dec-2016

 ------------------
 #p CCSD(T)/cc-pVTZ
 ------------------

 ------------
 H2O_H2O_2209
 ------------
 Symbolic Z-matrix:
 Charge =  0 Multiplicity = 1

                         Standard orientation:
 ---------------------------------------------------------------------
 Center     Atomic      Atomic             Coordinates (Angstroms)
 Number     Number       Type             X           Y           Z
 ---------------------------------------------------------------------
      1          8           0        0.066777    1.986290    0.000000
      2          1           0        0.065607    1.003689    0.000000
      3          1           0       -0.862336    2.306063    0.000000
      4          8           0        0.066777   -1.813211   -0.000000
      5          1           0        0.611708   -2.630864   -0.000000
      6          1           0       -0.883409   -2.063517   -0.000000
 ---------------------------------------------------------------------

 SCF Done:  E(RHF) =  -152.111051670     A.U. after   10 cycles
 E2 =    -0.5263230436D+00 EUMP2 =    -0.15263737471311D+03
 CCSD(T)
 CCSD(T)= -0.15266446804D+03

 The electronic state is 1-A'.
 Alpha  occ. eigenvalues --  -20.57168 -20.54064  -1.34429  -1.31401  -0.71836
 Alpha  occ. eigenvalues --   -0.68792  -0.58036  -0.54865  -0.51559  -0.48540
 Alpha virt. eigenvalues --    0.12094   0.16556   0.19359   0.25097   0.52267
 Alpha virt. eigenvalues --    0.55730   0.56004   0.58673   0.68880   0.71856
 Alpha virt. eigenvalues --    0.76816   0.78453   0.80364   0.83235   0.83508

 Mulliken charges:
               1
     1  O   -0.522926
     2  H    0.267372
     3  H    0.247408
     4  O   -0.507064
     5  H    0.260490
     6  H    0.254720
 Sum of Mulliken charges =  -0.00000

 Dipole moment (field-independent basis, Debye):
    X=             -2.2617    Y=             -3.2144    Z=             -0.0000  Tot=              3.9303
 Quadrupole moment (field-independent basis, Debye-Ang):
   XX=             -9.5733   YY=             -7.8938   ZZ=            -14.7236
   XY=             -3.5986   XZ=             -0.0000   YZ=              0.0000

 Normal termination of Gaussian 16 at Sun Aug 28 05:26:48 2022.
