 Gaussian 16, Revision A.03,
 Gaussian 16:  ES64L-G16RevA.03 25-Dec-2016

 ------------------
 #p CCSD(T)/cc-pVTZ
 ------------------

 ------------
 H2O_H2O_2828
 ------------
 Symbolic Z-matrix:
 Charge =  0 Multiplicity = 1

                         Standard orientation:
 ---------------------------------------------------------------------
 Center     Atomic      Atomic             Coordinates (Angstroms)
 Number     Number       Type             X           Y           Z
 ---------------------------------------------------------------------
      1          8           0        0.085602   -2.222829    0.000000
      2          1           0        0.085312   -1.240228    0.000000
      3          1           0       -0.843797   -2.541770    0.000000
      4          8           0        0.085602    2.073235    0.000000
      5          1           0        0.277014    3.037013    0.000000
      6          1           0       -0.888161    1.941738    0.000000
 ---------------------------------------------------------------------

 SCF Done:  E(RHF) =  -152.108789187     A.U. after   10 cycles
 E2 =    -0.5260981552D+00 EUMP2 =    -0.15263488734186D+03
 CCSD(T)
 CCSD(T)= -0.15266204839D+03

 The electronic state is 1-A'.
 Alpha  occ. eigenvalues --  -20.56738 -20.54852  -1.34026  -1.32161  -0.71455
 Alpha  occ. eigenvalues --   -0.69538  -0.57518  -0.55620  -0.51139  -0.49281
 Alpha virt. eigenvalues --    0.11790   0.15776   0.19491   0.23208   0.54222
 Alpha virt. eigenvalues --    0.54911   0.56427   0.58262   0.68468   0.69315
 Alpha virt. eigenvalues --    0.77715   0.78728   0.79592   0.80785   0.82840

 Mulliken charges:
               1
     1  O   -0.513551
     2  H    0.262277
     3  H    0.248792
     4  O   -0.508641
     5  H    0.259625
     6  H    0.251498
 Sum of Mulliken charges =   0.00000

 Dipole moment (field-independent basis, Debye):
    X=             -2.9121    Y=              2.7007    Z=              0.0000  Tot=              3.9717
 Quadrupole moment (field-independent basis, Debye-Ang):
   XX=            -10.4115   YY=             -8.4544   ZZ=            -14.7154
   XY=              2.7646   XZ=              0.0000   YZ=              0.0000

 Normal termination of Gaussian 16 at Fri Aug 26 17:36:29 2022.
