 Gaussian 16, Revision A.03,
 Gaussian 16:  ES64L-G16RevA.03 25-Dec-2016

 ------------------
 #p CCSD(T)/cc-pVTZ
 ------------------

 ------------
 H2O_H2O_2299
 ------------
 Symbolic Z-matrix:
 Charge =  0 Multiplicity = 1

                         Standard orientation:
 ---------------------------------------------------------------------
 Center     Atomic      Atomic             Coordinates (Angstroms)
 Number     Number       Type             X           Y           Z
 ---------------------------------------------------------------------
      1          8           0       -0.013561    2.008703    0.000000
      2          1           0       -0.010067    1.026108    0.000000
      3          1           0        0.914793    2.330672    0.000000
      4          8           0       -0.013561   -1.849456    0.000000
      5          1           0       -0.996156   -1.852949    0.000000
      6          1           0        0.308408   -2.777810    0.000000
 ---------------------------------------------------------------------

 SCF Done:  E(RHF) =  -152.111051352     A.U. after   10 cycles
 E2 =    -0.5261827223D+00 EUMP2 =    -0.15263723407463D+03
 CCSD(T)
 CCSD(T)= -0.15266433718D+03

 The electronic state is 1-A'.
 Alpha  occ. eigenvalues --  -20.57039 -20.54299  -1.34317  -1.31634  -0.71741
 Alpha  occ. eigenvalues --   -0.69047  -0.57921  -0.55116  -0.51446  -0.48782
 Alpha virt. eigenvalues --    0.12162   0.16549   0.19265   0.25146   0.53798
 Alpha virt. eigenvalues --    0.54982   0.56050   0.58691   0.68622   0.71892
 Alpha virt. eigenvalues --    0.76990   0.79279   0.80134   0.81705   0.83600

 Mulliken charges:
               1
     1  O   -0.526394
     2  H    0.265179
     3  H    0.254739
     4  O   -0.511231
     5  H    0.259417
     6  H    0.258290
 Sum of Mulliken charges =  -0.00000

 Dipole moment (field-independent basis, Debye):
    X=              0.4684    Y=             -2.9385    Z=              0.0000  Tot=              2.9756
 Quadrupole moment (field-independent basis, Debye-Ang):
   XX=             -9.6496   YY=             -8.2325   ZZ=            -14.7233
   XY=              5.4202   XZ=              0.0000   YZ=              0.0000

 Normal termination of Gaussian 16 at Sun Aug 28 06:08:19 2022.
