 Gaussian 16, Revision A.03,
 Gaussian 16:  ES64L-G16RevA.03 25-Dec-2016

 ------------------
 #p CCSD(T)/cc-pVTZ
 ------------------

 ------------
 H2O_H2O_3053
 ------------
 Symbolic Z-matrix:
 Charge =  0 Multiplicity = 1

                         Standard orientation:
 ---------------------------------------------------------------------
 Center     Atomic      Atomic             Coordinates (Angstroms)
 Number     Number       Type             X           Y           Z
 ---------------------------------------------------------------------
      1          8           0        0.085601   -2.312578    0.000000
      2          1           0        0.085322   -1.329976    0.000000
      3          1           0       -0.843801   -2.631508    0.000000
      4          8           0        0.085601    2.162981    0.000000
      5          1           0        0.277023    3.126757    0.000000
      6          1           0       -0.888164    2.031497    0.000000
 ---------------------------------------------------------------------

 SCF Done:  E(RHF) =  -152.108567650     A.U. after   10 cycles
 E2 =    -0.5260276937D+00 EUMP2 =    -0.15263459534326D+03
 CCSD(T)
 CCSD(T)= -0.15266176736D+03

 The electronic state is 1-A'.
 Alpha  occ. eigenvalues --  -20.56628 -20.54923  -1.33919  -1.32231  -0.71344
 Alpha  occ. eigenvalues --   -0.69613  -0.57405  -0.55691  -0.51033  -0.49349
 Alpha virt. eigenvalues --    0.11870   0.15629   0.19385   0.22816   0.54089
 Alpha virt. eigenvalues --    0.54828   0.56419   0.58241   0.67866   0.69126
 Alpha virt. eigenvalues --    0.77861   0.78592   0.79514   0.80921   0.82737

 Mulliken charges:
               1
     1  O   -0.512662
     2  H    0.261348
     3  H    0.249535
     4  O   -0.509957
     5  H    0.259784
     6  H    0.251951
 Sum of Mulliken charges =  -0.00000

 Dipole moment (field-independent basis, Debye):
    X=             -2.9167    Y=              2.6840    Z=              0.0000  Tot=              3.9637
 Quadrupole moment (field-independent basis, Debye-Ang):
   XX=            -10.4081   YY=             -8.4115   ZZ=            -14.7149
   XY=              2.7886   XZ=              0.0000   YZ=              0.0000

 CCSD(T)=-152.6617674\RMSD=7.137e-09\PG=CS [SG(H4O2)]\\@
 Normal termination of Gaussian 16 at Fri Aug 26 19:30:45 2022.
