 Gaussian 16, Revision A.03,
 Gaussian 16:  ES64L-G16RevA.03 25-Dec-2016

 ------------------
 #p CCSD(T)/cc-pVTZ
 ------------------

 ------------
 H2O_H2O_4826
 ------------
 Symbolic Z-matrix:
 Charge =  0 Multiplicity = 1

                         Standard orientation:
 ---------------------------------------------------------------------
 Center     Atomic      Atomic             Coordinates (Angstroms)
 Number     Number       Type             X           Y           Z
 ---------------------------------------------------------------------
      1          8           0        0.090683   -3.014673    0.000000
      2          1           0        0.090618   -2.032071    0.000000
      3          1           0       -0.838788   -3.333401    0.000000
      4          8           0        0.090683    2.875961    0.000000
      5          1           0        0.154883    3.856463    0.000000
      6          1           0       -0.857645    2.618705    0.000000
 ---------------------------------------------------------------------

 SCF Done:  E(RHF) =  -152.107654883     A.U. after   10 cycles
 E2 =    -0.5258634140D+00 EUMP2 =    -0.15263351829697D+03
 CCSD(T)
 CCSD(T)= -0.15266073331D+03

 The electronic state is 1-A'.
 Alpha  occ. eigenvalues --  -20.56156 -20.55336  -1.33457  -1.32637  -0.70870
 Alpha  occ. eigenvalues --   -0.70035  -0.56917  -0.56089  -0.50568  -0.49750
 Alpha virt. eigenvalues --    0.13094   0.14600   0.19092   0.21286   0.53424
 Alpha virt. eigenvalues --    0.54713   0.56601   0.57590   0.67061   0.68314
 Alpha virt. eigenvalues --    0.78320   0.79123   0.79701   0.80961   0.81664

 Mulliken charges:
               1
     1  O   -0.509765
     2  H    0.257260
     3  H    0.252480
     4  O   -0.510622
     5  H    0.257760
     6  H    0.252887
 Sum of Mulliken charges =  -0.00000

 Dipole moment (field-independent basis, Debye):
    X=             -3.1124    Y=              2.4281    Z=              0.0000  Tot=              3.9475
 Quadrupole moment (field-independent basis, Debye-Ang):
   XX=            -10.6988   YY=             -8.8471   ZZ=            -14.7120
   XY=              2.4311   XZ=              0.0000   YZ=              0.0000

 Normal termination of Gaussian 16 at Sun Aug 28 06:11:28 2022.
