 Gaussian 16, Revision A.03,
 Gaussian 16:  ES64L-G16RevA.03 25-Dec-2016

 ------------------
 #p CCSD(T)/cc-pVTZ
 ------------------

 ------------
 H2O_H2O_1877
 ------------
 Symbolic Z-matrix:
 Charge =  0 Multiplicity = 1

                         Standard orientation:
 ---------------------------------------------------------------------
 Center     Atomic      Atomic             Coordinates (Angstroms)
 Number     Number       Type             X           Y           Z
 ---------------------------------------------------------------------
      1          8           0        0.088235   -1.841026    0.000000
      2          1           0        0.088009   -0.858425    0.000000
      3          1           0       -0.841184   -2.159907    0.000000
      4          8           0        0.088235    1.696716    0.000000
      5          1           0        0.216266    2.670941    0.000000
      6          1           0       -0.874855    1.501877    0.000000
 ---------------------------------------------------------------------

 SCF Done:  E(RHF) =  -152.109751493     A.U. after   10 cycles
 E2 =    -0.5268299012D+00 EUMP2 =    -0.15263658139421D+03
 CCSD(T)
 CCSD(T)= -0.15266368840D+03

 The electronic state is 1-A'.
 Alpha  occ. eigenvalues --  -20.57435 -20.54485  -1.34733  -1.31813  -0.72261
 Alpha  occ. eigenvalues --   -0.69142  -0.58269  -0.55231  -0.51829  -0.48929
 Alpha virt. eigenvalues --    0.11594   0.16289   0.20026   0.26102   0.51407
 Alpha virt. eigenvalues --    0.55452   0.57082   0.57568   0.68413   0.74100
 Alpha virt. eigenvalues --    0.75642   0.78338   0.80211   0.82886   0.83169

 Mulliken charges:
               1
     1  O   -0.518717
     2  H    0.267782
     3  H    0.243578
     4  O   -0.497668
     5  H    0.257403
     6  H    0.247622
 Sum of Mulliken charges =  -0.00000

 Dipole moment (field-independent basis, Debye):
    X=             -2.9699    Y=              2.7222    Z=              0.0000  Tot=              4.0287
 Quadrupole moment (field-independent basis, Debye-Ang):
   XX=            -10.5880   YY=             -8.7957   ZZ=            -14.7174
   XY=              2.4895   XZ=              0.0000   YZ=              0.0000

 Normal termination of Gaussian 16 at Sun Aug 28 02:22:38 2022.
