 Gaussian 16, Revision A.03,
 Gaussian 16:  ES64L-G16RevA.03 25-Dec-2016

 ------------------
 #p CCSD(T)/cc-pVTZ
 ------------------

 -----------
 H2O_H2O_461
 -----------
 Symbolic Z-matrix:
 Charge =  0 Multiplicity = 1

                         Standard orientation:
 ---------------------------------------------------------------------
 Center     Atomic      Atomic             Coordinates (Angstroms)
 Number     Number       Type             X           Y           Z
 ---------------------------------------------------------------------
      1          8           0        0.059740    1.290561    0.000000
      2          1           0        0.057388    0.307962    0.000000
      3          1           0       -0.868987    1.611451   -0.000000
      4          8           0        0.059740   -1.113250    0.000000
      5          1           0        0.705845   -1.853557    0.000000
      6          1           0       -0.850092   -1.484343   -0.000000
 ---------------------------------------------------------------------

 SCF Done:  E(RHF) =  -152.096829536     A.U. after   11 cycles
 E2 =    -0.5322791870D+00 EUMP2 =    -0.15262910872276D+03
 CCSD(T)
 CCSD(T)= -0.15265541693D+03

 The electronic state is 1-A'.
 Alpha  occ. eigenvalues --  -20.60383 -20.48625  -1.39044  -1.27191  -0.75830
 Alpha  occ. eigenvalues --   -0.71512  -0.58186  -0.55567  -0.49203  -0.44099
 Alpha virt. eigenvalues --    0.11131   0.17154   0.20148   0.33340   0.47823
 Alpha virt. eigenvalues --    0.53370   0.61347   0.62806   0.71488   0.72186
 Alpha virt. eigenvalues --    0.74476   0.78884   0.80401   0.83060   0.84054

 Mulliken charges:
               1
     1  O   -0.612272
     2  H    0.310506
     3  H    0.220539
     4  O   -0.417819
     5  H    0.251820
     6  H    0.247226
 Sum of Mulliken charges =  -0.00000

 Dipole moment (field-independent basis, Debye):
    X=             -1.8964    Y=             -4.2947    Z=             -0.0000  Tot=              4.6948
 Quadrupole moment (field-independent basis, Debye-Ang):
   XX=             -9.3551   YY=             -9.4739   ZZ=            -14.6614
   XY=             -2.9377   XZ=              0.0000   YZ=              0.0000

 Normal termination of Gaussian 16 at Fri Aug 26 18:25:29 2022.
