 Gaussian 16, Revision A.03,
 Gaussian 16:  ES64L-G16RevA.03 25-Dec-2016

 ------------------
 #p CCSD(T)/cc-pVTZ
 ------------------

 ------------
 H2O_H2O_2374
 ------------
 Symbolic Z-matrix:
 Charge =  0 Multiplicity = 1

                         Standard orientation:
 ---------------------------------------------------------------------
 Center     Atomic      Atomic             Coordinates (Angstroms)
 Number     Number       Type             X           Y           Z
 ---------------------------------------------------------------------
      1          8           0       -0.013557    2.038619    0.000000
      2          1           0       -0.010116    1.056024    0.000000
      3          1           0        0.914815    2.360538    0.000000
      4          8           0       -0.013557   -1.879371    0.000000
      5          1           0       -0.996152   -1.882810    0.000000
      6          1           0        0.308362   -2.807742    0.000000
 ---------------------------------------------------------------------

 SCF Done:  E(RHF) =  -152.110878828     A.U. after   10 cycles
 E2 =    -0.5261412930D+00 EUMP2 =    -0.15263702012145D+03
 CCSD(T)
 CCSD(T)= -0.15266412878D+03

 The electronic state is 1-A'.
 Alpha  occ. eigenvalues --  -20.56984 -20.54351  -1.34263  -1.31683  -0.71684
 Alpha  occ. eigenvalues --   -0.69095  -0.57856  -0.55168  -0.51392  -0.48830
 Alpha virt. eigenvalues --    0.12161   0.16471   0.19262   0.24884   0.53926
 Alpha virt. eigenvalues --    0.55117   0.56079   0.58623   0.68628   0.71504
 Alpha virt. eigenvalues --    0.77145   0.79332   0.80069   0.81292   0.83644

 Mulliken charges:
               1
     1  O   -0.525547
     2  H    0.264904
     3  H    0.254768
     4  O   -0.511666
     5  H    0.259223
     6  H    0.258318
 Sum of Mulliken charges =   0.00000

 Dipole moment (field-independent basis, Debye):
    X=              0.4682    Y=             -2.9279    Z=              0.0000  Tot=              2.9651
 Quadrupole moment (field-independent basis, Debye-Ang):
   XX=             -9.6494   YY=             -8.2051   ZZ=            -14.7226
   XY=              5.5021   XZ=              0.0000   YZ=              0.0000

 Normal termination of Gaussian 16 at Sun Aug 28 06:45:18 2022.
