 Gaussian 16, Revision A.03,
 Gaussian 16:  ES64L-G16RevA.03 25-Dec-2016

 ------------------
 #p CCSD(T)/cc-pVTZ
 ------------------

 ------------
 H2O_H2O_1745
 ------------
 Symbolic Z-matrix:
 Charge =  0 Multiplicity = 1

                         Standard orientation:
 ---------------------------------------------------------------------
 Center     Atomic      Atomic             Coordinates (Angstroms)
 Number     Number       Type             X           Y           Z
 ---------------------------------------------------------------------
      1          8           0        0.026728    1.796888    0.000000
      2          1           0        0.023438    0.814292    0.000000
      3          1           0       -0.901693    2.118665    0.000000
      4          8           0        0.026728   -1.623707   -0.000000
      5          1           0        0.974992   -1.881199   -0.000000
      6          1           0       -0.524378   -2.437211   -0.000000
 ---------------------------------------------------------------------

 SCF Done:  E(RHF) =  -152.113112356     A.U. after   10 cycles
 E2 =    -0.5266770932D+00 EUMP2 =    -0.15263978944937D+03
 CCSD(T)
 CCSD(T)= -0.15266682626D+03

 The electronic state is 1-A'.
 Alpha  occ. eigenvalues --  -20.57602 -20.53452  -1.34873  -1.30843  -0.72267
 Alpha  occ. eigenvalues --   -0.68335  -0.58639  -0.54261  -0.52007  -0.48001
 Alpha virt. eigenvalues --    0.12198   0.17337   0.19079   0.27583   0.51451
 Alpha virt. eigenvalues --    0.54357   0.56072   0.59531   0.69016   0.72945
 Alpha virt. eigenvalues --    0.75272   0.77498   0.81021   0.83234   0.84442

 Mulliken charges:
               1
     1  O   -0.536642
     2  H    0.271400
     3  H    0.251301
     4  O   -0.507667
     5  H    0.263125
     6  H    0.258483
 Sum of Mulliken charges =  -0.00000

 Dipole moment (field-independent basis, Debye):
    X=             -0.9047    Y=             -3.3192    Z=             -0.0000  Tot=              3.4403
 Quadrupole moment (field-independent basis, Debye-Ang):
   XX=             -9.2896   YY=             -8.1812   ZZ=            -14.7320
   XY=             -4.3732   XZ=             -0.0000   YZ=             -0.0000

 Normal termination of Gaussian 16 at Sun Aug 28 01:10:58 2022.
