 Gaussian 16, Revision A.03,
 Gaussian 16:  ES64L-G16RevA.03 25-Dec-2016

 ------------------
 #p CCSD(T)/cc-pVTZ
 ------------------

 ------------
 H2O_H2O_2260
 ------------
 Symbolic Z-matrix:
 Charge =  0 Multiplicity = 1

                         Standard orientation:
 ---------------------------------------------------------------------
 Center     Atomic      Atomic             Coordinates (Angstroms)
 Number     Number       Type             X           Y           Z
 ---------------------------------------------------------------------
      1          8           0        0.063254    2.007540    0.000000
      2          1           0        0.061940    1.024939    0.000000
      3          1           0       -0.865812    2.327449    0.000000
      4          8           0        0.063254   -1.832058   -0.000000
      5          1           0        0.660382   -2.612407   -0.000000
      6          1           0       -0.868572   -2.143836   -0.000000
 ---------------------------------------------------------------------

 SCF Done:  E(RHF) =  -152.111087276     A.U. after   10 cycles
 E2 =    -0.5262726385D+00 EUMP2 =    -0.15263735991436D+03
 CCSD(T)
 CCSD(T)= -0.15266445466D+03

 The electronic state is 1-A'.
 Alpha  occ. eigenvalues --  -20.57128 -20.54052  -1.34388  -1.31389  -0.71790
 Alpha  occ. eigenvalues --   -0.68781  -0.57996  -0.54857  -0.51520  -0.48529
 Alpha virt. eigenvalues --    0.12153   0.16558   0.19331   0.24934   0.52340
 Alpha virt. eigenvalues --    0.55670   0.56061   0.58811   0.68904   0.71653
 Alpha virt. eigenvalues --    0.76936   0.78423   0.80357   0.82769   0.83548

 Mulliken charges:
               1
     1  O   -0.523220
     2  H    0.267356
     3  H    0.247979
     4  O   -0.507882
     5  H    0.260563
     6  H    0.255204
 Sum of Mulliken charges =  -0.00000

 Dipole moment (field-independent basis, Debye):
    X=             -2.1437    Y=             -3.2517    Z=             -0.0000  Tot=              3.8948
 Quadrupole moment (field-independent basis, Debye-Ang):
   XX=             -9.4640   YY=             -7.8016   ZZ=            -14.7237
   XY=             -3.7425   XZ=             -0.0000   YZ=             -0.0000

 Normal termination of Gaussian 16 at Sun Aug 28 05:50:21 2022.
