 Gaussian 16, Revision A.03,
 Gaussian 16:  ES64L-G16RevA.03 25-Dec-2016

 ------------------
 #p CCSD(T)/cc-pVTZ
 ------------------

 ------------
 H2O_H2O_3655
 ------------
 Symbolic Z-matrix:
 Charge =  0 Multiplicity = 1

                         Standard orientation:
 ---------------------------------------------------------------------
 Center     Atomic      Atomic             Coordinates (Angstroms)
 Number     Number       Type             X           Y           Z
 ---------------------------------------------------------------------
      1          8           0        0.079848    2.557049    0.000000
      2          1           0        0.079400    1.574448    0.000000
      3          1           0       -0.849499    2.876140    0.000000
      4          8           0        0.079848   -2.397981   -0.000000
      5          1           0        0.395271   -3.328580   -0.000000
      6          1           0       -0.902747   -2.394553   -0.000000
 ---------------------------------------------------------------------

 SCF Done:  E(RHF) =  -152.108374728     A.U. after   10 cycles
 E2 =    -0.5258984936D+00 EUMP2 =    -0.15263427322199D+03
 CCSD(T)
 CCSD(T)= -0.15266146156D+03

 The electronic state is 1-A'.
 Alpha  occ. eigenvalues --  -20.56401 -20.54963  -1.33697  -1.32270  -0.71111
 Alpha  occ. eigenvalues --   -0.69662  -0.57182  -0.55734  -0.50813  -0.49390
 Alpha virt. eigenvalues --    0.12445   0.15286   0.19301   0.21863   0.53280
 Alpha virt. eigenvalues --    0.55058   0.56461   0.58002   0.66820   0.69103
 Alpha virt. eigenvalues --    0.78090   0.78751   0.79467   0.80756   0.82714

 Mulliken charges:
               1
     1  O   -0.512417
     2  H    0.260547
     3  H    0.251140
     4  O   -0.512720
     5  H    0.259678
     6  H    0.253772
 Sum of Mulliken charges =  -0.00000

 Dipole moment (field-independent basis, Debye):
    X=             -2.7300    Y=             -2.8205    Z=             -0.0000  Tot=              3.9253
 Quadrupole moment (field-independent basis, Debye-Ang):
   XX=            -10.0977   YY=             -7.7941   ZZ=            -14.7145
   XY=             -3.2992   XZ=             -0.0000   YZ=              0.0000

 Normal termination of Gaussian 16 at Fri Aug 26 22:54:59 2022.
