 Gaussian 16, Revision A.03,
 Gaussian 16:  ES64L-G16RevA.03 25-Dec-2016

 ------------------
 #p CCSD(T)/cc-pVTZ
 ------------------

 -----------
 H2O_H2O_820
 -----------
 Symbolic Z-matrix:
 Charge =  0 Multiplicity = 1

                         Standard orientation:
 ---------------------------------------------------------------------
 Center     Atomic      Atomic             Coordinates (Angstroms)
 Number     Number       Type             X           Y           Z
 ---------------------------------------------------------------------
      1          8           0        0.026807    1.427905   -0.000000
      2          1           0        0.022613    0.445312   -0.000000
      3          1           0       -0.901317    1.750536   -0.000000
      4          8           0        0.026807   -1.254772    0.000000
      5          1           0        0.974833   -1.513138    0.000000
      6          1           0       -0.525047   -2.067769    0.000000
 ---------------------------------------------------------------------

 SCF Done:  E(RHF) =  -152.110678590     A.U. after   10 cycles
 E2 =    -0.5295188463D+00 EUMP2 =    -0.15264019743664D+03
 CCSD(T)
 CCSD(T)= -0.15266691827D+03

 The electronic state is 1-A'.
 Alpha  occ. eigenvalues --  -20.59217 -20.50882  -1.36981  -1.28775  -0.74321
 Alpha  occ. eigenvalues --   -0.68417  -0.59826  -0.53926  -0.51509  -0.45856
 Alpha virt. eigenvalues --    0.11780   0.18375   0.18900   0.32961   0.48180
 Alpha virt. eigenvalues --    0.54391   0.57179   0.64624   0.68254   0.72424
 Alpha virt. eigenvalues --    0.73008   0.77357   0.81292   0.83243   0.84262

 Mulliken charges:
               1
     1  O   -0.586961
     2  H    0.300573
     3  H    0.243115
     4  O   -0.466813
     5  H    0.263158
     6  H    0.246927
 Sum of Mulliken charges =  -0.00000

 Dipole moment (field-independent basis, Debye):
    X=             -0.8840    Y=             -3.8055    Z=              0.0000  Tot=              3.9068
 Quadrupole moment (field-independent basis, Debye-Ang):
   XX=             -9.2696   YY=             -8.9933   ZZ=            -14.7093
   XY=             -3.4976   XZ=              0.0000   YZ=              0.0000

 Normal termination of Gaussian 16 at Fri Aug 26 20:42:59 2022.
