 Gaussian 16, Revision A.03,
 Gaussian 16:  ES64L-G16RevA.03 25-Dec-2016

 ------------------
 #p CCSD(T)/cc-pVTZ
 ------------------

 -----------
 H2O_H2O_638
 -----------
 Symbolic Z-matrix:
 Charge =  0 Multiplicity = 1

                         Standard orientation:
 ---------------------------------------------------------------------
 Center     Atomic      Atomic             Coordinates (Angstroms)
 Number     Number       Type             X           Y           Z
 ---------------------------------------------------------------------
      1          8           0        0.052407    1.361698   -0.000000
      2          1           0        0.049694    0.379100   -0.000000
      3          1           0       -0.876202    1.682929   -0.000000
      4          8           0        0.052407   -1.181934    0.000000
      5          1           0        0.789375   -1.831845    0.000000
      6          1           0       -0.801382   -1.668297    0.000000
 ---------------------------------------------------------------------

 SCF Done:  E(RHF) =  -152.106279435     A.U. after   11 cycles
 E2 =    -0.5307287065D+00 EUMP2 =    -0.15263700814145D+03
 CCSD(T)
 CCSD(T)= -0.15266354900D+03

 The electronic state is 1-A'.
 Alpha  occ. eigenvalues --  -20.59799 -20.49734  -1.37870  -1.27922  -0.74724
 Alpha  occ. eigenvalues --   -0.69968  -0.59087  -0.54684  -0.50352  -0.44924
 Alpha virt. eigenvalues --    0.11416   0.17631   0.19630   0.33289   0.47695
 Alpha virt. eigenvalues --    0.53931   0.60479   0.61896   0.70395   0.72344
 Alpha virt. eigenvalues --    0.72722   0.78243   0.81539   0.82805   0.84315

 Mulliken charges:
               1
     1  O   -0.598916
     2  H    0.313006
     3  H    0.229384
     4  O   -0.455939
     5  H    0.260326
     6  H    0.252140
 Sum of Mulliken charges =  -0.00000

 Dipole moment (field-independent basis, Debye):
    X=             -1.6906    Y=             -4.1255    Z=              0.0000  Tot=              4.4584
 Quadrupole moment (field-independent basis, Debye-Ang):
   XX=             -9.2170   YY=             -9.2287   ZZ=            -14.6932
   XY=             -3.1099   XZ=              0.0000   YZ=             -0.0000

 Normal termination of Gaussian 16 at Fri Aug 26 19:33:33 2022.
