 Gaussian 16, Revision A.03,
 Gaussian 16:  ES64L-G16RevA.03 25-Dec-2016

 ------------------
 #p CCSD(T)/cc-pVTZ
 ------------------

 ------------
 H2O_H2O_1658
 ------------
 Symbolic Z-matrix:
 Charge =  0 Multiplicity = 1

                         Standard orientation:
 ---------------------------------------------------------------------
 Center     Atomic      Atomic             Coordinates (Angstroms)
 Number     Number       Type             X           Y           Z
 ---------------------------------------------------------------------
      1          8           0        0.070224    1.765346    0.000000
      2          1           0        0.069075    0.782745    0.000000
      3          1           0       -0.858896    2.085099    0.000000
      4          8           0        0.070224   -1.595143   -0.000000
      5          1           0        0.560530   -2.446675   -0.000000
      6          1           0       -0.894294   -1.782789   -0.000000
 ---------------------------------------------------------------------

 SCF Done:  E(RHF) =  -152.112252311     A.U. after   10 cycles
 E2 =    -0.5269641964D+00 EUMP2 =    -0.15263921650724D+03
 CCSD(T)
 CCSD(T)= -0.15266625705D+03

 The electronic state is 1-A'.
 Alpha  occ. eigenvalues --  -20.57727 -20.53539  -1.35009  -1.30926  -0.72429
 Alpha  occ. eigenvalues --   -0.68397  -0.58708  -0.54316  -0.52127  -0.48063
 Alpha virt. eigenvalues --    0.11913   0.16936   0.19398   0.27701   0.50153
 Alpha virt. eigenvalues --    0.55266   0.56571   0.58643   0.69431   0.73261
 Alpha virt. eigenvalues --    0.74928   0.77232   0.81014   0.83047   0.84125

 Mulliken charges:
               1
     1  O   -0.530402
     2  H    0.273114
     3  H    0.243490
     4  O   -0.501280
     5  H    0.260703
     6  H    0.254375
 Sum of Mulliken charges =  -0.00000

 Dipole moment (field-independent basis, Debye):
    X=             -2.3587    Y=             -3.2809    Z=             -0.0000  Tot=              4.0408
 Quadrupole moment (field-independent basis, Debye-Ang):
   XX=             -9.7038   YY=             -8.2864   ZZ=            -14.7284
   XY=             -3.2894   XZ=              0.0000   YZ=              0.0000

 Normal termination of Gaussian 16 at Sun Aug 28 00:23:30 2022.
