 Gaussian 16, Revision A.03,
 Gaussian 16:  ES64L-G16RevA.03 25-Dec-2016

 ------------------
 #p CCSD(T)/cc-pVTZ
 ------------------

 ------------
 H2O_H2O_2646
 ------------
 Symbolic Z-matrix:
 Charge =  0 Multiplicity = 1

                         Standard orientation:
 ---------------------------------------------------------------------
 Center     Atomic      Atomic             Coordinates (Angstroms)
 Number     Number       Type             X           Y           Z
 ---------------------------------------------------------------------
      1          8           0       -0.023231    2.154351    0.000000
      2          1           0       -0.020370    1.171754    0.000000
      3          1           0        0.905331    2.475722    0.000000
      4          8           0       -0.023231   -1.983976    0.000000
      5          1           0       -0.986390   -2.178477    0.000000
      6          1           0        0.473118   -2.831999    0.000000
 ---------------------------------------------------------------------

 SCF Done:  E(RHF) =  -152.110569327     A.U. after   10 cycles
 E2 =    -0.5260188191D+00 EUMP2 =    -0.15263658814653D+03
 CCSD(T)
 CCSD(T)= -0.15266370802D+03

 The electronic state is 1-A'.
 Alpha  occ. eigenvalues --  -20.56825 -20.54347  -1.34099  -1.31674  -0.71503
 Alpha  occ. eigenvalues --   -0.69080  -0.57675  -0.55166  -0.51232  -0.48818
 Alpha virt. eigenvalues --    0.12308   0.16273   0.19295   0.23830   0.53500
 Alpha virt. eigenvalues --    0.55572   0.56371   0.58573   0.68910   0.70031
 Alpha virt. eigenvalues --    0.77555   0.79110   0.80025   0.80560   0.83461

 Mulliken charges:
               1
     1  O   -0.523192
     2  H    0.265052
     3  H    0.253521
     4  O   -0.513227
     5  H    0.259757
     6  H    0.258090
 Sum of Mulliken charges =  -0.00000

 Dipole moment (field-independent basis, Debye):
    X=              0.7934    Y=             -3.1021    Z=              0.0000  Tot=              3.2019
 Quadrupole moment (field-independent basis, Debye-Ang):
   XX=             -9.3614   YY=             -7.7267   ZZ=            -14.7219
   XY=              5.3422   XZ=              0.0000   YZ=              0.0000

 Normal termination of Gaussian 16 at Fri Aug 26 16:16:30 2022.
