 Gaussian 16, Revision A.03,
 Gaussian 16:  ES64L-G16RevA.03 25-Dec-2016

 ------------------
 #p CCSD(T)/cc-pVTZ
 ------------------

 ------------
 H2O_H2O_4855
 ------------
 Symbolic Z-matrix:
 Charge =  0 Multiplicity = 1

                         Standard orientation:
 ---------------------------------------------------------------------
 Center     Atomic      Atomic             Coordinates (Angstroms)
 Number     Number       Type             X           Y           Z
 ---------------------------------------------------------------------
      1          8           0        0.079843    3.035708    0.000000
      2          1           0        0.079466    2.053106    0.000000
      3          1           0       -0.849528    3.354730    0.000000
      4          8           0        0.079843   -2.876628   -0.000000
      5          1           0        0.395334   -3.807204   -0.000000
      6          1           0       -0.902753   -2.873272   -0.000000
 ---------------------------------------------------------------------

 SCF Done:  E(RHF) =  -152.107898274     A.U. after   10 cycles
 E2 =    -0.5258412842D+00 EUMP2 =    -0.15263373955780D+03
 CCSD(T)
 CCSD(T)= -0.15266094913D+03

 The electronic state is 1-A'.
 Alpha  occ. eigenvalues --  -20.56142 -20.55185  -1.33444  -1.32488  -0.70853
 Alpha  occ. eigenvalues --   -0.69887  -0.56914  -0.55947  -0.50558  -0.49605
 Alpha virt. eigenvalues --    0.13337   0.14663   0.19456   0.20998   0.53554
 Alpha virt. eigenvalues --    0.54763   0.56653   0.57664   0.67057   0.68421
 Alpha virt. eigenvalues --    0.78329   0.79263   0.79692   0.80770   0.81924

 Mulliken charges:
               1
     1  O   -0.511099
     2  H    0.258451
     3  H    0.252613
     4  O   -0.511957
     5  H    0.257938
     6  H    0.254053
 Sum of Mulliken charges =  -0.00000

 Dipole moment (field-independent basis, Debye):
    X=             -2.7403    Y=             -2.7846    Z=             -0.0000  Tot=              3.9069
 Quadrupole moment (field-independent basis, Debye-Ang):
   XX=            -10.0929   YY=             -7.3814   ZZ=            -14.7130
   XY=             -3.5208   XZ=             -0.0000   YZ=              0.0000

 Normal termination of Gaussian 16 at Sun Aug 28 06:24:14 2022.
