 Gaussian 16, Revision A.03,
 Gaussian 16:  ES64L-G16RevA.03 25-Dec-2016

 ------------------
 #p CCSD(T)/cc-pVTZ
 ------------------

 ------------
 H2O_H2O_2539
 ------------
 Symbolic Z-matrix:
 Charge =  0 Multiplicity = 1

                         Standard orientation:
 ---------------------------------------------------------------------
 Center     Atomic      Atomic             Coordinates (Angstroms)
 Number     Number       Type             X           Y           Z
 ---------------------------------------------------------------------
      1          8           0        0.048600    2.119888    0.000000
      2          1           0        0.046745    1.137288    0.000000
      3          1           0       -0.880289    2.440309    0.000000
      4          8           0        0.048600   -1.939518   -0.000000
      5          1           0        0.827020   -2.539159   -0.000000
      6          1           0       -0.771079   -2.481395   -0.000000
 ---------------------------------------------------------------------

 SCF Done:  E(RHF) =  -152.110809386     A.U. after   10 cycles
 E2 =    -0.5260821828D+00 EUMP2 =    -0.15263689156902D+03
 CCSD(T)
 CCSD(T)= -0.15266400159D+03

 The electronic state is 1-A'.
 Alpha  occ. eigenvalues --  -20.56921 -20.54150  -1.34184  -1.31481  -0.71579
 Alpha  occ. eigenvalues --   -0.68875  -0.57774  -0.54967  -0.51319  -0.48623
 Alpha virt. eigenvalues --    0.12349   0.16397   0.19339   0.23997   0.52699
 Alpha virt. eigenvalues --    0.55598   0.56284   0.58993   0.69045   0.70506
 Alpha virt. eigenvalues --    0.77424   0.78720   0.80215   0.80651   0.83657

 Mulliken charges:
               1
     1  O   -0.522745
     2  H    0.266476
     3  H    0.250435
     4  O   -0.511361
     5  H    0.260517
     6  H    0.256678
 Sum of Mulliken charges =  -0.00000

 Dipole moment (field-independent basis, Debye):
    X=             -1.6518    Y=             -3.3023    Z=             -0.0000  Tot=              3.6924
 Quadrupole moment (field-independent basis, Debye-Ang):
   XX=             -9.1840   YY=             -7.4881   ZZ=            -14.7228
   XY=             -4.3644   XZ=             -0.0000   YZ=              0.0000

 Normal termination of Gaussian 16 at Fri Aug 26 15:28:03 2022.
