 Gaussian 16, Revision A.03,
 Gaussian 16:  ES64L-G16RevA.03 25-Dec-2016

 ------------------
 #p CCSD(T)/cc-pVTZ
 ------------------

 ------------
 H2O_H2O_3289
 ------------
 Symbolic Z-matrix:
 Charge =  0 Multiplicity = 1

                         Standard orientation:
 ---------------------------------------------------------------------
 Center     Atomic      Atomic             Coordinates (Angstroms)
 Number     Number       Type             X           Y           Z
 ---------------------------------------------------------------------
      1          8           0        0.048578    2.419057   -0.000000
      2          1           0        0.046961    1.436457   -0.000000
      3          1           0       -0.880389    2.739253    0.000000
      4          8           0        0.048578   -2.238664   -0.000000
      5          1           0        0.827143   -2.838116   -0.000000
      6          1           0       -0.770970   -2.780740    0.000000
 ---------------------------------------------------------------------

 SCF Done:  E(RHF) =  -152.109450941     A.U. after   10 cycles
 E2 =    -0.5258878759D+00 EUMP2 =    -0.15263533881675D+03
 CCSD(T)
 CCSD(T)= -0.15266249614D+03

 The electronic state is 1-A'.
 Alpha  occ. eigenvalues --  -20.56523 -20.54565  -1.33808  -1.31882  -0.71210
 Alpha  occ. eigenvalues --   -0.69277  -0.57337  -0.55366  -0.50935  -0.49014
 Alpha virt. eigenvalues --    0.12647   0.15700   0.19521   0.22113   0.53329
 Alpha virt. eigenvalues --    0.55225   0.56428   0.58228   0.67442   0.69358
 Alpha virt. eigenvalues --    0.77971   0.79066   0.79363   0.79819   0.83127

 Mulliken charges:
               1
     1  O   -0.517505
     2  H    0.263538
     3  H    0.252058
     4  O   -0.515078
     5  H    0.259929
     6  H    0.257058
 Sum of Mulliken charges =  -0.00000

 Dipole moment (field-independent basis, Debye):
    X=             -1.6587    Y=             -3.2255    Z=              0.0000  Tot=              3.6270
 Quadrupole moment (field-independent basis, Debye-Ang):
   XX=             -9.1826   YY=             -6.9977   ZZ=            -14.7185
   XY=             -4.8251   XZ=              0.0000   YZ=              0.0000

 Normal termination of Gaussian 16 at Fri Aug 26 20:51:10 2022.
