 Gaussian 16, Revision A.03,
 Gaussian 16:  ES64L-G16RevA.03 25-Dec-2016

 ------------------
 #p CCSD(T)/cc-pVTZ
 ------------------

 ------------
 H2O_H2O_1979
 ------------
 Symbolic Z-matrix:
 Charge =  0 Multiplicity = 1

                         Standard orientation:
 ---------------------------------------------------------------------
 Center     Atomic      Atomic             Coordinates (Angstroms)
 Number     Number       Type             X           Y           Z
 ---------------------------------------------------------------------
      1          8           0        0.082811   -1.886450    0.000000
      2          1           0        0.082335   -0.903849    0.000000
      3          1           0       -0.846527   -2.205566    0.000000
      4          8           0        0.082811    1.731948    0.000000
      5          1           0        0.336667    2.681192    0.000000
      6          1           0       -0.897454    1.664235    0.000000
 ---------------------------------------------------------------------

 SCF Done:  E(RHF) =  -152.110321911     A.U. after   10 cycles
 E2 =    -0.5266356009D+00 EUMP2 =    -0.15263695751225D+03
 CCSD(T)
 CCSD(T)= -0.15266405584D+03

 The electronic state is 1-A'.
 Alpha  occ. eigenvalues --  -20.57349 -20.54310  -1.34631  -1.31642  -0.72100
 Alpha  occ. eigenvalues --   -0.69005  -0.58200  -0.55075  -0.51741  -0.48768
 Alpha virt. eigenvalues --    0.11746   0.16389   0.19745   0.25778   0.51680
 Alpha virt. eigenvalues --    0.55667   0.56605   0.57858   0.68769   0.73376
 Alpha virt. eigenvalues --    0.76089   0.78641   0.80279   0.83092   0.83195

 Mulliken charges:
               1
     1  O   -0.520089
     2  H    0.267334
     3  H    0.244701
     4  O   -0.501560
     5  H    0.258913
     6  H    0.250702
 Sum of Mulliken charges =  -0.00000

 Dipole moment (field-independent basis, Debye):
    X=             -2.7936    Y=              2.8992    Z=              0.0000  Tot=              4.0261
 Quadrupole moment (field-independent basis, Debye-Ang):
   XX=            -10.2752   YY=             -8.4865   ZZ=            -14.7205
   XY=              2.8325   XZ=              0.0000   YZ=              0.0000

 Normal termination of Gaussian 16 at Sun Aug 28 03:18:04 2022.
