 Gaussian 16, Revision A.03,
 Gaussian 16:  ES64L-G16RevA.03 25-Dec-2016

 ------------------
 #p CCSD(T)/cc-pVTZ
 ------------------

 ------------
 H2O_H2O_4528
 ------------
 Symbolic Z-matrix:
 Charge =  0 Multiplicity = 1

                         Standard orientation:
 ---------------------------------------------------------------------
 Center     Atomic      Atomic             Coordinates (Angstroms)
 Number     Number       Type             X           Y           Z
 ---------------------------------------------------------------------
      1          8           0        0.085597   -2.900927    0.000000
      2          1           0        0.085376   -1.918325    0.000000
      3          1           0       -0.843825   -3.219802    0.000000
      4          8           0        0.085597    2.751320    0.000000
      5          1           0        0.277077    3.715085    0.000000
      6          1           0       -0.888176    2.619893    0.000000
 ---------------------------------------------------------------------

 SCF Done:  E(RHF) =  -152.107843200     A.U. after   10 cycles
 E2 =    -0.5258578220D+00 EUMP2 =    -0.15263370102246D+03
 CCSD(T)
 CCSD(T)= -0.15266091074D+03

 The electronic state is 1-A'.
 Alpha  occ. eigenvalues --  -20.56199 -20.55216  -1.33501  -1.32519  -0.70913
 Alpha  occ. eigenvalues --   -0.69916  -0.56968  -0.55975  -0.50613  -0.49634
 Alpha virt. eigenvalues --    0.13009   0.14763   0.19195   0.21344   0.53342
 Alpha virt. eigenvalues --    0.54841   0.56582   0.57710   0.66911   0.68533
 Alpha virt. eigenvalues --    0.78277   0.79235   0.79571   0.81019   0.81970

 Mulliken charges:
               1
     1  O   -0.510623
     2  H    0.258321
     3  H    0.252226
     4  O   -0.511631
     5  H    0.258335
     6  H    0.253371
 Sum of Mulliken charges =   0.00000

 Dipole moment (field-independent basis, Debye):
    X=             -2.9355    Y=              2.6247    Z=              0.0000  Tot=              3.9378
 Quadrupole moment (field-independent basis, Debye-Ang):
   XX=            -10.3970   YY=             -8.1167   ZZ=            -14.7126
   XY=              2.9447   XZ=              0.0000   YZ=              0.0000

 Normal termination of Gaussian 16 at Sun Aug 28 03:38:50 2022.
