 Gaussian 16, Revision A.03,
 Gaussian 16:  ES64L-G16RevA.03 25-Dec-2016

 ------------------
 #p CCSD(T)/cc-pVTZ
 ------------------

 ------------
 H2O_H2O_1499
 ------------
 Symbolic Z-matrix:
 Charge =  0 Multiplicity = 1

                         Standard orientation:
 ---------------------------------------------------------------------
 Center     Atomic      Atomic             Coordinates (Angstroms)
 Number     Number       Type             X           Y           Z
 ---------------------------------------------------------------------
      1          8           0        0.013617   -1.689594    0.000000
      2          1           0        0.009431   -0.707001    0.000000
      3          1           0       -0.914510   -2.012217    0.000000
      4          8           0        0.013617    1.530365    0.000000
      5          1           0        0.996210    1.534552    0.000000
      6          1           0       -0.309007    2.458493    0.000000
 ---------------------------------------------------------------------

 SCF Done:  E(RHF) =  -152.112901597     A.U. after   10 cycles
 E2 =    -0.5271089386D+00 EUMP2 =    -0.15264001053581D+03
 CCSD(T)
 CCSD(T)= -0.15266703079D+03

 The electronic state is 1-A'.
 Alpha  occ. eigenvalues --  -20.57858 -20.53396  -1.35193  -1.30826  -0.72709
 Alpha  occ. eigenvalues --   -0.68330  -0.58983  -0.54168  -0.52298  -0.47978
 Alpha virt. eigenvalues --    0.12154   0.17468   0.19208   0.28937   0.50880
 Alpha virt. eigenvalues --    0.54476   0.55626   0.60689   0.68776   0.74135
 Alpha virt. eigenvalues --    0.74278   0.77181   0.81225   0.82681   0.84259

 Mulliken charges:
               1
     1  O   -0.543873
     2  H    0.274062
     3  H    0.253960
     4  O   -0.498373
     5  H    0.262550
     6  H    0.251674
 Sum of Mulliken charges =  -0.00000

 Dipole moment (field-independent basis, Debye):
    X=             -0.4699    Y=              3.1213    Z=              0.0000  Tot=              3.1564
 Quadrupole moment (field-independent basis, Debye-Ang):
   XX=             -9.6484   YY=             -8.5708   ZZ=            -14.7283
   XY=              4.5435   XZ=              0.0000   YZ=              0.0000

 Normal termination of Gaussian 16 at Sat Aug 27 00:57:22 2022.
