 Gaussian 16, Revision A.03,
 Gaussian 16:  ES64L-G16RevA.03 25-Dec-2016

 ------------------
 #p CCSD(T)/cc-pVTZ
 ------------------

 ------------
 H2O_H2O_4540
 ------------
 Symbolic Z-matrix:
 Charge =  0 Multiplicity = 1

                         Standard orientation:
 ---------------------------------------------------------------------
 Center     Atomic      Atomic             Coordinates (Angstroms)
 Number     Number       Type             X           Y           Z
 ---------------------------------------------------------------------
      1          8           0        0.044825    2.917674   -0.000000
      2          1           0        0.043381    1.935074   -0.000000
      3          1           0       -0.884199    3.237706   -0.000000
      4          8           0        0.044825   -2.737241    0.000000
      5          1           0        0.861026   -3.284345    0.000000
      6          1           0       -0.737410   -3.331895    0.000000
 ---------------------------------------------------------------------

 SCF Done:  E(RHF) =  -152.108421932     A.U. after   10 cycles
 E2 =    -0.5258061665D+00 EUMP2 =    -0.15263422809880D+03
 CCSD(T)
 CCSD(T)= -0.15266142538D+03

 The electronic state is 1-A'.
 Alpha  occ. eigenvalues --  -20.56178 -20.54948  -1.33479  -1.32255  -0.70883
 Alpha  occ. eigenvalues --   -0.69657  -0.56973  -0.55727  -0.50598  -0.49378
 Alpha virt. eigenvalues --    0.13387   0.14923   0.19708   0.21031   0.53668
 Alpha virt. eigenvalues --    0.54847   0.56672   0.57799   0.66853   0.68738
 Alpha virt. eigenvalues --    0.78288   0.79477   0.79693   0.80146   0.82659

 Mulliken charges:
               1
     1  O   -0.513946
     2  H    0.260404
     3  H    0.253424
     4  O   -0.514658
     5  H    0.258166
     6  H    0.256610
 Sum of Mulliken charges =  -0.00000

 Dipole moment (field-independent basis, Debye):
    X=             -1.5375    Y=             -3.1663    Z=              0.0000  Tot=              3.5198
 Quadrupole moment (field-independent basis, Debye-Ang):
   XX=             -9.1569   YY=             -6.1889   ZZ=            -14.7148
   XY=             -5.8142   XZ=              0.0000   YZ=             -0.0000

 Normal termination of Gaussian 16 at Sun Aug 28 03:43:08 2022.
