 Gaussian 16, Revision A.03,
 Gaussian 16:  ES64L-G16RevA.03 25-Dec-2016

 ------------------
 #p CCSD(T)/cc-pVTZ
 ------------------

 ------------
 H2O_H2O_1657
 ------------
 Symbolic Z-matrix:
 Charge =  0 Multiplicity = 1

                         Standard orientation:
 ---------------------------------------------------------------------
 Center     Atomic      Atomic             Coordinates (Angstroms)
 Number     Number       Type             X           Y           Z
 ---------------------------------------------------------------------
      1          8           0        0.073557    1.763553    0.000000
      2          1           0        0.072577    0.780952    0.000000
      3          1           0       -0.855617    2.083147   -0.000000
      4          8           0        0.073557   -1.596649    0.000000
      5          1           0        0.507271   -2.478351    0.000000
      6          1           0       -0.901147   -1.720978   -0.000000
 ---------------------------------------------------------------------

 SCF Done:  E(RHF) =  -152.111949050     A.U. after   10 cycles
 E2 =    -0.5269923134D+00 EUMP2 =    -0.15263894136346D+03
 CCSD(T)
 CCSD(T)= -0.15266598715D+03

 The electronic state is 1-A'.
 Alpha  occ. eigenvalues --  -20.57721 -20.53636  -1.35008  -1.31018  -0.72448
 Alpha  occ. eigenvalues --   -0.68469  -0.58686  -0.54407  -0.52122  -0.48151
 Alpha virt. eigenvalues --    0.11867   0.16843   0.19490   0.27613   0.50175
 Alpha virt. eigenvalues --    0.55303   0.56698   0.58501   0.69408   0.73555
 Alpha virt. eigenvalues --    0.74904   0.77355   0.80949   0.82998   0.84005

 Mulliken charges:
               1
     1  O   -0.529152
     2  H    0.272815
     3  H    0.243066
     4  O   -0.499737
     5  H    0.259512
     6  H    0.253496
 Sum of Mulliken charges =  -0.00000

 Dipole moment (field-independent basis, Debye):
    X=             -2.4701    Y=             -3.2160    Z=             -0.0000  Tot=              4.0551
 Quadrupole moment (field-independent basis, Debye-Ang):
   XX=             -9.8375   YY=             -8.3444   ZZ=            -14.7269
   XY=             -3.1762   XZ=              0.0000   YZ=             -0.0000

 Normal termination of Gaussian 16 at Sun Aug 28 00:23:09 2022.
