 Gaussian 16, Revision A.03,
 Gaussian 16:  ES64L-G16RevA.03 25-Dec-2016

 ------------------
 #p CCSD(T)/cc-pVTZ
 ------------------

 ------------
 H2O_H2O_1220
 ------------
 Symbolic Z-matrix:
 Charge =  0 Multiplicity = 1

                         Standard orientation:
 ---------------------------------------------------------------------
 Center     Atomic      Atomic             Coordinates (Angstroms)
 Number     Number       Type             X           Y           Z
 ---------------------------------------------------------------------
      1          8           0        0.026768    1.587466    0.000000
      2          1           0        0.023020    0.604872    0.000000
      3          1           0       -0.901503    1.909676   -0.000000
      4          8           0        0.026768   -1.414310    0.000000
      5          1           0        0.974912   -1.672245    0.000000
      6          1           0       -0.524717   -2.227556   -0.000000
 ---------------------------------------------------------------------

 SCF Done:  E(RHF) =  -152.113929647     A.U. after   10 cycles
 E2 =    -0.5277999501D+00 EUMP2 =    -0.15264172959742D+03
 CCSD(T)
 CCSD(T)= -0.15266866188D+03

 The electronic state is 1-A'.
 Alpha  occ. eigenvalues --  -20.58361 -20.52393  -1.35753  -1.29945  -0.73133
 Alpha  occ. eigenvalues --   -0.67921  -0.59544  -0.53131  -0.52846  -0.47087
 Alpha virt. eigenvalues --    0.12045   0.18112   0.18794   0.30732   0.49510
 Alpha virt. eigenvalues --    0.54563   0.55845   0.61648   0.68568   0.72921
 Alpha virt. eigenvalues --    0.73238   0.77065   0.82031   0.82547   0.84565

 Mulliken charges:
               1
     1  O   -0.557446
     2  H    0.285471
     3  H    0.248427
     4  O   -0.494524
     5  H    0.264971
     6  H    0.253101
 Sum of Mulliken charges =  -0.00000

 Dipole moment (field-independent basis, Debye):
    X=             -0.8965    Y=             -3.5224    Z=              0.0000  Tot=              3.6347
 Quadrupole moment (field-independent basis, Debye-Ang):
   XX=             -9.2842   YY=             -8.5857   ZZ=            -14.7307
   XY=             -3.8821   XZ=              0.0000   YZ=              0.0000

 Normal termination of Gaussian 16 at Fri Aug 26 23:12:28 2022.
