 Gaussian 16, Revision A.03,
 Gaussian 16:  ES64L-G16RevA.03 25-Dec-2016

 ------------------
 #p CCSD(T)/cc-pVTZ
 ------------------

 ------------
 H2O_H2O_1913
 ------------
 Symbolic Z-matrix:
 Charge =  0 Multiplicity = 1

                         Standard orientation:
 ---------------------------------------------------------------------
 Center     Atomic      Atomic             Coordinates (Angstroms)
 Number     Number       Type             X           Y           Z
 ---------------------------------------------------------------------
      1          8           0        0.052336    1.870306    0.000000
      2          1           0        0.050398    0.887707    0.000000
      3          1           0       -0.876526    2.190805   -0.000000
      4          8           0        0.052336   -1.690459    0.000000
      5          1           0        0.789816   -2.339790    0.000000
      6          1           0       -0.801070   -2.177496   -0.000000
 ---------------------------------------------------------------------

 SCF Done:  E(RHF) =  -152.112506850     A.U. after   10 cycles
 E2 =    -0.5265264747D+00 EUMP2 =    -0.15263903332428D+03
 CCSD(T)
 CCSD(T)= -0.15266608889D+03

 The electronic state is 1-A'.
 Alpha  occ. eigenvalues --  -20.57453 -20.53585  -1.34704  -1.30953  -0.72083
 Alpha  occ. eigenvalues --   -0.68396  -0.58415  -0.54397  -0.51843  -0.48103
 Alpha virt. eigenvalues --    0.12161   0.17052   0.19160   0.26659   0.51213
 Alpha virt. eigenvalues --    0.55044   0.56351   0.58993   0.69051   0.72392
 Alpha virt. eigenvalues --    0.75949   0.77368   0.80841   0.83361   0.84345

 Mulliken charges:
               1
     1  O   -0.530313
     2  H    0.270408
     3  H    0.247624
     4  O   -0.507266
     5  H    0.262572
     6  H    0.256975
 Sum of Mulliken charges =  -0.00000

 Dipole moment (field-independent basis, Debye):
    X=             -1.7668    Y=             -3.4044    Z=             -0.0000  Tot=              3.8356
 Quadrupole moment (field-independent basis, Debye-Ang):
   XX=             -9.2322   YY=             -7.9421   ZZ=            -14.7299
   XY=             -3.8882   XZ=             -0.0000   YZ=             -0.0000

 Normal termination of Gaussian 16 at Sun Aug 28 02:45:35 2022.
