 Gaussian 16, Revision A.03,
 Gaussian 16:  ES64L-G16RevA.03 25-Dec-2016

 ------------------
 #p CCSD(T)/cc-pVTZ
 ------------------

 ------------
 H2O_H2O_2338
 ------------
 Symbolic Z-matrix:
 Charge =  0 Multiplicity = 1

                         Standard orientation:
 ---------------------------------------------------------------------
 Center     Atomic      Atomic             Coordinates (Angstroms)
 Number     Number       Type             X           Y           Z
 ---------------------------------------------------------------------
      1          8           0        0.052321    2.039838   -0.000000
      2          1           0        0.050551    1.057238   -0.000000
      3          1           0       -0.876597    2.360177   -0.000000
      4          8           0        0.052321   -1.859973    0.000000
      5          1           0        0.789912   -2.509177    0.000000
      6          1           0       -0.801001   -2.347156    0.000000
 ---------------------------------------------------------------------

 SCF Done:  E(RHF) =  -152.111242025     A.U. after   10 cycles
 E2 =    -0.5261883999D+00 EUMP2 =    -0.15263743042453D+03
 CCSD(T)
 CCSD(T)= -0.15266452573D+03

 The electronic state is 1-A'.
 Alpha  occ. eigenvalues --  -20.57068 -20.54011  -1.34325  -1.31349  -0.71718
 Alpha  occ. eigenvalues --   -0.68746  -0.57942  -0.54827  -0.51462  -0.48493
 Alpha virt. eigenvalues --    0.12274   0.16588   0.19290   0.24722   0.52362
 Alpha virt. eigenvalues --    0.55519   0.56273   0.59008   0.69002   0.71403
 Alpha virt. eigenvalues --    0.77100   0.78364   0.80367   0.82052   0.83614

 Mulliken charges:
               1
     1  O   -0.524339
     2  H    0.267391
     3  H    0.249410
     4  O   -0.509581
     5  H    0.260777
     6  H    0.256342
 Sum of Mulliken charges =  -0.00000

 Dipole moment (field-independent basis, Debye):
    X=             -1.7750    Y=             -3.3225    Z=              0.0000  Tot=              3.7669
 Quadrupole moment (field-independent basis, Debye-Ang):
   XX=             -9.2291   YY=             -7.6384   ZZ=            -14.7243
   XY=             -4.1295   XZ=              0.0000   YZ=             -0.0000

 Normal termination of Gaussian 16 at Sun Aug 28 06:24:59 2022.
