 Gaussian 16, Revision A.03,
 Gaussian 16:  ES64L-G16RevA.03 25-Dec-2016

 ------------------
 #p CCSD(T)/cc-pVTZ
 ------------------

 ------------
 H2O_H2O_3688
 ------------
 Symbolic Z-matrix:
 Charge =  0 Multiplicity = 1

                         Standard orientation:
 ---------------------------------------------------------------------
 Center     Atomic      Atomic             Coordinates (Angstroms)
 Number     Number       Type             X           Y           Z
 ---------------------------------------------------------------------
      1          8           0        0.052286    2.578342   -0.000000
      2          1           0        0.050899    1.595741   -0.000000
      3          1           0       -0.876756    2.898320   -0.000000
      4          8           0        0.052286   -2.398436    0.000000
      5          1           0        0.790130   -3.047353    0.000000
      6          1           0       -0.800847   -2.885951    0.000000
 ---------------------------------------------------------------------

 SCF Done:  E(RHF) =  -152.108955874     A.U. after   10 cycles
 E2 =    -0.5258462866D+00 EUMP2 =    -0.15263480216071D+03
 CCSD(T)
 CCSD(T)= -0.15266197796D+03

 The electronic state is 1-A'.
 Alpha  occ. eigenvalues --  -20.56382 -20.54726  -1.33675  -1.32038  -0.71078
 Alpha  occ. eigenvalues --   -0.69435  -0.57187  -0.55516  -0.50798  -0.49166
 Alpha virt. eigenvalues --    0.12872   0.15390   0.19588   0.21577   0.53468
 Alpha virt. eigenvalues --    0.54993   0.56516   0.57930   0.66810   0.69264
 Alpha virt. eigenvalues --    0.78103   0.79172   0.79581   0.79677   0.82974

 Mulliken charges:
               1
     1  O   -0.515666
     2  H    0.262381
     3  H    0.252378
     4  O   -0.515399
     5  H    0.259572
     6  H    0.256734
 Sum of Mulliken charges =  -0.00000

 Dipole moment (field-independent basis, Debye):
    X=             -1.7883    Y=             -3.1910    Z=              0.0000  Tot=              3.6579
 Quadrupole moment (field-independent basis, Debye-Ang):
   XX=             -9.2255   YY=             -6.7653   ZZ=            -14.7168
   XY=             -4.8898   XZ=              0.0000   YZ=             -0.0000

 Normal termination of Gaussian 16 at Fri Aug 26 23:07:17 2022.
