 Gaussian 16, Revision A.03,
 Gaussian 16:  ES64L-G16RevA.03 25-Dec-2016

 ------------------
 #p CCSD(T)/cc-pVTZ
 ------------------

 ------------
 H2O_H2O_1750
 ------------
 Symbolic Z-matrix:
 Charge =  0 Multiplicity = 1

                         Standard orientation:
 ---------------------------------------------------------------------
 Center     Atomic      Atomic             Coordinates (Angstroms)
 Number     Number       Type             X           Y           Z
 ---------------------------------------------------------------------
      1          8           0        0.092949   -1.784907    0.000000
      2          1           0        0.092949   -0.802306    0.000000
      3          1           0       -0.836544   -2.103574    0.000000
      4          8           0        0.092949    1.652120    0.000000
      5          1           0        0.092949    2.634722    0.000000
      6          1           0       -0.836544    1.333453    0.000000
 ---------------------------------------------------------------------

 SCF Done:  E(RHF) =  -152.108928249     A.U. after   10 cycles
 E2 =    -0.5271296920D+00 EUMP2 =    -0.15263605794091D+03
 CCSD(T)
 CCSD(T)= -0.15266317885D+03

 The electronic state is 1-A'.
 Alpha  occ. eigenvalues --  -20.57554 -20.54697  -1.34875  -1.32019  -0.72513
 Alpha  occ. eigenvalues --   -0.69275  -0.58366  -0.55420  -0.51950  -0.49123
 Alpha virt. eigenvalues --    0.11452   0.16193   0.20394   0.26554   0.50976
 Alpha virt. eigenvalues --    0.54852   0.57367   0.57629   0.67824   0.74140
 Alpha virt. eigenvalues --    0.74944   0.78119   0.80142   0.82321   0.83331

 Mulliken charges:
               1
     1  O   -0.516879
     2  H    0.268403
     3  H    0.242224
     4  O   -0.491932
     5  H    0.255380
     6  H    0.242804
 Sum of Mulliken charges =  -0.00000

 Dipole moment (field-independent basis, Debye):
    X=             -3.1196    Y=              2.5247    Z=              0.0000  Tot=              4.0132
 Quadrupole moment (field-independent basis, Debye-Ang):
   XX=            -10.8897   YY=             -9.1443   ZZ=            -14.7125
   XY=              2.1273   XZ=              0.0000   YZ=              0.0000

 Normal termination of Gaussian 16 at Sun Aug 28 01:15:17 2022.
