 Gaussian 16, Revision A.03,
 Gaussian 16:  ES64L-G16RevA.03 25-Dec-2016

 ------------------
 #p CCSD(T)/cc-pVTZ
 ------------------

 -----------
 H2O_H2O_140
 -----------
 Symbolic Z-matrix:
 Charge =  0 Multiplicity = 1

                         Standard orientation:
 ---------------------------------------------------------------------
 Center     Atomic      Atomic             Coordinates (Angstroms)
 Number     Number       Type             X           Y           Z
 ---------------------------------------------------------------------
      1          8           0        0.045042    1.162510   -0.000000
      2          1           0        0.041235    0.179916   -0.000000
      3          1           0       -0.883210    1.484775   -0.000000
      4          8           0        0.045042   -0.982294    0.000000
      5          1           0        0.859924   -1.531359    0.000000
      6          1           0       -0.738620   -1.575066    0.000000
 ---------------------------------------------------------------------

 SCF Done:  E(RHF) =  -152.058262374     A.U. after   11 cycles
 E2 =    -0.5349715272D+00 EUMP2 =    -0.15259323390142D+03
 CCSD(T)
 CCSD(T)= -0.15261893488D+03

 The electronic state is 1-A'.
 Alpha  occ. eigenvalues --  -20.61737 -20.44924  -1.42579  -1.24875  -0.77793
 Alpha  occ. eigenvalues --   -0.77160  -0.57959  -0.55358  -0.45219  -0.41453
 Alpha virt. eigenvalues --    0.10516   0.16686   0.20932   0.33213   0.46860
 Alpha virt. eigenvalues --    0.52265   0.62905   0.65305   0.70563   0.71149
 Alpha virt. eigenvalues --    0.78863   0.79879   0.80973   0.82182   0.86397

 Mulliken charges:
               1
     1  O   -0.663554
     2  H    0.296706
     3  H    0.208077
     4  O   -0.339421
     5  H    0.255550
     6  H    0.242642
 Sum of Mulliken charges =  -0.00000

 Dipole moment (field-independent basis, Debye):
    X=             -1.3744    Y=             -4.9437    Z=              0.0000  Tot=              5.1312
 Quadrupole moment (field-independent basis, Debye-Ang):
   XX=             -9.1042   YY=            -10.0967   ZZ=            -14.5839
   XY=             -2.7351   XZ=              0.0000   YZ=              0.0000

 Normal termination of Gaussian 16 at Fri Aug 26 16:08:38 2022.
