 Gaussian 16, Revision A.03,
 Gaussian 16:  ES64L-G16RevA.03 25-Dec-2016

 ------------------
 #p CCSD(T)/cc-pVTZ
 ------------------

 ------------
 H2O_H2O_3095
 ------------
 Symbolic Z-matrix:
 Charge =  0 Multiplicity = 1

                         Standard orientation:
 ---------------------------------------------------------------------
 Center     Atomic      Atomic             Coordinates (Angstroms)
 Number     Number       Type             X           Y           Z
 ---------------------------------------------------------------------
      1          8           0        0.026658    2.335392   -0.000000
      2          1           0        0.024156    1.352793   -0.000000
      3          1           0       -0.902020    2.656424   -0.000000
      4          8           0        0.026658   -2.162167    0.000000
      5          1           0        0.975128   -2.418899    0.000000
      6          1           0       -0.523796   -2.976112    0.000000
 ---------------------------------------------------------------------

 SCF Done:  E(RHF) =  -152.109793708     A.U. after   10 cycles
 E2 =    -0.5259027680D+00 EUMP2 =    -0.15263569647621D+03
 CCSD(T)
 CCSD(T)= -0.15266284348D+03

 The electronic state is 1-A'.
 Alpha  occ. eigenvalues --  -20.56593 -20.54547  -1.33877  -1.31866  -0.71279
 Alpha  occ. eigenvalues --   -0.69268  -0.57418  -0.55357  -0.51005  -0.49003
 Alpha virt. eigenvalues --    0.12477   0.15866   0.19383   0.22648   0.53404
 Alpha virt. eigenvalues --    0.55477   0.56454   0.58309   0.67922   0.69349
 Alpha virt. eigenvalues --    0.77891   0.78858   0.79828   0.80006   0.83164

 Mulliken charges:
               1
     1  O   -0.519570
     2  H    0.263515
     3  H    0.253599
     4  O   -0.515312
     5  H    0.259358
     6  H    0.258409
 Sum of Mulliken charges =  -0.00000

 Dipole moment (field-independent basis, Debye):
    X=             -0.9111    Y=             -3.1102    Z=              0.0000  Tot=              3.2409
 Quadrupole moment (field-independent basis, Debye-Ang):
   XX=             -9.2883   YY=             -7.3877   ZZ=            -14.7196
   XY=             -5.6122   XZ=              0.0000   YZ=             -0.0000

 Normal termination of Gaussian 16 at Fri Aug 26 19:44:29 2022.
