 Gaussian 16, Revision A.03,
 Gaussian 16:  ES64L-G16RevA.03 25-Dec-2016

 ------------------
 #p CCSD(T)/cc-pVTZ
 ------------------

 ------------
 H2O_H2O_1483
 ------------
 Symbolic Z-matrix:
 Charge =  0 Multiplicity = 1

                         Standard orientation:
 ---------------------------------------------------------------------
 Center     Atomic      Atomic             Coordinates (Angstroms)
 Number     Number       Type             X           Y           Z
 ---------------------------------------------------------------------
      1          8           0        0.070228    1.695538   -0.000000
      2          1           0        0.069029    0.712938   -0.000000
      3          1           0       -0.858875    2.015339    0.000000
      4          8           0        0.070228   -1.525343   -0.000000
      5          1           0        0.560491   -2.376900   -0.000000
      6          1           0       -0.894300   -1.712940    0.000000
 ---------------------------------------------------------------------

 SCF Done:  E(RHF) =  -152.112586601     A.U. after   10 cycles
 E2 =    -0.5273047610D+00 EUMP2 =    -0.15263989136192D+03
 CCSD(T)
 CCSD(T)= -0.15266690483D+03

 The electronic state is 1-A'.
 Alpha  occ. eigenvalues --  -20.57960 -20.53261  -1.35268  -1.30684  -0.72691
 Alpha  occ. eigenvalues --   -0.68246  -0.58984  -0.54023  -0.52377  -0.47816
 Alpha virt. eigenvalues --    0.11861   0.17045   0.19412   0.28716   0.49512
 Alpha virt. eigenvalues --    0.55116   0.56927   0.58781   0.69668   0.73480
 Alpha virt. eigenvalues --    0.74201   0.76761   0.81320   0.82826   0.84288

 Mulliken charges:
               1
     1  O   -0.535243
     2  H    0.277336
     3  H    0.241797
     4  O   -0.497242
     5  H    0.259177
     6  H    0.254174
 Sum of Mulliken charges =  -0.00000

 Dipole moment (field-independent basis, Debye):
    X=             -2.3497    Y=             -3.3377    Z=              0.0000  Tot=              4.0818
 Quadrupole moment (field-independent basis, Debye-Ang):
   XX=             -9.7063   YY=             -8.4020   ZZ=            -14.7287
   XY=             -3.2303   XZ=             -0.0000   YZ=             -0.0000

 CCSD(T)=-152.6669048\RMSD=6.929e-09\PG=CS [SG(H4O2)]\\@
 Normal termination of Gaussian 16 at Sat Aug 27 00:51:42 2022.
