 Gaussian 16, Revision A.03,
 Gaussian 16:  ES64L-G16RevA.03 25-Dec-2016

 ------------------
 #p CCSD(T)/cc-pVTZ
 ------------------

 ------------
 H2O_H2O_3061
 ------------
 Symbolic Z-matrix:
 Charge =  0 Multiplicity = 1

                         Standard orientation:
 ---------------------------------------------------------------------
 Center     Atomic      Atomic             Coordinates (Angstroms)
 Number     Number       Type             X           Y           Z
 ---------------------------------------------------------------------
      1          8           0        0.059642    2.327706    0.000000
      2          1           0        0.058379    1.345106    0.000000
      3          1           0       -0.869441    2.647567   -0.000000
      4          8           0        0.059642   -2.150263    0.000000
      5          1           0        0.706566   -2.889854    0.000000
      6          1           0       -0.849779   -2.522366   -0.000000
 ---------------------------------------------------------------------

 SCF Done:  E(RHF) =  -152.109583881     A.U. after   10 cycles
 E2 =    -0.5259467658D+00 EUMP2 =    -0.15263553064631D+03
 CCSD(T)
 CCSD(T)= -0.15266267940D+03

 The electronic state is 1-A'.
 Alpha  occ. eigenvalues --  -20.56626 -20.54513  -1.33907  -1.31831  -0.71311
 Alpha  occ. eigenvalues --   -0.69221  -0.57438  -0.55312  -0.51033  -0.48963
 Alpha virt. eigenvalues --    0.12459   0.15849   0.19464   0.22519   0.53307
 Alpha virt. eigenvalues --    0.55342   0.56321   0.58511   0.68030   0.69338
 Alpha virt. eigenvalues --    0.77865   0.78992   0.79562   0.79870   0.83168

 Mulliken charges:
               1
     1  O   -0.517539
     2  H    0.264001
     3  H    0.250875
     4  O   -0.513540
     5  H    0.260172
     6  H    0.256029
 Sum of Mulliken charges =  -0.00000

 Dipole moment (field-independent basis, Debye):
    X=             -2.0337    Y=             -3.1906    Z=             -0.0000  Tot=              3.7836
 Quadrupole moment (field-independent basis, Debye-Ang):
   XX=             -9.3648   YY=             -7.2542   ZZ=            -14.7188
   XY=             -4.2323   XZ=              0.0000   YZ=             -0.0000

 Normal termination of Gaussian 16 at Fri Aug 26 19:33:21 2022.
