 Gaussian 16, Revision A.03,
 Gaussian 16:  ES64L-G16RevA.03 25-Dec-2016

 ------------------
 #p CCSD(T)/cc-pVTZ
 ------------------

 ------------
 H2O_H2O_1938
 ------------
 Symbolic Z-matrix:
 Charge =  0 Multiplicity = 1

                         Standard orientation:
 ---------------------------------------------------------------------
 Center     Atomic      Atomic             Coordinates (Angstroms)
 Number     Number       Type             X           Y           Z
 ---------------------------------------------------------------------
      1          8           0        0.052335    1.880279   -0.000000
      2          1           0        0.050408    0.897679   -0.000000
      3          1           0       -0.876531    2.200768   -0.000000
      4          8           0        0.052335   -1.700431    0.000000
      5          1           0        0.789822   -2.349753    0.000000
      6          1           0       -0.801065   -2.187477    0.000000
 ---------------------------------------------------------------------

 SCF Done:  E(RHF) =  -152.112427173     A.U. after   10 cycles
 E2 =    -0.5264997270D+00 EUMP2 =    -0.15263892690040D+03
 CCSD(T)
 CCSD(T)= -0.15266598513D+03

 The electronic state is 1-A'.
 Alpha  occ. eigenvalues --  -20.57427 -20.53615  -1.34678  -1.30980  -0.72058
 Alpha  occ. eigenvalues --   -0.68418  -0.58382  -0.54427  -0.51817  -0.48131
 Alpha virt. eigenvalues --    0.12168   0.17024   0.19168   0.26532   0.51294
 Alpha virt. eigenvalues --    0.55073   0.56353   0.58984   0.69046   0.72379
 Alpha virt. eigenvalues --    0.76035   0.77427   0.80808   0.83378   0.84313

 Mulliken charges:
               1
     1  O   -0.529869
     2  H    0.270145
     3  H    0.247750
     4  O   -0.507353
     5  H    0.262424
     6  H    0.256904
 Sum of Mulliken charges =  -0.00000

 Dipole moment (field-independent basis, Debye):
    X=             -1.7674    Y=             -3.3987    Z=              0.0000  Tot=              3.8308
 Quadrupole moment (field-independent basis, Debye-Ang):
   XX=             -9.2321   YY=             -7.9234   ZZ=            -14.7295
   XY=             -3.9025   XZ=              0.0000   YZ=             -0.0000

 Normal termination of Gaussian 16 at Sun Aug 28 02:55:19 2022.
