 Gaussian 16, Revision A.03,
 Gaussian 16:  ES64L-G16RevA.03 25-Dec-2016

 ------------------
 #p CCSD(T)/cc-pVTZ
 ------------------

 ------------
 H2O_H2O_1478
 ------------
 Symbolic Z-matrix:
 Charge =  0 Multiplicity = 1

                         Standard orientation:
 ---------------------------------------------------------------------
 Center     Atomic      Atomic             Coordinates (Angstroms)
 Number     Number       Type             X           Y           Z
 ---------------------------------------------------------------------
      1          8           0        0.085609   -1.684336    0.000000
      2          1           0        0.085222   -0.701735    0.000000
      3          1           0       -0.843758   -2.003369    0.000000
      4          8           0        0.085609    1.534759    0.000000
      5          1           0        0.276926    2.498556    0.000000
      6          1           0       -0.888140    1.403167    0.000000
 ---------------------------------------------------------------------

 SCF Done:  E(RHF) =  -152.110499646     A.U. after   10 cycles
 E2 =    -0.5275313404D+00 EUMP2 =    -0.15263803098651D+03
 CCSD(T)
 CCSD(T)= -0.15266508536D+03

 The electronic state is 1-A'.
 Alpha  occ. eigenvalues --  -20.57918 -20.53917  -1.35265  -1.31302  -0.72880
 Alpha  occ. eigenvalues --   -0.68666  -0.58841  -0.54651  -0.52338  -0.48412
 Alpha virt. eigenvalues --    0.11624   0.16537   0.20033   0.28193   0.49753
 Alpha virt. eigenvalues --    0.54872   0.57809   0.58004   0.68706   0.73949
 Alpha virt. eigenvalues --    0.74720   0.77435   0.80887   0.82273   0.83623

 Mulliken charges:
               1
     1  O   -0.527167
     2  H    0.274849
     3  H    0.239826
     4  O   -0.484997
     5  H    0.250437
     6  H    0.247051
 Sum of Mulliken charges =  -0.00000

 Dipole moment (field-independent basis, Debye):
    X=             -2.8598    Y=              2.9271    Z=              0.0000  Tot=              4.0923
 Quadrupole moment (field-independent basis, Debye-Ang):
   XX=            -10.4440   YY=             -8.7586   ZZ=            -14.7176
   XY=              2.6054   XZ=              0.0000   YZ=              0.0000

 Normal termination of Gaussian 16 at Sat Aug 27 00:49:49 2022.
