 Gaussian 16, Revision A.03,
 Gaussian 16:  ES64L-G16RevA.03 25-Dec-2016

 ------------------
 #p CCSD(T)/cc-pVTZ
 ------------------

 ------------
 H2O_H2O_4551
 ------------
 Symbolic Z-matrix:
 Charge =  0 Multiplicity = 1

                         Standard orientation:
 ---------------------------------------------------------------------
 Center     Atomic      Atomic             Coordinates (Angstroms)
 Number     Number       Type             X           Y           Z
 ---------------------------------------------------------------------
      1          8           0        0.090683   -2.904981    0.000000
      2          1           0        0.090615   -1.922380    0.000000
      3          1           0       -0.838788   -3.223712    0.000000
      4          8           0        0.090683    2.766270    0.000000
      5          1           0        0.154881    3.746772    0.000000
      6          1           0       -0.857644    2.509011    0.000000
 ---------------------------------------------------------------------

 SCF Done:  E(RHF) =  -152.107688848     A.U. after   10 cycles
 E2 =    -0.5258700313D+00 EUMP2 =    -0.15263355887958D+03
 CCSD(T)
 CCSD(T)= -0.15266077233D+03

 The electronic state is 1-A'.
 Alpha  occ. eigenvalues --  -20.56200 -20.55309  -1.33502  -1.32611  -0.70916
 Alpha  occ. eigenvalues --   -0.70008  -0.56963  -0.56063  -0.50613  -0.49724
 Alpha virt. eigenvalues --    0.12862   0.14721   0.18993   0.21540   0.53290
 Alpha virt. eigenvalues --    0.54804   0.56562   0.57669   0.66938   0.68446
 Alpha virt. eigenvalues --    0.78278   0.79149   0.79646   0.81220   0.81659

 Mulliken charges:
               1
     1  O   -0.509818
     2  H    0.257549
     3  H    0.252213
     4  O   -0.510807
     5  H    0.258159
     6  H    0.252704
 Sum of Mulliken charges =  -0.00000

 Dipole moment (field-independent basis, Debye):
    X=             -3.1103    Y=              2.4328    Z=              0.0000  Tot=              3.9487
 Quadrupole moment (field-independent basis, Debye-Ang):
   XX=            -10.6997   YY=             -8.8635   ZZ=            -14.7120
   XY=              2.4211   XZ=              0.0000   YZ=              0.0000

 Normal termination of Gaussian 16 at Sun Aug 28 03:47:21 2022.
