 Gaussian 16, Revision A.03,
 Gaussian 16:  ES64L-G16RevA.03 25-Dec-2016

 ------------------
 #p CCSD(T)/cc-pVTZ
 ------------------

 ----------
 H2O_H2O_49
 ----------
 Symbolic Z-matrix:
 Charge =  0 Multiplicity = 1

                         Standard orientation:
 ---------------------------------------------------------------------
 Center     Atomic      Atomic             Coordinates (Angstroms)
 Number     Number       Type             X           Y           Z
 ---------------------------------------------------------------------
      1          8           0       -0.013807   -1.111197   -0.000000
      2          1           0       -0.007274   -0.128618   -0.000000
      3          1           0        0.913547   -1.436036    0.000000
      4          8           0       -0.013807    0.952034   -0.000000
      5          1           0       -0.996387    0.958567   -0.000000
      6          1           0        0.311032    1.879388    0.000000
 ---------------------------------------------------------------------

 SCF Done:  E(RHF) =  -152.027779648     A.U. after   11 cycles
 E2 =    -0.5370377534D+00 EUMP2 =    -0.15256481740133D+03
 CCSD(T)
 CCSD(T)= -0.15259023748D+03

 The electronic state is 1-A'.
 Alpha  occ. eigenvalues --  -20.61817 -20.44622  -1.44506  -1.24794  -0.83185
 Alpha  occ. eigenvalues --   -0.73124  -0.58639  -0.55903  -0.44611  -0.41431
 Alpha virt. eigenvalues --    0.10689   0.16978   0.20882   0.33411   0.47906
 Alpha virt. eigenvalues --    0.51223   0.60158   0.69529   0.70511   0.72085
 Alpha virt. eigenvalues --    0.76271   0.76411   0.80584   0.85855   0.87523

 Mulliken charges:
               1
     1  O   -0.684207
     2  H    0.261932
     3  H    0.224418
     4  O   -0.298488
     5  H    0.268777
     6  H    0.227568
 Sum of Mulliken charges =  -0.00000

 Dipole moment (field-independent basis, Debye):
    X=              0.4037    Y=              4.6482    Z=              0.0000  Tot=              4.6657
 Quadrupole moment (field-independent basis, Debye-Ang):
   XX=             -9.4833   YY=            -10.1238   ZZ=            -14.5270
   XY=             -2.8750   XZ=              0.0000   YZ=             -0.0000

 Normal termination of Gaussian 16 at Fri Aug 26 15:31:14 2022.
