 Gaussian 16, Revision A.03,
 Gaussian 16:  ES64L-G16RevA.03 25-Dec-2016

 ------------------
 #p CCSD(T)/cc-pVTZ
 ------------------

 ------------
 H2O_H2O_2108
 ------------
 Symbolic Z-matrix:
 Charge =  0 Multiplicity = 1

                         Standard orientation:
 ---------------------------------------------------------------------
 Center     Atomic      Atomic             Coordinates (Angstroms)
 Number     Number       Type             X           Y           Z
 ---------------------------------------------------------------------
      1          8           0        0.070214    1.944848    0.000000
      2          1           0        0.069176    0.962247    0.000000
      3          1           0       -0.858941    2.264497   -0.000000
      4          8           0        0.070214   -1.774630    0.000000
      5          1           0        0.560616   -2.626106    0.000000
      6          1           0       -0.894282   -1.962384   -0.000000
 ---------------------------------------------------------------------

 SCF Done:  E(RHF) =  -152.111111376     A.U. after   10 cycles
 E2 =    -0.5264191089D+00 EUMP2 =    -0.15263753048469D+03
 CCSD(T)
 CCSD(T)= -0.15266461863D+03

 The electronic state is 1-A'.
 Alpha  occ. eigenvalues --  -20.57252 -20.54044  -1.34515  -1.31384  -0.71930
 Alpha  occ. eigenvalues --   -0.68775  -0.58128  -0.54838  -0.51643  -0.48521
 Alpha virt. eigenvalues --    0.12019   0.16585   0.19401   0.25469   0.51980
 Alpha virt. eigenvalues --    0.55725   0.56038   0.58499   0.68900   0.72258
 Alpha virt. eigenvalues --    0.76547   0.78416   0.80416   0.83432   0.83656

 Mulliken charges:
               1
     1  O   -0.523062
     2  H    0.267654
     3  H    0.246569
     4  O   -0.505831
     5  H    0.260505
     6  H    0.254166
 Sum of Mulliken charges =  -0.00000

 Dipole moment (field-independent basis, Debye):
    X=             -2.3750    Y=             -3.1774    Z=             -0.0000  Tot=              3.9669
 Quadrupole moment (field-independent basis, Debye-Ang):
   XX=             -9.6963   YY=             -8.0228   ZZ=            -14.7239
   XY=             -3.4363   XZ=             -0.0000   YZ=             -0.0000

 Normal termination of Gaussian 16 at Sun Aug 28 04:26:19 2022.
