 Gaussian 16, Revision A.03,
 Gaussian 16:  ES64L-G16RevA.03 25-Dec-2016

 ------------------
 #p CCSD(T)/cc-pVTZ
 ------------------

 -----------
 H2O_H2O_171
 -----------
 Symbolic Z-matrix:
 Charge =  0 Multiplicity = 1

                         Standard orientation:
 ---------------------------------------------------------------------
 Center     Atomic      Atomic             Coordinates (Angstroms)
 Number     Number       Type             X           Y           Z
 ---------------------------------------------------------------------
      1          8           0       -0.023457    1.167076    0.000000
      2          1           0       -0.017987    0.184490    0.000000
      3          1           0        0.904248    1.490912    0.000000
      4          8           0       -0.023457   -0.996825    0.000000
      5          1           0       -0.986096   -1.193882    0.000000
      6          1           0        0.475143   -1.843527    0.000000
 ---------------------------------------------------------------------

 SCF Done:  E(RHF) =  -152.060857178     A.U. after   11 cycles
 E2 =    -0.5350392588D+00 EUMP2 =    -0.15259589643649D+03
 CCSD(T)
 CCSD(T)= -0.15262163619D+03

 The electronic state is 1-A'.
 Alpha  occ. eigenvalues --  -20.61443 -20.45652  -1.42240  -1.25335  -0.79893
 Alpha  occ. eigenvalues --   -0.73563  -0.57594  -0.56424  -0.45870  -0.42030
 Alpha virt. eigenvalues --    0.10788   0.17154   0.20610   0.33717   0.47180
 Alpha virt. eigenvalues --    0.52227   0.60446   0.68741   0.71119   0.71362
 Alpha virt. eigenvalues --    0.76800   0.77909   0.80040   0.84500   0.85694

 Mulliken charges:
               1
     1  O   -0.663874
     2  H    0.287792
     3  H    0.223179
     4  O   -0.343240
     5  H    0.263065
     6  H    0.233078
 Sum of Mulliken charges =  -0.00000

 Dipole moment (field-independent basis, Debye):
    X=              0.7217    Y=             -4.6605    Z=              0.0000  Tot=              4.7161
 Quadrupole moment (field-independent basis, Debye-Ang):
   XX=             -9.2647   YY=             -9.9524   ZZ=            -14.5839
   XY=              2.8631   XZ=              0.0000   YZ=              0.0000

 Normal termination of Gaussian 16 at Fri Aug 26 16:21:25 2022.
