 Gaussian 16, Revision A.03,
 Gaussian 16:  ES64L-G16RevA.03 25-Dec-2016

 ------------------
 #p CCSD(T)/cc-pVTZ
 ------------------

 ------------
 H2O_H2O_3631
 ------------
 Symbolic Z-matrix:
 Charge =  0 Multiplicity = 1

                         Standard orientation:
 ---------------------------------------------------------------------
 Center     Atomic      Atomic             Coordinates (Angstroms)
 Number     Number       Type             X           Y           Z
 ---------------------------------------------------------------------
      1          8           0        0.076754    2.549330    0.000000
      2          1           0        0.076197    1.566729    0.000000
      3          1           0       -0.852558    2.868523    0.000000
      4          8           0        0.076754   -2.386114   -0.000000
      5          1           0        0.452266   -3.294133   -0.000000
      6          1           0       -0.903969   -2.446850   -0.000000
 ---------------------------------------------------------------------

 SCF Done:  E(RHF) =  -152.108493740     A.U. after   10 cycles
 E2 =    -0.5258934924D+00 EUMP2 =    -0.15263438723256D+03
 CCSD(T)
 CCSD(T)= -0.15266157229D+03

 The electronic state is 1-A'.
 Alpha  occ. eigenvalues --  -20.56407 -20.54909  -1.33703  -1.32217  -0.71115
 Alpha  occ. eigenvalues --   -0.69609  -0.57193  -0.55684  -0.50820  -0.49338
 Alpha virt. eigenvalues --    0.12511   0.15321   0.19361   0.21807   0.53306
 Alpha virt. eigenvalues --    0.55065   0.56459   0.58012   0.66838   0.69153
 Alpha virt. eigenvalues --    0.78083   0.78747   0.79515   0.80581   0.82773

 Mulliken charges:
               1
     1  O   -0.512983
     2  H    0.260972
     3  H    0.251195
     4  O   -0.513135
     5  H    0.259738
     6  H    0.254213
 Sum of Mulliken charges =  -0.00000

 Dipole moment (field-independent basis, Debye):
    X=             -2.6240    Y=             -2.8958    Z=             -0.0000  Tot=              3.9078
 Quadrupole moment (field-independent basis, Debye-Ang):
   XX=             -9.9516   YY=             -7.5925   ZZ=            -14.7150
   XY=             -3.5091   XZ=             -0.0000   YZ=             -0.0000

 Normal termination of Gaussian 16 at Fri Aug 26 22:47:06 2022.
