 Gaussian 16, Revision A.03,
 Gaussian 16:  ES64L-G16RevA.03 25-Dec-2016

 ------------------
 #p CCSD(T)/cc-pVTZ
 ------------------

 -----------
 H2O_H2O_314
 -----------
 Symbolic Z-matrix:
 Charge =  0 Multiplicity = 1

                         Standard orientation:
 ---------------------------------------------------------------------
 Center     Atomic      Atomic             Coordinates (Angstroms)
 Number     Number       Type             X           Y           Z
 ---------------------------------------------------------------------
      1          8           0        0.048733    1.232317    0.000000
      2          1           0        0.045435    0.249721    0.000000
      3          1           0       -0.879686    1.554101   -0.000000
      4          8           0        0.048733   -1.052090    0.000000
      5          1           0        0.826271   -1.652873    0.000000
      6          1           0       -0.771742   -1.592765   -0.000000
 ---------------------------------------------------------------------

 SCF Done:  E(RHF) =  -152.084554199     A.U. after   11 cycles
 E2 =    -0.5333761801D+00 EUMP2 =    -0.15261793037894D+03
 CCSD(T)
 CCSD(T)= -0.15264397452D+03

 The electronic state is 1-A'.
 Alpha  occ. eigenvalues --  -20.60976 -20.46974  -1.40378  -1.26096  -0.76325
 Alpha  occ. eigenvalues --   -0.74085  -0.57014  -0.56543  -0.47448  -0.42884
 Alpha virt. eigenvalues --    0.10895   0.17114   0.20406   0.33469   0.47189
 Alpha virt. eigenvalues --    0.52951   0.62407   0.64467   0.70687   0.71935
 Alpha virt. eigenvalues --    0.77299   0.79725   0.80629   0.82085   0.83968

 Mulliken charges:
               1
     1  O   -0.636818
     2  H    0.308750
     3  H    0.216930
     4  O   -0.391559
     5  H    0.256120
     6  H    0.246577
 Sum of Mulliken charges =  -0.00000

 Dipole moment (field-independent basis, Debye):
    X=             -1.5234    Y=             -4.6078    Z=             -0.0000  Tot=              4.8531
 Quadrupole moment (field-independent basis, Debye-Ang):
   XX=             -9.1495   YY=             -9.7600   ZZ=            -14.6340
   XY=             -2.8817   XZ=              0.0000   YZ=             -0.0000

 Normal termination of Gaussian 16 at Fri Aug 26 17:22:09 2022.
