 Gaussian 16, Revision A.03,
 Gaussian 16:  ES64L-G16RevA.03 25-Dec-2016

 ------------------
 #p CCSD(T)/cc-pVTZ
 ------------------

 -----------
 H2O_H2O_710
 -----------
 Symbolic Z-matrix:
 Charge =  0 Multiplicity = 1

                         Standard orientation:
 ---------------------------------------------------------------------
 Center     Atomic      Atomic             Coordinates (Angstroms)
 Number     Number       Type             X           Y           Z
 ---------------------------------------------------------------------
      1          8           0        0.063310    1.389240   -0.000000
      2          1           0        0.061372    0.406641   -0.000000
      3          1           0       -0.865553    1.709739    0.000000
      4          8           0        0.063310   -1.213839   -0.000000
      5          1           0        0.659941   -1.994568   -0.000000
      6          1           0       -0.868714   -1.525026    0.000000
 ---------------------------------------------------------------------

 SCF Done:  E(RHF) =  -152.107701235     A.U. after   10 cycles
 E2 =    -0.5304151421D+00 EUMP2 =    -0.15263811637744D+03
 CCSD(T)
 CCSD(T)= -0.15266474903D+03

 The electronic state is 1-A'.
 Alpha  occ. eigenvalues --  -20.59563 -20.50468  -1.37490  -1.28480  -0.74669
 Alpha  occ. eigenvalues --   -0.69208  -0.59375  -0.54352  -0.51117  -0.45507
 Alpha virt. eigenvalues --    0.11449   0.17345   0.19727   0.32939   0.47981
 Alpha virt. eigenvalues --    0.54030   0.60188   0.60811   0.70500   0.72335
 Alpha virt. eigenvalues --    0.73085   0.77724   0.81138   0.83254   0.84306

 Mulliken charges:
               1
     1  O   -0.585141
     2  H    0.307797
     3  H    0.228759
     4  O   -0.454702
     5  H    0.253781
     6  H    0.249506
 Sum of Mulliken charges =  -0.00000

 Dipole moment (field-independent basis, Debye):
    X=             -2.0513    Y=             -3.9425    Z=              0.0000  Tot=              4.4442
 Quadrupole moment (field-independent basis, Debye-Ang):
   XX=             -9.4654   YY=             -9.1070   ZZ=            -14.6966
   XY=             -3.0473   XZ=              0.0000   YZ=              0.0000

 Normal termination of Gaussian 16 at Fri Aug 26 20:00:45 2022.
