 Gaussian 16, Revision A.03,
 Gaussian 16:  ES64L-G16RevA.03 25-Dec-2016

 ------------------
 #p CCSD(T)/cc-pVTZ
 ------------------

 ------------
 H2O_H2O_2123
 ------------
 Symbolic Z-matrix:
 Charge =  0 Multiplicity = 1

                         Standard orientation:
 ---------------------------------------------------------------------
 Center     Atomic      Atomic             Coordinates (Angstroms)
 Number     Number       Type             X           Y           Z
 ---------------------------------------------------------------------
      1          8           0       -0.016678    1.941138    0.000000
      2          1           0       -0.013195    0.958543    0.000000
      3          1           0        0.911679    2.263097    0.000000
      4          8           0       -0.016678   -1.777769    0.000000
      5          1           0       -0.996942   -1.845509    0.000000
      6          1           0        0.365310   -2.683082    0.000000
 ---------------------------------------------------------------------

 SCF Done:  E(RHF) =  -152.111638802     A.U. after   10 cycles
 E2 =    -0.5262952638D+00 EUMP2 =    -0.15263793406560D+03
 CCSD(T)
 CCSD(T)= -0.15266501883D+03

 The electronic state is 1-A'.
 Alpha  occ. eigenvalues --  -20.57190 -20.54081  -1.34464  -1.31428  -0.71886
 Alpha  occ. eigenvalues --   -0.68848  -0.58109  -0.54899  -0.51595  -0.48580
 Alpha virt. eigenvalues --    0.12198   0.16777   0.19243   0.25778   0.53161
 Alpha virt. eigenvalues --    0.54759   0.56039   0.58875   0.68751   0.72573
 Alpha virt. eigenvalues --    0.76554   0.78837   0.80370   0.83306   0.83497

 Mulliken charges:
               1
     1  O   -0.528932
     2  H    0.266432
     3  H    0.254042
     4  O   -0.510207
     5  H    0.260468
     6  H    0.258196
 Sum of Mulliken charges =  -0.00000

 Dipole moment (field-independent basis, Debye):
    X=              0.5722    Y=             -3.0452    Z=              0.0000  Tot=              3.0985
 Quadrupole moment (field-independent basis, Debye-Ang):
   XX=             -9.5446   YY=             -8.1864   ZZ=            -14.7256
   XY=              5.0908   XZ=              0.0000   YZ=              0.0000

 Normal termination of Gaussian 16 at Sun Aug 28 04:33:05 2022.
