 Gaussian 16, Revision A.03,
 Gaussian 16:  ES64L-G16RevA.03 25-Dec-2016

 ------------------
 #p CCSD(T)/cc-pVTZ
 ------------------

 ------------
 H2O_H2O_1785
 ------------
 Symbolic Z-matrix:
 Charge =  0 Multiplicity = 1

                         Standard orientation:
 ---------------------------------------------------------------------
 Center     Atomic      Atomic             Coordinates (Angstroms)
 Number     Number       Type             X           Y           Z
 ---------------------------------------------------------------------
      1          8           0        0.063267    1.818064   -0.000000
      2          1           0        0.061809    0.835464   -0.000000
      3          1           0       -0.865753    2.138109    0.000000
      4          8           0        0.063267   -1.642601   -0.000000
      5          1           0        0.660280   -2.423037   -0.000000
      6          1           0       -0.868605   -1.954242    0.000000
 ---------------------------------------------------------------------

 SCF Done:  E(RHF) =  -152.112420622     A.U. after   10 cycles
 E2 =    -0.5267291868D+00 EUMP2 =    -0.15263914980901D+03
 CCSD(T)
 CCSD(T)= -0.15266619807D+03

 The electronic state is 1-A'.
 Alpha  occ. eigenvalues --  -20.57587 -20.53557  -1.34850  -1.30934  -0.72243
 Alpha  occ. eigenvalues --   -0.68389  -0.58558  -0.54352  -0.51980  -0.48078
 Alpha virt. eigenvalues --    0.12030   0.17004   0.19257   0.27169   0.50654
 Alpha virt. eigenvalues --    0.55222   0.56305   0.58812   0.69189   0.72690
 Alpha virt. eigenvalues --    0.75463   0.77346   0.80926   0.83226   0.84215

 Mulliken charges:
               1
     1  O   -0.529978
     2  H    0.271472
     3  H    0.245382
     4  O   -0.504938
     5  H    0.262370
     6  H    0.255693
 Sum of Mulliken charges =   0.00000

 Dipole moment (field-independent basis, Debye):
    X=             -2.1307    Y=             -3.3498    Z=              0.0000  Tot=              3.9700
 Quadrupole moment (field-independent basis, Debye-Ang):
   XX=             -9.4700   YY=             -8.1122   ZZ=            -14.7296
   XY=             -3.5438   XZ=             -0.0000   YZ=              0.0000

 Normal termination of Gaussian 16 at Sun Aug 28 01:32:22 2022.
