 Gaussian 16, Revision A.03,
 Gaussian 16:  ES64L-G16RevA.03 25-Dec-2016

 ------------------
 #p CCSD(T)/cc-pVTZ
 ------------------

 ------------
 H2O_H2O_1823
 ------------
 Symbolic Z-matrix:
 Charge =  0 Multiplicity = 1

                         Standard orientation:
 ---------------------------------------------------------------------
 Center     Atomic      Atomic             Coordinates (Angstroms)
 Number     Number       Type             X           Y           Z
 ---------------------------------------------------------------------
      1          8           0       -0.016698    1.821472    0.000000
      2          1           0       -0.012976    0.838877    0.000000
      3          1           0        0.911581    2.143657    0.000000
      4          8           0       -0.016698   -1.658111    0.000000
      5          1           0       -0.996945   -1.726089    0.000000
      6          1           0        0.365510   -2.563330    0.000000
 ---------------------------------------------------------------------

 SCF Done:  E(RHF) =  -152.112449505     A.U. after   10 cycles
 E2 =    -0.5265813389D+00 EUMP2 =    -0.15263903084417D+03
 CCSD(T)
 CCSD(T)= -0.15266608748D+03

 The electronic state is 1-A'.
 Alpha  occ. eigenvalues --  -20.57479 -20.53770  -1.34762  -1.31144  -0.72201
 Alpha  occ. eigenvalues --   -0.68591  -0.58480  -0.54577  -0.51889  -0.48299
 Alpha virt. eigenvalues --    0.12189   0.17126   0.19211   0.27153   0.52076
 Alpha virt. eigenvalues --    0.54408   0.55913   0.59525   0.68859   0.73498
 Alpha virt. eigenvalues --    0.75524   0.78077   0.80751   0.83231   0.84194

 Mulliken charges:
               1
     1  O   -0.534446
     2  H    0.268946
     3  H    0.253716
     4  O   -0.507634
     5  H    0.261878
     6  H    0.257540
 Sum of Mulliken charges =  -0.00000

 Dipole moment (field-independent basis, Debye):
    X=              0.5722    Y=             -3.1075    Z=              0.0000  Tot=              3.1597
 Quadrupole moment (field-independent basis, Debye-Ang):
   XX=             -9.5449   YY=             -8.3272   ZZ=            -14.7288
   XY=              4.7744   XZ=              0.0000   YZ=              0.0000

 Normal termination of Gaussian 16 at Sun Aug 28 01:55:38 2022.
