 Gaussian 16, Revision A.03,
 Gaussian 16:  ES64L-G16RevA.03 25-Dec-2016

 ------------------
 #p CCSD(T)/cc-pVTZ
 ------------------

 ------------
 H2O_H2O_3249
 ------------
 Symbolic Z-matrix:
 Charge =  0 Multiplicity = 1

                         Standard orientation:
 ---------------------------------------------------------------------
 Center     Atomic      Atomic             Coordinates (Angstroms)
 Number     Number       Type             X           Y           Z
 ---------------------------------------------------------------------
      1          8           0       -0.013515    2.387642    0.000000
      2          1           0       -0.010595    1.405045    0.000000
      3          1           0        0.915027    2.709069    0.000000
      4          8           0       -0.013515   -2.228379    0.000000
      5          1           0       -0.996112   -2.231299    0.000000
      6          1           0        0.307913   -3.156921    0.000000
 ---------------------------------------------------------------------

 SCF Done:  E(RHF) =  -152.109381157     A.U. after   10 cycles
 E2 =    -0.5258777757D+00 EUMP2 =    -0.15263525893232D+03
 CCSD(T)
 CCSD(T)= -0.15266242057D+03

 The electronic state is 1-A'.
 Alpha  occ. eigenvalues --  -20.56514 -20.54777  -1.33808  -1.32092  -0.71217
 Alpha  occ. eigenvalues --   -0.69500  -0.57331  -0.55579  -0.50932  -0.49225
 Alpha virt. eigenvalues --    0.12322   0.15687   0.19199   0.22732   0.53547
 Alpha virt. eigenvalues --    0.55487   0.56479   0.58065   0.67412   0.69300
 Alpha virt. eigenvalues --    0.77967   0.78634   0.79616   0.80775   0.82998

 Mulliken charges:
               1
     1  O   -0.518311
     2  H    0.261655
     3  H    0.255034
     4  O   -0.515554
     5  H    0.257995
     6  H    0.259183
 Sum of Mulliken charges =  -0.00000

 Dipole moment (field-independent basis, Debye):
    X=              0.4657    Y=             -2.8449    Z=              0.0000  Tot=              2.8827
 Quadrupole moment (field-independent basis, Debye-Ang):
   XX=             -9.6479   YY=             -7.9008   ZZ=            -14.7180
   XY=              6.4569   XZ=              0.0000   YZ=              0.0000

 CCSD(T)=-152.6624206\RMSD=6.940e-09\PG=CS [SG(H4O2)]\\@
 Normal termination of Gaussian 16 at Fri Aug 26 20:37:53 2022.
