 Gaussian 16, Revision A.03,
 Gaussian 16:  ES64L-G16RevA.03 25-Dec-2016

 ------------------
 #p CCSD(T)/cc-pVTZ
 ------------------

 ------------
 H2O_H2O_2306
 ------------
 Symbolic Z-matrix:
 Charge =  0 Multiplicity = 1

                         Standard orientation:
 ---------------------------------------------------------------------
 Center     Atomic      Atomic             Coordinates (Angstroms)
 Number     Number       Type             X           Y           Z
 ---------------------------------------------------------------------
      1          8           0        0.076767    2.020806    0.000000
      2          1           0        0.076058    1.038205    0.000000
      3          1           0       -0.852496    2.340143    0.000000
      4          8           0        0.076767   -1.857614   -0.000000
      5          1           0        0.452138   -2.765690   -0.000000
      6          1           0       -0.903966   -1.918199   -0.000000
 ---------------------------------------------------------------------

 SCF Done:  E(RHF) =  -152.110221923     A.U. after   10 cycles
 E2 =    -0.5263081547D+00 EUMP2 =    -0.15263653007787D+03
 CCSD(T)
 CCSD(T)= -0.15266364277D+03

 The electronic state is 1-A'.
 Alpha  occ. eigenvalues --  -20.57080 -20.54351  -1.34351  -1.31676  -0.71778
 Alpha  occ. eigenvalues --   -0.69052  -0.57910  -0.55135  -0.51473  -0.48807
 Alpha virt. eigenvalues --    0.11935   0.16301   0.19511   0.24591   0.52853
 Alpha virt. eigenvalues --    0.55750   0.56142   0.58284   0.68769   0.71601
 Alpha virt. eigenvalues --    0.77020   0.79010   0.80108   0.81905   0.83386

 Mulliken charges:
               1
     1  O   -0.519304
     2  H    0.265920
     3  H    0.247048
     4  O   -0.506206
     5  H    0.259627
     6  H    0.252916
 Sum of Mulliken charges =  -0.00000

 Dipole moment (field-independent basis, Debye):
    X=             -2.6014    Y=             -3.0114    Z=             -0.0000  Tot=              3.9794
 Quadrupole moment (field-independent basis, Debye-Ang):
   XX=             -9.9667   YY=             -8.1198   ZZ=            -14.7204
   XY=             -3.2076   XZ=             -0.0000   YZ=              0.0000

 Normal termination of Gaussian 16 at Sun Aug 28 06:11:24 2022.
