 Gaussian 16, Revision A.03,
 Gaussian 16:  ES64L-G16RevA.03 25-Dec-2016

 ------------------
 #p CCSD(T)/cc-pVTZ
 ------------------

 -----------
 H2O_H2O_591
 -----------
 Symbolic Z-matrix:
 Charge =  0 Multiplicity = 1

                         Standard orientation:
 ---------------------------------------------------------------------
 Center     Atomic      Atomic             Coordinates (Angstroms)
 Number     Number       Type             X           Y           Z
 ---------------------------------------------------------------------
      1          8           0        0.041284    1.341773    0.000000
      2          1           0        0.037772    0.359177    0.000000
      3          1           0       -0.887063    1.663760   -0.000000
      4          8           0        0.041284   -1.161980    0.000000
      5          1           0        0.890481   -1.656320    0.000000
      6          1           0       -0.701739   -1.804960   -0.000000
 ---------------------------------------------------------------------

 SCF Done:  E(RHF) =  -152.104602705     A.U. after   11 cycles
 E2 =    -0.5309783931D+00 EUMP2 =    -0.15263558109815D+03
 CCSD(T)
 CCSD(T)= -0.15266205994D+03

 The electronic state is 1-A'.
 Alpha  occ. eigenvalues --  -20.59937 -20.49315  -1.38144  -1.27621  -0.74930
 Alpha  occ. eigenvalues --   -0.70347  -0.58945  -0.54903  -0.49896  -0.44607
 Alpha virt. eigenvalues --    0.11413   0.17839   0.19567   0.33529   0.47462
 Alpha virt. eigenvalues --    0.53860   0.59886   0.64243   0.69499   0.72325
 Alpha virt. eigenvalues --    0.73203   0.78427   0.81340   0.82834   0.84129

 Mulliken charges:
               1
     1  O   -0.608191
     2  H    0.312694
     3  H    0.231493
     4  O   -0.449706
     5  H    0.262598
     6  H    0.251111
 Sum of Mulliken charges =  -0.00000

 Dipole moment (field-independent basis, Debye):
    X=             -1.3299    Y=             -4.1913    Z=             -0.0000  Tot=              4.3973
 Quadrupole moment (field-independent basis, Debye-Ang):
   XX=             -9.1259   YY=             -9.3064   ZZ=            -14.6877
   XY=             -3.1434   XZ=             -0.0000   YZ=             -0.0000

 Normal termination of Gaussian 16 at Fri Aug 26 19:16:04 2022.
