 Gaussian 16, Revision A.03,
 Gaussian 16:  ES64L-G16RevA.03 25-Dec-2016

 ------------------
 #p CCSD(T)/cc-pVTZ
 ------------------

 ------------
 H2O_H2O_4333
 ------------
 Symbolic Z-matrix:
 Charge =  0 Multiplicity = 1

                         Standard orientation:
 ---------------------------------------------------------------------
 Center     Atomic      Atomic             Coordinates (Angstroms)
 Number     Number       Type             X           Y           Z
 ---------------------------------------------------------------------
      1          8           0        0.070185    2.832374   -0.000000
      2          1           0        0.069482    1.849773   -0.000000
      3          1           0       -0.859079    3.151705   -0.000000
      4          8           0        0.070185   -2.662107    0.000000
      5          1           0        0.560878   -3.513417    0.000000
      6          1           0       -0.894248   -2.850191    0.000000
 ---------------------------------------------------------------------

 SCF Done:  E(RHF) =  -152.108243675     A.U. after   10 cycles
 E2 =    -0.5258351370D+00 EUMP2 =    -0.15263407881215D+03
 CCSD(T)
 CCSD(T)= -0.15266127825D+03

 The electronic state is 1-A'.
 Alpha  occ. eigenvalues --  -20.56226 -20.55002  -1.33526  -1.32309  -0.70934
 Alpha  occ. eigenvalues --   -0.69706  -0.57011  -0.55774  -0.50643  -0.49429
 Alpha virt. eigenvalues --    0.13150   0.14942   0.19528   0.21171   0.53464
 Alpha virt. eigenvalues --    0.54902   0.56602   0.57793   0.66780   0.68799
 Alpha virt. eigenvalues --    0.78247   0.79363   0.79430   0.80460   0.82639

 Mulliken charges:
               1
     1  O   -0.512647
     2  H    0.260112
     3  H    0.252355
     4  O   -0.513598
     5  H    0.258795
     6  H    0.254982
 Sum of Mulliken charges =  -0.00000

 Dipole moment (field-independent basis, Debye):
    X=             -2.4056    Y=             -2.9934    Z=              0.0000  Tot=              3.8403
 Quadrupole moment (field-independent basis, Debye-Ang):
   XX=             -9.6794   YY=             -6.8983   ZZ=            -14.7142
   XY=             -4.1428   XZ=              0.0000   YZ=             -0.0000

 Normal termination of Gaussian 16 at Sun Aug 28 01:55:39 2022.
