 Gaussian 16, Revision A.03,
 Gaussian 16:  ES64L-G16RevA.03 25-Dec-2016

 ------------------
 #p CCSD(T)/cc-pVTZ
 ------------------

 ------------
 H2O_H2O_2612
 ------------
 Symbolic Z-matrix:
 Charge =  0 Multiplicity = 1

                         Standard orientation:
 ---------------------------------------------------------------------
 Center     Atomic      Atomic             Coordinates (Angstroms)
 Number     Number       Type             X           Y           Z
 ---------------------------------------------------------------------
      1          8           0        0.056002    2.148999    0.000000
      2          1           0        0.054479    1.166399    0.000000
      3          1           0       -0.872996    2.469106    0.000000
      4          8           0        0.056002   -1.970107   -0.000000
      5          1           0        0.749729   -2.665988   -0.000000
      6          1           0       -0.827249   -2.400658   -0.000000
 ---------------------------------------------------------------------

 SCF Done:  E(RHF) =  -152.110488744     A.U. after   10 cycles
 E2 =    -0.5260696958D+00 EUMP2 =    -0.15263655843970D+03
 CCSD(T)
 CCSD(T)= -0.15266367649D+03

 The electronic state is 1-A'.
 Alpha  occ. eigenvalues --  -20.56875 -20.54236  -1.34141  -1.31564  -0.71540
 Alpha  occ. eigenvalues --   -0.68954  -0.57714  -0.55047  -0.51273  -0.48703
 Alpha virt. eigenvalues --    0.12324   0.16283   0.19372   0.23714   0.52872
 Alpha virt. eigenvalues --    0.55644   0.56181   0.58956   0.69016   0.70123
 Alpha virt. eigenvalues --    0.77513   0.78861   0.80135   0.80309   0.83510

 Mulliken charges:
               1
     1  O   -0.521156
     2  H    0.266018
     3  H    0.249952
     4  O   -0.511275
     5  H    0.260343
     6  H    0.256118
 Sum of Mulliken charges =  -0.00000

 Dipole moment (field-independent basis, Debye):
    X=             -1.9041    Y=             -3.2650    Z=             -0.0000  Tot=              3.7797
 Quadrupole moment (field-independent basis, Debye-Ang):
   XX=             -9.2890   YY=             -7.4840   ZZ=            -14.7217
   XY=             -4.1563   XZ=             -0.0000   YZ=              0.0000

 Normal termination of Gaussian 16 at Fri Aug 26 16:00:48 2022.
