 Gaussian 16, Revision A.03,
 Gaussian 16:  ES64L-G16RevA.03 25-Dec-2016

 ------------------
 #p CCSD(T)/cc-pVTZ
 ------------------

 ------------
 H2O_H2O_1494
 ------------
 Symbolic Z-matrix:
 Charge =  0 Multiplicity = 1

                         Standard orientation:
 ---------------------------------------------------------------------
 Center     Atomic      Atomic             Coordinates (Angstroms)
 Number     Number       Type             X           Y           Z
 ---------------------------------------------------------------------
      1          8           0        0.030274    1.698455   -0.000000
      2          1           0        0.026967    0.715859   -0.000000
      3          1           0       -0.898141    2.020248   -0.000000
      4          8           0        0.030274   -1.522906    0.000000
      5          1           0        0.959661   -1.841883    0.000000
      6          1           0       -0.572872   -2.298613    0.000000
 ---------------------------------------------------------------------

 SCF Done:  E(RHF) =  -152.113877492     A.U. after   10 cycles
 E2 =    -0.5271041923D+00 EUMP2 =    -0.15264098168388D+03
 CCSD(T)
 CCSD(T)= -0.15266797857D+03

 The electronic state is 1-A'.
 Alpha  occ. eigenvalues --  -20.57936 -20.52977  -1.35234  -1.30425  -0.72605
 Alpha  occ. eigenvalues --   -0.68063  -0.59065  -0.53764  -0.52361  -0.47580
 Alpha virt. eigenvalues --    0.12132   0.17709   0.18937   0.29052   0.50426
 Alpha virt. eigenvalues --    0.54312   0.55955   0.60247   0.68856   0.72684
 Alpha virt. eigenvalues --    0.74260   0.77073   0.81499   0.82989   0.84622

 Mulliken charges:
               1
     1  O   -0.544410
     2  H    0.277163
     3  H    0.249413
     4  O   -0.504908
     5  H    0.264730
     6  H    0.258012
 Sum of Mulliken charges =  -0.00000

 Dipole moment (field-independent basis, Debye):
    X=             -1.0185    Y=             -3.4468    Z=              0.0000  Tot=              3.5941
 Quadrupole moment (field-independent basis, Debye-Ang):
   XX=             -9.2297   YY=             -8.3308   ZZ=            -14.7344
   XY=             -4.0590   XZ=              0.0000   YZ=             -0.0000

 Normal termination of Gaussian 16 at Sat Aug 27 00:55:37 2022.
