 Gaussian 16, Revision A.03,
 Gaussian 16:  ES64L-G16RevA.03 25-Dec-2016

 ------------------
 #p CCSD(T)/cc-pVTZ
 ------------------

 -----------
 H2O_H2O_748
 -----------
 Symbolic Z-matrix:
 Charge =  0 Multiplicity = 1

                         Standard orientation:
 ---------------------------------------------------------------------
 Center     Atomic      Atomic             Coordinates (Angstroms)
 Number     Number       Type             X           Y           Z
 ---------------------------------------------------------------------
      1          8           0        0.016799   -1.392662    0.000000
      2          1           0        0.011859   -0.410073    0.000000
      3          1           0       -0.911080   -1.715997    0.000000
      4          8           0        0.016799    1.229343    0.000000
      5          1           0        0.996962    1.298536    0.000000
      6          1           0       -0.366530    2.134088    0.000000
 ---------------------------------------------------------------------

 SCF Done:  E(RHF) =  -152.107831954     A.U. after   10 cycles
 E2 =    -0.5300777109D+00 EUMP2 =    -0.15263790966480D+03
 CCSD(T)
 CCSD(T)= -0.15266458524D+03

 The electronic state is 1-A'.
 Alpha  occ. eigenvalues --  -20.59337 -20.50864  -1.37296  -1.28817  -0.75065
 Alpha  occ. eigenvalues --   -0.68210  -0.59987  -0.54136  -0.51440  -0.45887
 Alpha virt. eigenvalues --    0.11793   0.18245   0.19129   0.33335   0.48200
 Alpha virt. eigenvalues --    0.53981   0.57150   0.66219   0.68281   0.72209
 Alpha virt. eigenvalues --    0.74232   0.76480   0.80265   0.83480   0.84056

 Mulliken charges:
               1
     1  O   -0.592340
     2  H    0.295989
     3  H    0.246409
     4  O   -0.446158
     5  H    0.259201
     6  H    0.236899
 Sum of Mulliken charges =  -0.00000

 Dipole moment (field-independent basis, Debye):
    X=             -0.5611    Y=              3.6660    Z=              0.0000  Tot=              3.7087
 Quadrupole moment (field-independent basis, Debye-Ang):
   XX=             -9.5147   YY=             -9.0968   ZZ=            -14.6952
   XY=              3.6202   XZ=              0.0000   YZ=              0.0000

 Normal termination of Gaussian 16 at Fri Aug 26 20:15:56 2022.
