 Gaussian 16, Revision A.03,
 Gaussian 16:  ES64L-G16RevA.03 25-Dec-2016

 ------------------
 #p CCSD(T)/cc-pVTZ
 ------------------

 ------------
 H2O_H2O_2761
 ------------
 Symbolic Z-matrix:
 Charge =  0 Multiplicity = 1

                         Standard orientation:
 ---------------------------------------------------------------------
 Center     Atomic      Atomic             Coordinates (Angstroms)
 Number     Number       Type             X           Y           Z
 ---------------------------------------------------------------------
      1          8           0        0.059649    2.208039    0.000000
      2          1           0        0.058314    1.225438    0.000000
      3          1           0       -0.869411    2.527967    0.000000
      4          8           0        0.059649   -2.030604   -0.000000
      5          1           0        0.706519   -2.770242   -0.000000
      6          1           0       -0.849799   -2.402641   -0.000000
 ---------------------------------------------------------------------

 SCF Done:  E(RHF) =  -152.110090092     A.U. after   10 cycles
 E2 =    -0.5260262224D+00 EUMP2 =    -0.15263611631454D+03
 CCSD(T)
 CCSD(T)= -0.15266324652D+03

 The electronic state is 1-A'.
 Alpha  occ. eigenvalues --  -20.56784 -20.54357  -1.34055  -1.31680  -0.71458
 Alpha  occ. eigenvalues --   -0.69068  -0.57609  -0.55162  -0.51185  -0.48815
 Alpha virt. eigenvalues --    0.12338   0.16116   0.19410   0.23249   0.53119
 Alpha virt. eigenvalues --    0.55565   0.56200   0.58834   0.68920   0.69532
 Alpha virt. eigenvalues --    0.77662   0.79040   0.79832   0.80019   0.83342

 Mulliken charges:
               1
     1  O   -0.519464
     2  H    0.265223
     3  H    0.250095
     4  O   -0.511947
     5  H    0.260227
     6  H    0.255866
 Sum of Mulliken charges =  -0.00000

 Dipole moment (field-independent basis, Debye):
    X=             -2.0301    Y=             -3.2202    Z=             -0.0000  Tot=              3.8067
 Quadrupole moment (field-independent basis, Debye-Ang):
   XX=             -9.3662   YY=             -7.4366   ZZ=            -14.7204
   XY=             -4.0936   XZ=             -0.0000   YZ=             -0.0000

 Normal termination of Gaussian 16 at Fri Aug 26 17:08:03 2022.
