 Gaussian 16, Revision A.03,
 Gaussian 16:  ES64L-G16RevA.03 25-Dec-2016

 ------------------
 #p CCSD(T)/cc-pVTZ
 ------------------

 ------------
 H2O_H2O_4405
 ------------
 Symbolic Z-matrix:
 Charge =  0 Multiplicity = 1

                         Standard orientation:
 ---------------------------------------------------------------------
 Center     Atomic      Atomic             Coordinates (Angstroms)
 Number     Number       Type             X           Y           Z
 ---------------------------------------------------------------------
      1          8           0        0.079845    2.856211    0.000000
      2          1           0        0.079444    1.873610    0.000000
      3          1           0       -0.849519    3.175256   -0.000000
      4          8           0        0.079845   -2.697135    0.000000
      5          1           0        0.395312   -3.627718    0.000000
      6          1           0       -0.902751   -2.693755   -0.000000
 ---------------------------------------------------------------------

 SCF Done:  E(RHF) =  -152.108020406     A.U. after   10 cycles
 E2 =    -0.5258492167D+00 EUMP2 =    -0.15263386962299D+03
 CCSD(T)
 CCSD(T)= -0.15266107459D+03

 The electronic state is 1-A'.
 Alpha  occ. eigenvalues --  -20.56217 -20.55116  -1.33519  -1.32421  -0.70929
 Alpha  occ. eigenvalues --   -0.69818  -0.56993  -0.55881  -0.50633  -0.49538
 Alpha virt. eigenvalues --    0.13049   0.14856   0.19345   0.21272   0.53363
 Alpha virt. eigenvalues --    0.54893   0.56585   0.57763   0.66835   0.68671
 Alpha virt. eigenvalues --    0.78258   0.79326   0.79422   0.80809   0.82387

 Mulliken charges:
               1
     1  O   -0.511486
     2  H    0.259172
     3  H    0.252189
     4  O   -0.512511
     5  H    0.258625
     6  H    0.254011
 Sum of Mulliken charges =  -0.00000

 Dipole moment (field-independent basis, Debye):
    X=             -2.7372    Y=             -2.7943    Z=             -0.0000  Tot=              3.9116
 Quadrupole moment (field-independent basis, Debye-Ang):
   XX=            -10.0941   YY=             -7.5392   ZZ=            -14.7133
   XY=             -3.4376   XZ=             -0.0000   YZ=             -0.0000

 Normal termination of Gaussian 16 at Sun Aug 28 02:33:19 2022.
