 Gaussian 16, Revision A.03,
 Gaussian 16:  ES64L-G16RevA.03 25-Dec-2016

 ------------------
 #p CCSD(T)/cc-pVTZ
 ------------------

 ------------
 H2O_H2O_2011
 ------------
 Symbolic Z-matrix:
 Charge =  0 Multiplicity = 1

                         Standard orientation:
 ---------------------------------------------------------------------
 Center     Atomic      Atomic             Coordinates (Angstroms)
 Number     Number       Type             X           Y           Z
 ---------------------------------------------------------------------
      1          8           0        0.059668    1.908868    0.000000
      2          1           0        0.058115    0.926267    0.000000
      3          1           0       -0.869320    2.229003   -0.000000
      4          8           0        0.059668   -1.731460    0.000000
      5          1           0        0.706374   -2.471242    0.000000
      6          1           0       -0.849862   -2.103294   -0.000000
 ---------------------------------------------------------------------

 SCF Done:  E(RHF) =  -152.111935589     A.U. after   10 cycles
 E2 =    -0.5264548645D+00 EUMP2 =    -0.15263839045335D+03
 CCSD(T)
 CCSD(T)= -0.15266546019D+03

 The electronic state is 1-A'.
 Alpha  occ. eigenvalues --  -20.57352 -20.53770  -1.34606  -1.31125  -0.71999
 Alpha  occ. eigenvalues --   -0.68541  -0.58274  -0.54577  -0.51741  -0.48270
 Alpha virt. eigenvalues --    0.12128   0.16852   0.19249   0.26082   0.51504
 Alpha virt. eigenvalues --    0.55333   0.56236   0.58849   0.68996   0.72340
 Alpha virt. eigenvalues --    0.76271   0.77790   0.80662   0.83408   0.84056

 Mulliken charges:
               1
     1  O   -0.527095
     2  H    0.269163
     3  H    0.247182
     4  O   -0.506795
     5  H    0.261710
     6  H    0.255836
 Sum of Mulliken charges =  -0.00000

 Dipole moment (field-independent basis, Debye):
    X=             -2.0166    Y=             -3.3351    Z=             -0.0000  Tot=              3.8973
 Quadrupole moment (field-independent basis, Debye-Ang):
   XX=             -9.3725   YY=             -7.9192   ZZ=            -14.7274
   XY=             -3.7456   XZ=              0.0000   YZ=             -0.0000

 548456\MP4DQ=-152.64727\MP4SDQ=-152.650355\CCSD=-152.6497455\CCSD(T)=-
 Normal termination of Gaussian 16 at Sun Aug 28 03:37:06 2022.
