 Gaussian 16, Revision A.03,
 Gaussian 16:  ES64L-G16RevA.03 25-Dec-2016

 ------------------
 #p CCSD(T)/cc-pVTZ
 ------------------

 ------------
 H2O_H2O_4640
 ------------
 Symbolic Z-matrix:
 Charge =  0 Multiplicity = 1

                         Standard orientation:
 ---------------------------------------------------------------------
 Center     Atomic      Atomic             Coordinates (Angstroms)
 Number     Number       Type             X           Y           Z
 ---------------------------------------------------------------------
      1          8           0        0.044823    2.957562    0.000000
      2          1           0        0.043399    1.974962    0.000000
      3          1           0       -0.884207    3.277575   -0.000000
      4          8           0        0.044823   -2.777128    0.000000
      5          1           0        0.861036   -3.324215    0.000000
      6          1           0       -0.737399   -3.371799   -0.000000
 ---------------------------------------------------------------------

 SCF Done:  E(RHF) =  -152.108374227     A.U. after   10 cycles
 E2 =    -0.5258057542D+00 EUMP2 =    -0.15263417998081D+03
 CCSD(T)
 CCSD(T)= -0.15266137880D+03

 The electronic state is 1-A'.
 Alpha  occ. eigenvalues --  -20.56161 -20.54969  -1.33462  -1.32276  -0.70866
 Alpha  occ. eigenvalues --   -0.69678  -0.56954  -0.55747  -0.50581  -0.49399
 Alpha virt. eigenvalues --    0.13431   0.14881   0.19719   0.20992   0.53685
 Alpha virt. eigenvalues --    0.54836   0.56685   0.57793   0.66907   0.68676
 Alpha virt. eigenvalues --    0.78304   0.79458   0.79712   0.80247   0.82574

 Mulliken charges:
               1
     1  O   -0.513750
     2  H    0.260184
     3  H    0.253477
     4  O   -0.514449
     5  H    0.258022
     6  H    0.256517
 Sum of Mulliken charges =   0.00000

 Dipole moment (field-independent basis, Debye):
    X=             -1.5378    Y=             -3.1637    Z=              0.0000  Tot=              3.5176
 Quadrupole moment (field-independent basis, Debye-Ang):
   XX=             -9.1569   YY=             -6.1233   ZZ=            -14.7147
   XY=             -5.8806   XZ=             -0.0000   YZ=             -0.0000

 Normal termination of Gaussian 16 at Sun Aug 28 04:34:04 2022.
