 Gaussian 16, Revision A.03,
 Gaussian 16:  ES64L-G16RevA.03 25-Dec-2016

 ------------------
 #p CCSD(T)/cc-pVTZ
 ------------------

 ------------
 H2O_H2O_2519
 ------------
 Symbolic Z-matrix:
 Charge =  0 Multiplicity = 1

                         Standard orientation:
 ---------------------------------------------------------------------
 Center     Atomic      Atomic             Coordinates (Angstroms)
 Number     Number       Type             X           Y           Z
 ---------------------------------------------------------------------
      1          8           0        0.030214    2.107323   -0.000000
      2          1           0        0.027577    1.124725   -0.000000
      3          1           0       -0.898420    2.428483   -0.000000
      4          8           0        0.030214   -1.931733    0.000000
      5          1           0        0.959818   -2.250076    0.000000
      6          1           0       -0.572403   -2.707851    0.000000
 ---------------------------------------------------------------------

 SCF Done:  E(RHF) =  -152.110944204     A.U. after   10 cycles
 E2 =    -0.5260683792D+00 EUMP2 =    -0.15263701258348D+03
 CCSD(T)
 CCSD(T)= -0.15266412052D+03

 The electronic state is 1-A'.
 Alpha  occ. eigenvalues --  -20.56918 -20.54187  -1.34184  -1.31519  -0.71582
 Alpha  occ. eigenvalues --   -0.68923  -0.57781  -0.55009  -0.51320  -0.48665
 Alpha virt. eigenvalues --    0.12337   0.16433   0.19295   0.24164   0.53073
 Alpha virt. eigenvalues --    0.55523   0.56412   0.58733   0.69011   0.70606
 Alpha virt. eigenvalues --    0.77397   0.78884   0.80180   0.80978   0.83658

 Mulliken charges:
               1
     1  O   -0.524346
     2  H    0.266104
     3  H    0.252455
     4  O   -0.512235
     5  H    0.260339
     6  H    0.257683
 Sum of Mulliken charges =  -0.00000

 Dipole moment (field-independent basis, Debye):
    X=             -1.0286    Y=             -3.2155    Z=              0.0000  Tot=              3.3760
 Quadrupole moment (field-independent basis, Debye-Ang):
   XX=             -9.2296   YY=             -7.6367   ZZ=            -14.7232
   XY=             -4.9562   XZ=              0.0000   YZ=              0.0000

 CCSD(T)=-152.6641205\RMSD=6.621e-09\PG=CS [SG(H4O2)]\\@
 Normal termination of Gaussian 16 at Fri Aug 26 15:19:30 2022.
