 Gaussian 16, Revision A.03,
 Gaussian 16:  ES64L-G16RevA.03 25-Dec-2016

 ------------------
 #p CCSD(T)/cc-pVTZ
 ------------------

 -----------
 H2O_H2O_696
 -----------
 Symbolic Z-matrix:
 Charge =  0 Multiplicity = 1

                         Standard orientation:
 ---------------------------------------------------------------------
 Center     Atomic      Atomic             Coordinates (Angstroms)
 Number     Number       Type             X           Y           Z
 ---------------------------------------------------------------------
      1          8           0       -0.023380    1.376504    0.000000
      2          1           0       -0.018797    0.393914    0.000000
      3          1           0        0.904617    1.699503    0.000000
      4          8           0       -0.023380   -1.206211    0.000000
      5          1           0       -0.986197   -1.402401    0.000000
      6          1           0        0.474455   -2.053363    0.000000
 ---------------------------------------------------------------------

 SCF Done:  E(RHF) =  -152.107300131     A.U. after   10 cycles
 E2 =    -0.5303271634D+00 EUMP2 =    -0.15263762729460D+03
 CCSD(T)
 CCSD(T)= -0.15266423833D+03

 The electronic state is 1-A'.
 Alpha  occ. eigenvalues --  -20.59530 -20.50305  -1.37552  -1.28370  -0.75014
 Alpha  occ. eigenvalues --   -0.68794  -0.59702  -0.54378  -0.50877  -0.45418
 Alpha virt. eigenvalues --    0.11678   0.18228   0.19169   0.33473   0.47916
 Alpha virt. eigenvalues --    0.54061   0.57757   0.66485   0.68201   0.72292
 Alpha virt. eigenvalues --    0.73531   0.77163   0.80533   0.83628   0.84052

 Mulliken charges:
               1
     1  O   -0.598601
     2  H    0.301411
     3  H    0.242046
     4  O   -0.447994
     5  H    0.261353
     6  H    0.241785
 Sum of Mulliken charges =  -0.00000

 Dipole moment (field-independent basis, Debye):
    X=              0.7683    Y=             -3.8686    Z=              0.0000  Tot=              3.9442
 Quadrupole moment (field-independent basis, Debye-Ang):
   XX=             -9.3327   YY=             -9.1441   ZZ=            -14.6942
   XY=              3.4281   XZ=              0.0000   YZ=              0.0000

 Normal termination of Gaussian 16 at Fri Aug 26 19:54:32 2022.
