 Gaussian 16, Revision A.03,
 Gaussian 16:  ES64L-G16RevA.03 25-Dec-2016

 ------------------
 #p CCSD(T)/cc-pVTZ
 ------------------

 -----------
 H2O_H2O_186
 -----------
 Symbolic Z-matrix:
 Charge =  0 Multiplicity = 1

                         Standard orientation:
 ---------------------------------------------------------------------
 Center     Atomic      Atomic             Coordinates (Angstroms)
 Number     Number       Type             X           Y           Z
 ---------------------------------------------------------------------
      1          8           0        0.059762    1.180855   -0.000000
      2          1           0        0.057173    0.198257   -0.000000
      3          1           0       -0.868889    1.501969   -0.000000
      4          8           0        0.059762   -1.003573    0.000000
      5          1           0        0.705688   -1.744036    0.000000
      6          1           0       -0.850160   -1.374448    0.000000
 ---------------------------------------------------------------------

 SCF Done:  E(RHF) =  -152.066275228     A.U. after   11 cycles
 E2 =    -0.5349416126D+00 EUMP2 =    -0.15260121684106D+03
 CCSD(T)
 CCSD(T)= -0.15262701726D+03

 The electronic state is 1-A'.
 Alpha  occ. eigenvalues --  -20.61513 -20.45885  -1.41918  -1.25477  -0.78315
 Alpha  occ. eigenvalues --   -0.75183  -0.57509  -0.55879  -0.46300  -0.42139
 Alpha virt. eigenvalues --    0.10604   0.16539   0.20926   0.32934   0.47865
 Alpha virt. eigenvalues --    0.52351   0.62087   0.63907   0.71438   0.71474
 Alpha virt. eigenvalues --    0.78804   0.79252   0.81023   0.82880   0.85449

 Mulliken charges:
               1
     1  O   -0.644729
     2  H    0.298131
     3  H    0.205557
     4  O   -0.348319
     5  H    0.245217
     6  H    0.244143
 Sum of Mulliken charges =  -0.00000

 Dipole moment (field-independent basis, Debye):
    X=             -1.8366    Y=             -4.7590    Z=              0.0000  Tot=              5.1011
 Quadrupole moment (field-independent basis, Debye-Ang):
   XX=             -9.3334   YY=             -9.9553   ZZ=            -14.5933
   XY=             -2.7449   XZ=              0.0000   YZ=             -0.0000

 Normal termination of Gaussian 16 at Fri Aug 26 16:27:33 2022.
