 Gaussian 16, Revision A.03,
 Gaussian 16:  ES64L-G16RevA.03 25-Dec-2016

 ------------------
 #p CCSD(T)/cc-pVTZ
 ------------------

 -----------
 H2O_H2O_877
 -----------
 Symbolic Z-matrix:
 Charge =  0 Multiplicity = 1

                         Standard orientation:
 ---------------------------------------------------------------------
 Center     Atomic      Atomic             Coordinates (Angstroms)
 Number     Number       Type             X           Y           Z
 ---------------------------------------------------------------------
      1          8           0        0.088240   -1.442143    0.000000
      2          1           0        0.087948   -0.459542    0.000000
      3          1           0       -0.841158   -1.761086    0.000000
      4          8           0        0.088240    1.297844    0.000000
      5          1           0        0.216206    2.272078    0.000000
      6          1           0       -0.874838    1.102941    0.000000
 ---------------------------------------------------------------------

 SCF Done:  E(RHF) =  -152.105783403     A.U. after   10 cycles
 E2 =    -0.5301248518D+00 EUMP2 =    -0.15263590825515D+03
 CCSD(T)
 CCSD(T)= -0.15266277766D+03

 The electronic state is 1-A'.
 Alpha  occ. eigenvalues --  -20.58994 -20.52735  -1.36795  -1.30376  -0.75033
 Alpha  occ. eigenvalues --   -0.68084  -0.59704  -0.53633  -0.53443  -0.47423
 Alpha virt. eigenvalues --    0.11435   0.16534   0.20501   0.31405   0.48271
 Alpha virt. eigenvalues --    0.53139   0.58472   0.61478   0.68726   0.71749
 Alpha virt. eigenvalues --    0.74145   0.77977   0.79914   0.82349   0.83203

 Mulliken charges:
               1
     1  O   -0.546181
     2  H    0.287933
     3  H    0.228170
     4  O   -0.438294
     5  H    0.234793
     6  H    0.233580
 Sum of Mulliken charges =  -0.00000

 Dipole moment (field-independent basis, Debye):
    X=             -2.8890    Y=              3.1242    Z=              0.0000  Tot=              4.2553
 Quadrupole moment (field-independent basis, Debye-Ang):
   XX=            -10.6047   YY=             -9.1078   ZZ=            -14.6870
   XY=              2.3688   XZ=              0.0000   YZ=              0.0000

 Normal termination of Gaussian 16 at Fri Aug 26 21:04:53 2022.
