 Gaussian 16, Revision A.03,
 Gaussian 16:  ES64L-G16RevA.03 25-Dec-2016

 ------------------
 #p CCSD(T)/cc-pVTZ
 ------------------

 ------------
 H2O_H2O_4988
 ------------
 Symbolic Z-matrix:
 Charge =  0 Multiplicity = 1

                         Standard orientation:
 ---------------------------------------------------------------------
 Center     Atomic      Atomic             Coordinates (Angstroms)
 Number     Number       Type             X           Y           Z
 ---------------------------------------------------------------------
      1          8           0        0.052264    3.096895    0.000000
      2          1           0        0.051116    2.114294    0.000000
      3          1           0       -0.876856    3.416646   -0.000000
      4          8           0        0.052264   -2.916964    0.000000
      5          1           0        0.790265   -3.565700    0.000000
      6          1           0       -0.800750   -3.404686   -0.000000
 ---------------------------------------------------------------------

 SCF Done:  E(RHF) =  -152.108190977     A.U. after   10 cycles
 E2 =    -0.5258113648D+00 EUMP2 =    -0.15263400234212D+03
 CCSD(T)
 CCSD(T)= -0.15266120612D+03

 The electronic state is 1-A'.
 Alpha  occ. eigenvalues --  -20.56111 -20.55044  -1.33413  -1.32349  -0.70818
 Alpha  occ. eigenvalues --   -0.69751  -0.56896  -0.55816  -0.50530  -0.49470
 Alpha virt. eigenvalues --    0.13545   0.14747   0.19742   0.20873   0.53731
 Alpha virt. eigenvalues --    0.54793   0.56720   0.57753   0.67089   0.68486
 Alpha virt. eigenvalues --    0.78353   0.79391   0.79760   0.80542   0.82164

 Mulliken charges:
               1
     1  O   -0.512859
     2  H    0.259436
     3  H    0.253392
     4  O   -0.513512
     5  H    0.257684
     6  H    0.255858
 Sum of Mulliken charges =  -0.00000

 Dipole moment (field-independent basis, Debye):
    X=             -1.7944    Y=             -3.1473    Z=             -0.0000  Tot=              3.6229
 Quadrupole moment (field-independent basis, Debye-Ang):
   XX=             -9.2249   YY=             -5.9285   ZZ=            -14.7141
   XY=             -5.6205   XZ=             -0.0000   YZ=             -0.0000

 Normal termination of Gaussian 16 at Sun Aug 28 07:29:09 2022.
