 Gaussian 16, Revision A.03,
 Gaussian 16:  ES64L-G16RevA.03 25-Dec-2016

 ------------------
 #p CCSD(T)/cc-pVTZ
 ------------------

 ------------
 H2O_H2O_2528
 ------------
 Symbolic Z-matrix:
 Charge =  0 Multiplicity = 1

                         Standard orientation:
 ---------------------------------------------------------------------
 Center     Atomic      Atomic             Coordinates (Angstroms)
 Number     Number       Type             X           Y           Z
 ---------------------------------------------------------------------
      1          8           0        0.085603   -2.103165    0.000000
      2          1           0        0.085296   -1.120563    0.000000
      3          1           0       -0.843790   -2.422122    0.000000
      4          8           0        0.085603    1.953573    0.000000
      5          1           0        0.276998    2.917354    0.000000
      6          1           0       -0.888157    1.822060    0.000000
 ---------------------------------------------------------------------

 SCF Done:  E(RHF) =  -152.109152322     A.U. after   10 cycles
 E2 =    -0.5262309512D+00 EUMP2 =    -0.15263538327367D+03
 CCSD(T)
 CCSD(T)= -0.15266252712D+03

 The electronic state is 1-A'.
 Alpha  occ. eigenvalues --  -20.56912 -20.54738  -1.34196  -1.32049  -0.71636
 Alpha  occ. eigenvalues --   -0.69418  -0.57702  -0.55504  -0.51309  -0.49170
 Alpha virt. eigenvalues --    0.11725   0.15972   0.19632   0.23887   0.53698
 Alpha virt. eigenvalues --    0.55438   0.56453   0.58076   0.68624   0.70605
 Alpha virt. eigenvalues --    0.77393   0.79161   0.79737   0.80531   0.83100

 Mulliken charges:
               1
     1  O   -0.514992
     2  H    0.263650
     3  H    0.247590
     4  O   -0.506320
     5  H    0.259311
     6  H    0.250761
 Sum of Mulliken charges =  -0.00000

 Dipole moment (field-independent basis, Debye):
    X=             -2.9050    Y=              2.7287    Z=              0.0000  Tot=              3.9855
 Quadrupole moment (field-independent basis, Debye-Ang):
   XX=            -10.4170   YY=             -8.5122   ZZ=            -14.7164
   XY=              2.7322   XZ=              0.0000   YZ=              0.0000

 Normal termination of Gaussian 16 at Fri Aug 26 15:23:03 2022.
