 Gaussian 16, Revision A.03,
 Gaussian 16:  ES64L-G16RevA.03 25-Dec-2016

 ------------------
 #p CCSD(T)/cc-pVTZ
 ------------------

 ------------
 H2O_H2O_2321
 ------------
 Symbolic Z-matrix:
 Charge =  0 Multiplicity = 1

                         Standard orientation:
 ---------------------------------------------------------------------
 Center     Atomic      Atomic             Coordinates (Angstroms)
 Number     Number       Type             X           Y           Z
 ---------------------------------------------------------------------
      1          8           0       -0.023247    2.024712    0.000000
      2          1           0       -0.020196    1.042115    0.000000
      3          1           0        0.905252    2.346263    0.000000
      4          8           0       -0.023247   -1.854346    0.000000
      5          1           0       -0.986368   -2.049034    0.000000
      6          1           0        0.473268   -2.702273    0.000000
 ---------------------------------------------------------------------

 SCF Done:  E(RHF) =  -152.111336937     A.U. after   10 cycles
 E2 =    -0.5261630504D+00 EUMP2 =    -0.15263749998719D+03
 CCSD(T)
 CCSD(T)= -0.15266459524D+03

 The electronic state is 1-A'.
 Alpha  occ. eigenvalues --  -20.57047 -20.54121  -1.34314  -1.31459  -0.71718
 Alpha  occ. eigenvalues --   -0.68872  -0.57935  -0.54944  -0.51450  -0.48609
 Alpha virt. eigenvalues --    0.12262   0.16616   0.19244   0.24932   0.53197
 Alpha virt. eigenvalues --    0.55255   0.56284   0.58649   0.68894   0.71565
 Alpha virt. eigenvalues --    0.77054   0.78838   0.80273   0.82267   0.83633

 Mulliken charges:
               1
     1  O   -0.526636
     2  H    0.266374
     3  H    0.253120
     4  O   -0.511211
     5  H    0.260422
     6  H    0.257931
 Sum of Mulliken charges =  -0.00000

 Dipole moment (field-independent basis, Debye):
    X=              0.7927    Y=             -3.1457    Z=              0.0000  Tot=              3.2440
 Quadrupole moment (field-independent basis, Debye-Ang):
   XX=             -9.3619   YY=             -7.8986   ZZ=            -14.7246
   XY=              5.0295   XZ=              0.0000   YZ=              0.0000

 Normal termination of Gaussian 16 at Sun Aug 28 06:18:05 2022.
