 Gaussian 16, Revision A.03,
 Gaussian 16:  ES64L-G16RevA.03 25-Dec-2016

 ------------------
 #p CCSD(T)/cc-pVTZ
 ------------------

 ------------
 H2O_H2O_4071
 ------------
 Symbolic Z-matrix:
 Charge =  0 Multiplicity = 1

                         Standard orientation:
 ---------------------------------------------------------------------
 Center     Atomic      Atomic             Coordinates (Angstroms)
 Number     Number       Type             X           Y           Z
 ---------------------------------------------------------------------
      1          8           0       -0.023177    2.722764    0.000000
      2          1           0       -0.020933    1.740165    0.000000
      3          1           0        0.905586    3.043552    0.000000
      4          8           0       -0.023177   -2.552360    0.000000
      5          1           0       -0.986458   -2.746255    0.000000
      6          1           0        0.472640   -3.400694    0.000000
 ---------------------------------------------------------------------

 SCF Done:  E(RHF) =  -152.108726974     A.U. after   10 cycles
 E2 =    -0.5258067904D+00 EUMP2 =    -0.15263453376478D+03
 CCSD(T)
 CCSD(T)= -0.15266172139D+03

 The electronic state is 1-A'.
 Alpha  occ. eigenvalues --  -20.56267 -20.54909  -1.33567  -1.32219  -0.70972
 Alpha  occ. eigenvalues --   -0.69624  -0.57072  -0.55698  -0.50688  -0.49346
 Alpha virt. eigenvalues --    0.13027   0.15149   0.19475   0.21449   0.53377
 Alpha virt. eigenvalues --    0.55035   0.56620   0.57834   0.66685   0.68986
 Alpha virt. eigenvalues --    0.78203   0.79152   0.79504   0.80408   0.82786

 Mulliken charges:
               1
     1  O   -0.515473
     2  H    0.260746
     3  H    0.254370
     4  O   -0.515807
     5  H    0.257950
     6  H    0.258215
 Sum of Mulliken charges =  -0.00000

 Dipole moment (field-independent basis, Debye):
    X=              0.7951    Y=             -3.0037    Z=              0.0000  Tot=              3.1071
 Quadrupole moment (field-independent basis, Debye-Ang):
   XX=             -9.3617   YY=             -7.0090   ZZ=            -14.7158
   XY=              6.7108   XZ=              0.0000   YZ=              0.0000

 1892\MP4DQ=-152.6436467\MP4SDQ=-152.6466928\CCSD=-152.6461079\CCSD(T)=
 Normal termination of Gaussian 16 at Sat Aug 27 23:08:48 2022.
