 Gaussian 16, Revision A.03,
 Gaussian 16:  ES64L-G16RevA.03 25-Dec-2016

 ------------------
 #p CCSD(T)/cc-pVTZ
 ------------------

 ----------
 H2O_H2O_33
 ----------
 Symbolic Z-matrix:
 Charge =  0 Multiplicity = 1

                         Standard orientation:
 ---------------------------------------------------------------------
 Center     Atomic      Atomic             Coordinates (Angstroms)
 Number     Number       Type             X           Y           Z
 ---------------------------------------------------------------------
      1          8           0        0.070286    1.117119   -0.000000
      2          1           0        0.068416    0.134519   -0.000000
      3          1           0       -0.858598    1.437554   -0.000000
      4          8           0        0.070286   -0.947020    0.000000
      5          1           0        0.559967   -1.798912    0.000000
      6          1           0       -0.894369   -1.133956    0.000000
 ---------------------------------------------------------------------

 SCF Done:  E(RHF) =  -152.030340513     A.U. after   11 cycles
 E2 =    -0.5373010634D+00 EUMP2 =    -0.15256764157635D+03
 CCSD(T)
 CCSD(T)= -0.15259311714D+03

 The electronic state is 1-A'.
 Alpha  occ. eigenvalues --  -20.62135 -20.44578  -1.44478  -1.24799  -0.82041
 Alpha  occ. eigenvalues --   -0.75563  -0.58858  -0.54534  -0.44853  -0.41311
 Alpha virt. eigenvalues --    0.10284   0.15897   0.21579   0.32009   0.48961
 Alpha virt. eigenvalues --    0.51498   0.60515   0.64265   0.70392   0.71594
 Alpha virt. eigenvalues --    0.77433   0.79367   0.81816   0.84264   0.88461

 Mulliken charges:
               1
     1  O   -0.654876
     2  H    0.273171
     3  H    0.190920
     4  O   -0.284824
     5  H    0.233116
     6  H    0.242494
 Sum of Mulliken charges =  -0.00000

 Dipole moment (field-independent basis, Debye):
    X=             -2.1211    Y=             -4.8821    Z=              0.0000  Tot=              5.3230
 Quadrupole moment (field-independent basis, Debye-Ang):
   XX=             -9.6373   YY=            -10.1760   ZZ=            -14.5275
   XY=             -2.5579   XZ=              0.0000   YZ=              0.0000

 Normal termination of Gaussian 16 at Fri Aug 26 15:24:40 2022.
