 Gaussian 16, Revision A.03,
 Gaussian 16:  ES64L-G16RevA.03 25-Dec-2016

 ------------------
 #p CCSD(T)/cc-pVTZ
 ------------------

 ----------
 H2O_H2O_95
 ----------
 Symbolic Z-matrix:
 Charge =  0 Multiplicity = 1

                         Standard orientation:
 ---------------------------------------------------------------------
 Center     Atomic      Atomic             Coordinates (Angstroms)
 Number     Number       Type             X           Y           Z
 ---------------------------------------------------------------------
      1          8           0        0.026909    1.138691   -0.000000
      2          1           0        0.021562    0.156104   -0.000000
      3          1           0       -0.900836    1.462411   -0.000000
      4          8           0        0.026909   -0.965621    0.000000
      5          1           0        0.974631   -1.225098    0.000000
      6          1           0       -0.525899   -1.777970    0.000000
 ---------------------------------------------------------------------

 SCF Done:  E(RHF) =  -152.045743716     A.U. after   11 cycles
 E2 =    -0.5356686313D+00 EUMP2 =    -0.15258141234710D+03
 CCSD(T)
 CCSD(T)= -0.15260699544D+03

 The electronic state is 1-A'.
 Alpha  occ. eigenvalues --  -20.61819 -20.44547  -1.43401  -1.24684  -0.80721
 Alpha  occ. eigenvalues --   -0.75102  -0.58315  -0.55442  -0.44674  -0.41252
 Alpha virt. eigenvalues --    0.10556   0.16857   0.20901   0.33455   0.46951
 Alpha virt. eigenvalues --    0.51958   0.60988   0.68518   0.70667   0.70841
 Alpha virt. eigenvalues --    0.76878   0.78062   0.80956   0.84144   0.87401

 Mulliken charges:
               1
     1  O   -0.677326
     2  H    0.283325
     3  H    0.216335
     4  O   -0.319460
     5  H    0.263816
     6  H    0.233310
 Sum of Mulliken charges =  -0.00000

 Dipole moment (field-independent basis, Debye):
    X=             -0.8150    Y=             -4.8824    Z=              0.0000  Tot=              4.9499
 Quadrupole moment (field-independent basis, Debye-Ang):
   XX=             -9.1879   YY=            -10.1234   ZZ=            -14.5605
   XY=             -2.7474   XZ=              0.0000   YZ=              0.0000

 Normal termination of Gaussian 16 at Fri Aug 26 15:49:26 2022.
