 Gaussian 16, Revision A.03,
 Gaussian 16:  ES64L-G16RevA.03 25-Dec-2016

 ------------------
 #p CCSD(T)/cc-pVTZ
 ------------------

 -----------
 H2O_H2O_545
 -----------
 Symbolic Z-matrix:
 Charge =  0 Multiplicity = 1

                         Standard orientation:
 ---------------------------------------------------------------------
 Center     Atomic      Atomic             Coordinates (Angstroms)
 Number     Number       Type             X           Y           Z
 ---------------------------------------------------------------------
      1          8           0        0.026840    1.318204   -0.000000
      2          1           0        0.022272    0.335613   -0.000000
      3          1           0       -0.901161    1.641188   -0.000000
      4          8           0        0.026840   -1.145092    0.000000
      5          1           0        0.974767   -1.403818    0.000000
      6          1           0       -0.525324   -1.957879    0.000000
 ---------------------------------------------------------------------

 SCF Done:  E(RHF) =  -152.101489940     A.U. after   11 cycles
 E2 =    -0.5314099981D+00 EUMP2 =    -0.15263289993773D+03
 CCSD(T)
 CCSD(T)= -0.15265932315D+03

 The electronic state is 1-A'.
 Alpha  occ. eigenvalues --  -20.60020 -20.49185  -1.38443  -1.27568  -0.75720
 Alpha  occ. eigenvalues --   -0.70027  -0.59052  -0.55087  -0.49703  -0.44549
 Alpha virt. eigenvalues --    0.11453   0.17969   0.19546   0.33813   0.47504
 Alpha virt. eigenvalues --    0.53697   0.58948   0.67703   0.68672   0.72247
 Alpha virt. eigenvalues --    0.73922   0.77642   0.80084   0.83816   0.83889

 Mulliken charges:
               1
     1  O   -0.614801
     2  H    0.304543
     3  H    0.236297
     4  O   -0.429409
     5  H    0.261452
     6  H    0.241917
 Sum of Mulliken charges =  -0.00000

 Dipole moment (field-independent basis, Debye):
    X=             -0.8682    Y=             -4.1096    Z=              0.0000  Tot=              4.2003
 Quadrupole moment (field-independent basis, Debye-Ang):
   XX=             -9.2492   YY=             -9.3501   ZZ=            -14.6751
   XY=             -3.2230   XZ=              0.0000   YZ=             -0.0000

 Normal termination of Gaussian 16 at Fri Aug 26 18:57:40 2022.
