 Gaussian 16, Revision A.03,
 Gaussian 16:  ES64L-G16RevA.03 25-Dec-2016

 ------------------
 #p CCSD(T)/cc-pVTZ
 ------------------

 ------------
 H2O_H2O_4895
 ------------
 Symbolic Z-matrix:
 Charge =  0 Multiplicity = 1

                         Standard orientation:
 ---------------------------------------------------------------------
 Center     Atomic      Atomic             Coordinates (Angstroms)
 Number     Number       Type             X           Y           Z
 ---------------------------------------------------------------------
      1          8           0        0.026605    3.053385    0.000000
      2          1           0        0.024708    2.070786    0.000000
      3          1           0       -0.902271    3.373845    0.000000
      4          8           0        0.026605   -2.880128   -0.000000
      5          1           0        0.975233   -3.136276   -0.000000
      6          1           0       -0.523346   -3.694413   -0.000000
 ---------------------------------------------------------------------

 SCF Done:  E(RHF) =  -152.108303402     A.U. after   10 cycles
 E2 =    -0.5258001037D+00 EUMP2 =    -0.15263410350613D+03
 CCSD(T)
 CCSD(T)= -0.15266130517D+03

 The electronic state is 1-A'.
 Alpha  occ. eigenvalues --  -20.56118 -20.55062  -1.33421  -1.32368  -0.70826
 Alpha  occ. eigenvalues --   -0.69773  -0.56909  -0.55839  -0.50539  -0.49491
 Alpha virt. eigenvalues --    0.13499   0.14770   0.19682   0.20938   0.53675
 Alpha virt. eigenvalues --    0.54801   0.56720   0.57750   0.67042   0.68492
 Alpha virt. eigenvalues --    0.78343   0.79369   0.79715   0.80597   0.82154

 Mulliken charges:
               1
     1  O   -0.513644
     2  H    0.259276
     3  H    0.254329
     4  O   -0.514162
     5  H    0.257144
     6  H    0.257057
 Sum of Mulliken charges =  -0.00000

 Dipole moment (field-independent basis, Debye):
    X=             -0.9139    Y=             -3.0316    Z=             -0.0000  Tot=              3.1663
 Quadrupole moment (field-independent basis, Debye-Ang):
   XX=             -9.2898   YY=             -6.4044   ZZ=            -14.7144
   XY=             -7.2554   XZ=             -0.0000   YZ=              0.0000

 Normal termination of Gaussian 16 at Sun Aug 28 06:44:16 2022.
