 Gaussian 16, Revision A.03,
 Gaussian 16:  ES64L-G16RevA.03 25-Dec-2016

 ------------------
 #p CCSD(T)/cc-pVTZ
 ------------------

 -----------
 H2O_H2O_326
 -----------
 Symbolic Z-matrix:
 Charge =  0 Multiplicity = 1

                         Standard orientation:
 ---------------------------------------------------------------------
 Center     Atomic      Atomic             Coordinates (Angstroms)
 Number     Number       Type             X           Y           Z
 ---------------------------------------------------------------------
      1          8           0        0.090690   -1.219715    0.000000
      2          1           0        0.090523   -0.237114    0.000000
      3          1           0       -0.838748   -1.538540    0.000000
      4          8           0        0.090690    1.081022    0.000000
      5          1           0        0.154789    2.061531    0.000000
      6          1           0       -0.857611    0.823668    0.000000
 ---------------------------------------------------------------------

 SCF Done:  E(RHF) =  -152.072654032     A.U. after   11 cycles
 E2 =    -0.5355686841D+00 EUMP2 =    -0.15260822271642D+03
 CCSD(T)
 CCSD(T)= -0.15263440055D+03

 The electronic state is 1-A'.
 Alpha  occ. eigenvalues --  -20.60615 -20.49824  -1.40614  -1.28340  -0.80142
 Alpha  occ. eigenvalues --   -0.68830  -0.58631  -0.56166  -0.50580  -0.45245
 Alpha virt. eigenvalues --    0.11036   0.16205   0.21335   0.32240   0.49023
 Alpha virt. eigenvalues --    0.51307   0.59387   0.66309   0.71375   0.72644
 Alpha virt. eigenvalues --    0.75262   0.76331   0.79181   0.82756   0.84769

 Mulliken charges:
               1
     1  O   -0.577325
     2  H    0.275125
     3  H    0.203837
     4  O   -0.360058
     5  H    0.227204
     6  H    0.231216
 Sum of Mulliken charges =  -0.00000

 Dipole moment (field-independent basis, Debye):
    X=             -2.8760    Y=              3.6122    Z=              0.0000  Tot=              4.6173
 Quadrupole moment (field-independent basis, Debye-Ang):
   XX=            -10.7058   YY=             -9.6353   ZZ=            -14.5904
   XY=              2.1062   XZ=              0.0000   YZ=              0.0000

 Normal termination of Gaussian 16 at Fri Aug 26 17:27:14 2022.
