 Gaussian 16, Revision A.03,
 Gaussian 16:  ES64L-G16RevA.03 25-Dec-2016

 ------------------
 #p CCSD(T)/cc-pVTZ
 ------------------

 ------------
 H2O_H2O_2841
 ------------
 Symbolic Z-matrix:
 Charge =  0 Multiplicity = 1

                         Standard orientation:
 ---------------------------------------------------------------------
 Center     Atomic      Atomic             Coordinates (Angstroms)
 Number     Number       Type             X           Y           Z
 ---------------------------------------------------------------------
      1          8           0        0.041150    2.239305    0.000000
      2          1           0        0.039104    1.256705    0.000000
      3          1           0       -0.887677    2.559906    0.000000
      4          8           0        0.041150   -2.059389   -0.000000
      5          1           0        0.891084   -2.552461   -0.000000
      6          1           0       -0.700913   -2.703476   -0.000000
 ---------------------------------------------------------------------

 SCF Done:  E(RHF) =  -152.110245273     A.U. after   10 cycles
 E2 =    -0.5259694973D+00 EUMP2 =    -0.15263621476989D+03
 CCSD(T)
 CCSD(T)= -0.15266334496D+03

 The electronic state is 1-A'.
 Alpha  occ. eigenvalues --  -20.56732 -20.54340  -1.34005  -1.31664  -0.71403
 Alpha  occ. eigenvalues --   -0.69060  -0.57566  -0.55154  -0.51137  -0.48803
 Alpha virt. eigenvalues --    0.12457   0.16112   0.19408   0.23110   0.53071
 Alpha virt. eigenvalues --    0.55557   0.56357   0.58721   0.68862   0.69368
 Alpha virt. eigenvalues --    0.77730   0.79075   0.79594   0.80024   0.83373

 Mulliken charges:
               1
     1  O   -0.520820
     2  H    0.265121
     3  H    0.251870
     4  O   -0.513753
     5  H    0.260195
     6  H    0.257387
 Sum of Mulliken charges =  -0.00000

 Dipole moment (field-independent basis, Debye):
    X=             -1.4019    Y=             -3.2572    Z=             -0.0000  Tot=              3.5461
 Quadrupole moment (field-independent basis, Debye-Ang):
   XX=             -9.1493   YY=             -7.3018   ZZ=            -14.7210
   XY=             -4.8205   XZ=             -0.0000   YZ=             -0.0000

 Normal termination of Gaussian 16 at Fri Aug 26 17:41:40 2022.
