 Gaussian 16, Revision A.03,
 Gaussian 16:  ES64L-G16RevA.03 25-Dec-2016

 ------------------
 #p CCSD(T)/cc-pVTZ
 ------------------

 -----------
 H2O_H2O_238
 -----------
 Symbolic Z-matrix:
 Charge =  0 Multiplicity = 1

                         Standard orientation:
 ---------------------------------------------------------------------
 Center     Atomic      Atomic             Coordinates (Angstroms)
 Number     Number       Type             X           Y           Z
 ---------------------------------------------------------------------
      1          8           0        0.052443    1.202127   -0.000000
      2          1           0        0.049341    0.219530   -0.000000
      3          1           0       -0.876040    1.523726   -0.000000
      4          8           0        0.052443   -1.022404    0.000000
      5          1           0        0.789153   -1.672608    0.000000
      6          1           0       -0.801539   -1.508429    0.000000
 ---------------------------------------------------------------------

 SCF Done:  E(RHF) =  -152.074870430     A.U. after   11 cycles
 E2 =    -0.5341719577D+00 EUMP2 =    -0.15260904238811D+03
 CCSD(T)
 CCSD(T)= -0.15263494275D+03

 The electronic state is 1-A'.
 Alpha  occ. eigenvalues --  -20.61300 -20.46232  -1.41238  -1.25653  -0.77024
 Alpha  occ. eigenvalues --   -0.75218  -0.57111  -0.56319  -0.46663  -0.42362
 Alpha virt. eigenvalues --    0.10723   0.16837   0.20680   0.33258   0.47321
 Alpha virt. eigenvalues --    0.52637   0.62860   0.64002   0.71024   0.71672
 Alpha virt. eigenvalues --    0.78412   0.80146   0.80452   0.82208   0.84532

 Mulliken charges:
               1
     1  O   -0.644178
     2  H    0.304303
     3  H    0.211281
     4  O   -0.369112
     5  H    0.252322
     6  H    0.245384
 Sum of Mulliken charges =  -0.00000

 Dipole moment (field-independent basis, Debye):
    X=             -1.6227    Y=             -4.7285    Z=              0.0000  Tot=              4.9992
 Quadrupole moment (field-independent basis, Debye-Ang):
   XX=             -9.1919   YY=             -9.8912   ZZ=            -14.6129
   XY=             -2.8099   XZ=              0.0000   YZ=              0.0000

 Normal termination of Gaussian 16 at Fri Aug 26 16:49:47 2022.
