 Gaussian 16, Revision A.03,
 Gaussian 16:  ES64L-G16RevA.03 25-Dec-2016

 ------------------
 #p CCSD(T)/cc-pVTZ
 ------------------

 -----------
 H2O_H2O_485
 -----------
 Symbolic Z-matrix:
 Charge =  0 Multiplicity = 1

                         Standard orientation:
 ---------------------------------------------------------------------
 Center     Atomic      Atomic             Coordinates (Angstroms)
 Number     Number       Type             X           Y           Z
 ---------------------------------------------------------------------
      1          8           0        0.063322    1.299484   -0.000000
      2          1           0        0.061241    0.316885   -0.000000
      3          1           0       -0.865494    1.620118   -0.000000
      4          8           0        0.063322   -1.124101    0.000000
      5          1           0        0.659841   -1.904916    0.000000
      6          1           0       -0.868747   -1.435152    0.000000
 ---------------------------------------------------------------------

 SCF Done:  E(RHF) =  -152.097987466     A.U. after   11 cycles
 E2 =    -0.5321699667D+00 EUMP2 =    -0.15263015743315D+03
 CCSD(T)
 CCSD(T)= -0.15265650885D+03

 The electronic state is 1-A'.
 Alpha  occ. eigenvalues --  -20.60284 -20.48957  -1.38862  -1.27431  -0.75866
 Alpha  occ. eigenvalues --   -0.71023  -0.58386  -0.55416  -0.49552  -0.44356
 Alpha virt. eigenvalues --    0.11159   0.17088   0.20155   0.33264   0.47993
 Alpha virt. eigenvalues --    0.53398   0.60809   0.62826   0.71682   0.72191
 Alpha virt. eigenvalues --    0.74131   0.78709   0.80181   0.83390   0.84082

 Mulliken charges:
               1
     1  O   -0.606617
     2  H    0.308778
     3  H    0.220601
     4  O   -0.417996
     5  H    0.249090
     6  H    0.246144
 Sum of Mulliken charges =  -0.00000

 Dipole moment (field-independent basis, Debye):
    X=             -2.0148    Y=             -4.2138    Z=              0.0000  Tot=              4.6707
 Quadrupole moment (field-independent basis, Debye-Ang):
   XX=             -9.4543   YY=             -9.4208   ZZ=            -14.6634
   XY=             -2.9204   XZ=              0.0000   YZ=             -0.0000

 Normal termination of Gaussian 16 at Fri Aug 26 18:35:02 2022.
