 Gaussian 16, Revision A.03,
 Gaussian 16:  ES64L-G16RevA.03 25-Dec-2016

 ------------------
 #p CCSD(T)/cc-pVTZ
 ------------------

 ------------
 H2O_H2O_2357
 ------------
 Symbolic Z-matrix:
 Charge =  0 Multiplicity = 1

                         Standard orientation:
 ---------------------------------------------------------------------
 Center     Atomic      Atomic             Coordinates (Angstroms)
 Number     Number       Type             X           Y           Z
 ---------------------------------------------------------------------
      1          8           0        0.073545    2.042777    0.000000
      2          1           0        0.072704    1.060176    0.000000
      3          1           0       -0.855675    2.362239   -0.000000
      4          8           0        0.073545   -1.875853    0.000000
      5          1           0        0.507385   -2.757493    0.000000
      6          1           0       -0.901141   -2.000320   -0.000000
 ---------------------------------------------------------------------

 SCF Done:  E(RHF) =  -152.110328130     A.U. after   10 cycles
 E2 =    -0.5262583548D+00 EUMP2 =    -0.15263658648458D+03
 CCSD(T)
 CCSD(T)= -0.15266369878D+03

 The electronic state is 1-A'.
 Alpha  occ. eigenvalues --  -20.57044 -20.54308  -1.34314  -1.31634  -0.71732
 Alpha  occ. eigenvalues --   -0.69014  -0.57878  -0.55098  -0.51438  -0.48767
 Alpha virt. eigenvalues --    0.12013   0.16318   0.19454   0.24444   0.52917
 Alpha virt. eigenvalues --    0.55755   0.56054   0.58475   0.68801   0.71298
 Alpha virt. eigenvalues --    0.77127   0.78928   0.80127   0.81765   0.83376

 Mulliken charges:
               1
     1  O   -0.519841
     2  H    0.266047
     3  H    0.247526
     4  O   -0.507167
     5  H    0.259786
     6  H    0.253648
 Sum of Mulliken charges =  -0.00000

 Dipole moment (field-independent basis, Debye):
    X=             -2.4940    Y=             -3.0746    Z=             -0.0000  Tot=              3.9589
 Quadrupole moment (field-independent basis, Debye-Ang):
   XX=             -9.8246   YY=             -7.9856   ZZ=            -14.7208
   XY=             -3.3717   XZ=             -0.0000   YZ=             -0.0000

 Normal termination of Gaussian 16 at Sun Aug 28 06:39:09 2022.
