 Gaussian 16, Revision A.03,
 Gaussian 16:  ES64L-G16RevA.03 25-Dec-2016

 ------------------
 #p CCSD(T)/cc-pVTZ
 ------------------

 ------------
 H2O_H2O_4317
 ------------
 Symbolic Z-matrix:
 Charge =  0 Multiplicity = 1

                         Standard orientation:
 ---------------------------------------------------------------------
 Center     Atomic      Atomic             Coordinates (Angstroms)
 Number     Number       Type             X           Y           Z
 ---------------------------------------------------------------------
      1          8           0        0.037413    2.827145   -0.000000
      2          1           0        0.035692    1.844545   -0.000000
      3          1           0       -0.891520    3.147439    0.000000
      4          8           0        0.037413   -2.648153   -0.000000
      5          1           0        0.917919   -3.084290   -0.000000
      6          1           0       -0.660707   -3.339626    0.000000
 ---------------------------------------------------------------------

 SCF Done:  E(RHF) =  -152.108575974     A.U. after   10 cycles
 E2 =    -0.5258046054D+00 EUMP2 =    -0.15263438057919D+03
 CCSD(T)
 CCSD(T)= -0.15266157318D+03

 The electronic state is 1-A'.
 Alpha  occ. eigenvalues --  -20.56218 -20.54904  -1.33518  -1.32212  -0.70921
 Alpha  occ. eigenvalues --   -0.69615  -0.57018  -0.55687  -0.50638  -0.49337
 Alpha virt. eigenvalues --    0.13269   0.15031   0.19665   0.21152   0.53601
 Alpha virt. eigenvalues --    0.54888   0.56646   0.57811   0.66745   0.68878
 Alpha virt. eigenvalues --    0.78250   0.79515   0.79540   0.80051   0.82769

 Mulliken charges:
               1
     1  O   -0.514683
     2  H    0.260824
     3  H    0.253646
     4  O   -0.515300
     5  H    0.258281
     6  H    0.257232
 Sum of Mulliken charges =  -0.00000

 Dipole moment (field-independent basis, Debye):
    X=             -1.2828    Y=             -3.1474    Z=              0.0000  Tot=              3.3988
 Quadrupole moment (field-independent basis, Debye-Ang):
   XX=             -9.1594   YY=             -6.4104   ZZ=            -14.7154
   XY=             -6.0870   XZ=             -0.0000   YZ=              0.0000

 Normal termination of Gaussian 16 at Sun Aug 28 01:49:34 2022.
