 Gaussian 16, Revision A.03,
 Gaussian 16:  ES64L-G16RevA.03 25-Dec-2016

 ------------------
 #p CCSD(T)/cc-pVTZ
 ------------------

 ------------
 H2O_H2O_3126
 ------------
 Symbolic Z-matrix:
 Charge =  0 Multiplicity = 1

                         Standard orientation:
 ---------------------------------------------------------------------
 Center     Atomic      Atomic             Coordinates (Angstroms)
 Number     Number       Type             X           Y           Z
 ---------------------------------------------------------------------
      1          8           0        0.090685   -2.336579    0.000000
      2          1           0        0.090600   -1.353978    0.000000
      3          1           0       -0.838781   -2.655326    0.000000
      4          8           0        0.090685    2.197871    0.000000
      5          1           0        0.154866    3.178375    0.000000
      6          1           0       -0.857638    1.940597    0.000000
 ---------------------------------------------------------------------

 SCF Done:  E(RHF) =  -152.108164936     A.U. after   10 cycles
 E2 =    -0.5260339883D+00 EUMP2 =    -0.15263419892385D+03
 CCSD(T)
 CCSD(T)= -0.15266138342D+03

 The electronic state is 1-A'.
 Alpha  occ. eigenvalues --  -20.56596 -20.55098  -1.33891  -1.32401  -0.71320
 Alpha  occ. eigenvalues --   -0.69783  -0.57362  -0.55854  -0.51001  -0.49515
 Alpha virt. eigenvalues --    0.11671   0.15517   0.19302   0.22997   0.54138
 Alpha virt. eigenvalues --    0.54670   0.56452   0.58110   0.67675   0.68952
 Alpha virt. eigenvalues --    0.77898   0.78487   0.79358   0.81124   0.82602

 Mulliken charges:
               1
     1  O   -0.510956
     2  H    0.260078
     3  H    0.249646
     4  O   -0.509169
     5  H    0.259745
     6  H    0.250655
 Sum of Mulliken charges =  -0.00000

 Dipole moment (field-independent basis, Debye):
    X=             -3.0907    Y=              2.4819    Z=              0.0000  Tot=              3.9639
 Quadrupole moment (field-independent basis, Debye-Ang):
   XX=            -10.7111   YY=             -8.9234   ZZ=            -14.7133
   XY=              2.3692   XZ=              0.0000   YZ=              0.0000

 Normal termination of Gaussian 16 at Fri Aug 26 19:54:51 2022.
