 Gaussian 16, Revision A.03,
 Gaussian 16:  ES64L-G16RevA.03 25-Dec-2016

 ------------------
 #p CCSD(T)/cc-pVTZ
 ------------------

 -----------
 H2O_H2O_643
 -----------
 Symbolic Z-matrix:
 Charge =  0 Multiplicity = 1

                         Standard orientation:
 ---------------------------------------------------------------------
 Center     Atomic      Atomic             Coordinates (Angstroms)
 Number     Number       Type             X           Y           Z
 ---------------------------------------------------------------------
      1          8           0        0.033947    1.360421    0.000000
      2          1           0        0.029998    0.377827    0.000000
      3          1           0       -0.894258    1.682819    0.000000
      4          8           0        0.033947   -1.183017   -0.000000
      5          1           0        0.940233   -1.562687   -0.000000
      6          1           0       -0.619121   -1.917190   -0.000000
 ---------------------------------------------------------------------

 SCF Done:  E(RHF) =  -152.106418790     A.U. after   11 cycles
 E2 =    -0.5306073248D+00 EUMP2 =    -0.15263702611526D+03
 CCSD(T)
 CCSD(T)= -0.15266356931D+03

 The electronic state is 1-A'.
 Alpha  occ. eigenvalues --  -20.59748 -20.49724  -1.37838  -1.27917  -0.74870
 Alpha  occ. eigenvalues --   -0.69655  -0.59283  -0.54647  -0.50305  -0.44933
 Alpha virt. eigenvalues --    0.11533   0.18053   0.19354   0.33513   0.47603
 Alpha virt. eigenvalues --    0.54017   0.58833   0.65269   0.68786   0.72340
 Alpha virt. eigenvalues --    0.73033   0.78059   0.81063   0.83316   0.84116

 Mulliken charges:
               1
     1  O   -0.604056
     2  H    0.308875
     3  H    0.235971
     4  O   -0.453063
     5  H    0.263147
     6  H    0.249126
 Sum of Mulliken charges =  -0.00000

 Dipole moment (field-independent basis, Debye):
    X=             -1.1013    Y=             -4.0797    Z=             -0.0000  Tot=              4.2257
 Quadrupole moment (field-independent basis, Debye-Ang):
   XX=             -9.1601   YY=             -9.2240   ZZ=            -14.6931
   XY=             -3.2436   XZ=             -0.0000   YZ=             -0.0000

 Normal termination of Gaussian 16 at Fri Aug 26 19:35:19 2022.
