 Gaussian 16, Revision A.03,
 Gaussian 16:  ES64L-G16RevA.03 25-Dec-2016

 ------------------
 #p CCSD(T)/cc-pVTZ
 ------------------

 ------------
 H2O_H2O_3567
 ------------
 Symbolic Z-matrix:
 Charge =  0 Multiplicity = 1

                         Standard orientation:
 ---------------------------------------------------------------------
 Center     Atomic      Atomic             Coordinates (Angstroms)
 Number     Number       Type             X           Y           Z
 ---------------------------------------------------------------------
      1          8           0        0.037433    2.527980   -0.000000
      2          1           0        0.035501    1.545380   -0.000000
      3          1           0       -0.891432    2.848473   -0.000000
      4          8           0        0.037433   -2.349004    0.000000
      5          1           0        0.917846   -2.785329    0.000000
      6          1           0       -0.660836   -3.040327    0.000000
 ---------------------------------------------------------------------

 SCF Done:  E(RHF) =  -152.109194381     A.U. after   10 cycles
 E2 =    -0.5258436409D+00 EUMP2 =    -0.15263503802162D+03
 CCSD(T)
 CCSD(T)= -0.15266220701D+03

 The electronic state is 1-A'.
 Alpha  occ. eigenvalues --  -20.56415 -20.54680  -1.33707  -1.31995  -0.71109
 Alpha  occ. eigenvalues --   -0.69394  -0.57228  -0.55478  -0.50832  -0.49125
 Alpha virt. eigenvalues --    0.12803   0.15497   0.19547   0.21766   0.53409
 Alpha virt. eigenvalues --    0.55111   0.56520   0.57974   0.66940   0.69307
 Alpha virt. eigenvalues --    0.78071   0.79004   0.79688   0.79713   0.83023

 Mulliken charges:
               1
     1  O   -0.516938
     2  H    0.262635
     3  H    0.253155
     4  O   -0.515980
     5  H    0.259313
     6  H    0.257815
 Sum of Mulliken charges =  -0.00000

 Dipole moment (field-independent basis, Debye):
    X=             -1.2802    Y=             -3.1810    Z=              0.0000  Tot=              3.4290
 Quadrupole moment (field-independent basis, Debye-Ang):
   XX=             -9.1590   YY=             -6.8790   ZZ=            -14.7176
   XY=             -5.5128   XZ=              0.0000   YZ=             -0.0000

 Normal termination of Gaussian 16 at Fri Aug 26 22:25:57 2022.
