 Gaussian 16, Revision A.03,
 Gaussian 16:  ES64L-G16RevA.03 25-Dec-2016

 ------------------
 #p CCSD(T)/cc-pVTZ
 ------------------

 ------------
 H2O_H2O_1655
 ------------
 Symbolic Z-matrix:
 Charge =  0 Multiplicity = 1

                         Standard orientation:
 ---------------------------------------------------------------------
 Center     Atomic      Atomic             Coordinates (Angstroms)
 Number     Number       Type             X           Y           Z
 ---------------------------------------------------------------------
      1          8           0        0.079866   -1.759277    0.000000
      2          1           0        0.079204   -0.776676    0.000000
      3          1           0       -0.849413   -2.078569    0.000000
      4          8           0        0.079866    1.600244    0.000000
      5          1           0        0.395087    2.530911    0.000000
      6          1           0       -0.902729    1.596602    0.000000
 ---------------------------------------------------------------------

 SCF Done:  E(RHF) =  -152.111249630     A.U. after   10 cycles
 E2 =    -0.5270605108D+00 EUMP2 =    -0.15263831014042D+03
 CCSD(T)
 CCSD(T)= -0.15266536917D+03

 The electronic state is 1-A'.
 Alpha  occ. eigenvalues --  -20.57707 -20.53864  -1.35007  -1.31234  -0.72497
 Alpha  occ. eigenvalues --   -0.68640  -0.58637  -0.54622  -0.52109  -0.48359
 Alpha virt. eigenvalues --    0.11763   0.16655   0.19709   0.27427   0.50276
 Alpha virt. eigenvalues --    0.55306   0.57010   0.58184   0.69173   0.74142
 Alpha virt. eigenvalues --    0.74839   0.77584   0.80794   0.82855   0.83771

 Mulliken charges:
               1
     1  O   -0.526514
     2  H    0.272188
     3  H    0.242336
     4  O   -0.496318
     5  H    0.256967
     6  H    0.251340
 Sum of Mulliken charges =  -0.00000

 Dipole moment (field-independent basis, Debye):
    X=             -2.6803    Y=              3.0612    Z=              0.0000  Tot=              4.0688
 Quadrupole moment (field-independent basis, Debye-Ang):
   XX=            -10.1297   YY=             -8.4968   ZZ=            -14.7234
   XY=              2.9219   XZ=              0.0000   YZ=              0.0000

 Normal termination of Gaussian 16 at Sun Aug 28 00:22:25 2022.
