 Gaussian 16, Revision A.03,
 Gaussian 16:  ES64L-G16RevA.03 25-Dec-2016

 ------------------
 #p CCSD(T)/cc-pVTZ
 ------------------

 ------------
 H2O_H2O_1344
 ------------
 Symbolic Z-matrix:
 Charge =  0 Multiplicity = 1

                         Standard orientation:
 ---------------------------------------------------------------------
 Center     Atomic      Atomic             Coordinates (Angstroms)
 Number     Number       Type             X           Y           Z
 ---------------------------------------------------------------------
      1          8           0        0.030285    1.638620   -0.000000
      2          1           0        0.026851    0.656024   -0.000000
      3          1           0       -0.898088    1.960533    0.000000
      4          8           0        0.030285   -1.463079   -0.000000
      5          1           0        0.959631   -1.782176   -0.000000
      6          1           0       -0.572960   -2.238708    0.000000
 ---------------------------------------------------------------------

 SCF Done:  E(RHF) =  -152.114101512     A.U. after   10 cycles
 E2 =    -0.5274496495D+00 EUMP2 =    -0.15264155116103D+03
 CCSD(T)
 CCSD(T)= -0.15266851613D+03

 The electronic state is 1-A'.
 Alpha  occ. eigenvalues --  -20.58164 -20.52653  -1.35499  -1.30150  -0.72858
 Alpha  occ. eigenvalues --   -0.67954  -0.59332  -0.53417  -0.52614  -0.47300
 Alpha virt. eigenvalues --    0.12082   0.17939   0.18845   0.29977   0.49876
 Alpha virt. eigenvalues --    0.54426   0.55867   0.60855   0.68694   0.72607
 Alpha virt. eigenvalues --    0.73679   0.77063   0.81809   0.82793   0.84671

 Mulliken charges:
               1
     1  O   -0.550800
     2  H    0.281765
     3  H    0.248428
     4  O   -0.501381
     5  H    0.265315
     6  H    0.256674
 Sum of Mulliken charges =  -0.00000

 Dipole moment (field-independent basis, Debye):
    X=             -1.0154    Y=             -3.5089    Z=              0.0000  Tot=              3.6529
 Quadrupole moment (field-independent basis, Debye-Ang):
   XX=             -9.2279   YY=             -8.4555   ZZ=            -14.7338
   XY=             -3.9254   XZ=             -0.0000   YZ=              0.0000

 CCSD(T)=-152.6685161\RMSD=6.493e-09\PG=CS [SG(H4O2)]\\@
 Normal termination of Gaussian 16 at Fri Aug 26 23:59:17 2022.
