 Gaussian 16, Revision A.03,
 Gaussian 16:  ES64L-G16RevA.03 25-Dec-2016

 ------------------
 #p CCSD(T)/cc-pVTZ
 ------------------

 ------------
 H2O_H2O_2768
 ------------
 Symbolic Z-matrix:
 Charge =  0 Multiplicity = 1

                         Standard orientation:
 ---------------------------------------------------------------------
 Center     Atomic      Atomic             Coordinates (Angstroms)
 Number     Number       Type             X           Y           Z
 ---------------------------------------------------------------------
      1          8           0        0.033804    2.208085   -0.000000
      2          1           0        0.031435    1.225487   -0.000000
      3          1           0       -0.894918    2.528992   -0.000000
      4          8           0        0.033804   -2.030572    0.000000
      5          1           0        0.940701   -2.408786    0.000000
      6          1           0       -0.618081   -2.765794    0.000000
 ---------------------------------------------------------------------

 SCF Done:  E(RHF) =  -152.110409700     A.U. after   10 cycles
 E2 =    -0.5259831407D+00 EUMP2 =    -0.15263639284119D+03
 CCSD(T)
 CCSD(T)= -0.15266351817D+03

 The electronic state is 1-A'.
 Alpha  occ. eigenvalues --  -20.56767 -20.54323  -1.34039  -1.31649  -0.71438
 Alpha  occ. eigenvalues --   -0.69048  -0.57608  -0.55141  -0.51172  -0.48790
 Alpha virt. eigenvalues --    0.12415   0.16184   0.19367   0.23358   0.53152
 Alpha virt. eigenvalues --    0.55586   0.56394   0.58699   0.68977   0.69534
 Alpha virt. eigenvalues --    0.77672   0.79051   0.79930   0.80039   0.83409

 Mulliken charges:
               1
     1  O   -0.521843
     2  H    0.265210
     3  H    0.252464
     4  O   -0.513671
     5  H    0.260098
     6  H    0.257742
 Sum of Mulliken charges =  -0.00000

 Dipole moment (field-independent basis, Debye):
    X=             -1.1519    Y=             -3.2207    Z=              0.0000  Tot=              3.4205
 Quadrupole moment (field-independent basis, Debye-Ang):
   XX=             -9.1860   YY=             -7.4256   ZZ=            -14.7215
   XY=             -5.0347   XZ=              0.0000   YZ=             -0.0000

 CCSD(T)=-152.6635182\RMSD=6.733e-09\PG=CS [SG(H4O2)]\\@
 Normal termination of Gaussian 16 at Fri Aug 26 17:10:59 2022.
