 Gaussian 16, Revision A.03,
 Gaussian 16:  ES64L-G16RevA.03 25-Dec-2016

 ------------------
 #p CCSD(T)/cc-pVTZ
 ------------------

 ------------
 H2O_H2O_4156
 ------------
 Symbolic Z-matrix:
 Charge =  0 Multiplicity = 1

                         Standard orientation:
 ---------------------------------------------------------------------
 Center     Atomic      Atomic             Coordinates (Angstroms)
 Number     Number       Type             X           Y           Z
 ---------------------------------------------------------------------
      1          8           0        0.076750    2.758744    0.000000
      2          1           0        0.076237    1.776143    0.000000
      3          1           0       -0.852576    3.077896    0.000000
      4          8           0        0.076750   -2.595521   -0.000000
      5          1           0        0.452301   -3.503523   -0.000000
      6          1           0       -0.903970   -2.656301   -0.000000
 ---------------------------------------------------------------------

 SCF Done:  E(RHF) =  -152.108190129     A.U. after   10 cycles
 E2 =    -0.5258527552D+00 EUMP2 =    -0.15263404288397D+03
 CCSD(T)
 CCSD(T)= -0.15266124201D+03

 The electronic state is 1-A'.
 Alpha  occ. eigenvalues --  -20.56267 -20.55032  -1.33567  -1.32338  -0.70977
 Alpha  occ. eigenvalues --   -0.69734  -0.57048  -0.55801  -0.50682  -0.49457
 Alpha virt. eigenvalues --    0.12922   0.15002   0.19381   0.21374   0.53313
 Alpha virt. eigenvalues --    0.54960   0.56554   0.57827   0.66732   0.68861
 Alpha virt. eigenvalues --    0.78211   0.79184   0.79403   0.80668   0.82623

 Mulliken charges:
               1
     1  O   -0.512156
     2  H    0.259927
     3  H    0.251975
     4  O   -0.513134
     5  H    0.259051
     6  H    0.254336
 Sum of Mulliken charges =  -0.00000

 Dipole moment (field-independent basis, Debye):
    X=             -2.6292    Y=             -2.8746    Z=             -0.0000  Tot=              3.8956
 Quadrupole moment (field-independent basis, Debye-Ang):
   XX=             -9.9491   YY=             -7.3841   ZZ=            -14.7139
   XY=             -3.6283   XZ=             -0.0000   YZ=              0.0000

 Normal termination of Gaussian 16 at Sun Aug 28 00:12:55 2022.
