 Gaussian 16, Revision A.03,
 Gaussian 16:  ES64L-G16RevA.03 25-Dec-2016

 ------------------
 #p CCSD(T)/cc-pVTZ
 ------------------

 ------------
 H2O_H2O_4023
 ------------
 Symbolic Z-matrix:
 Charge =  0 Multiplicity = 1

                         Standard orientation:
 ---------------------------------------------------------------------
 Center     Atomic      Atomic             Coordinates (Angstroms)
 Number     Number       Type             X           Y           Z
 ---------------------------------------------------------------------
      1          8           0       -0.016594    2.699019    0.000000
      2          1           0       -0.014120    1.716420    0.000000
      3          1           0        0.912093    3.020025    0.000000
      4          8           0       -0.016594   -2.535615    0.000000
      5          1           0       -0.996927   -2.602350    0.000000
      6          1           0        0.364464   -3.441321    0.000000
 ---------------------------------------------------------------------

 SCF Done:  E(RHF) =  -152.108710285     A.U. after   10 cycles
 E2 =    -0.5258091345D+00 EUMP2 =    -0.15263451941967D+03
 CCSD(T)
 CCSD(T)= -0.15266170746D+03

 The electronic state is 1-A'.
 Alpha  occ. eigenvalues --  -20.56277 -20.54959  -1.33578  -1.32269  -0.70984
 Alpha  occ. eigenvalues --   -0.69675  -0.57080  -0.55747  -0.50698  -0.49396
 Alpha virt. eigenvalues --    0.12896   0.15160   0.19322   0.21649   0.53265
 Alpha virt. eigenvalues --    0.55105   0.56620   0.57838   0.66687   0.68970
 Alpha virt. eigenvalues --    0.78193   0.79087   0.79456   0.80691   0.82738

 Mulliken charges:
               1
     1  O   -0.515479
     2  H    0.260292
     3  H    0.254820
     4  O   -0.515723
     5  H    0.257523
     6  H    0.258567
 Sum of Mulliken charges =  -0.00000

 Dipole moment (field-independent basis, Debye):
    X=              0.5704    Y=             -2.8810    Z=              0.0000  Tot=              2.9369
 Quadrupole moment (field-independent basis, Debye-Ang):
   XX=             -9.5430   YY=             -7.4083   ZZ=            -14.7157
   XY=              7.0858   XZ=              0.0000   YZ=              0.0000

 Normal termination of Gaussian 16 at Sat Aug 27 01:04:17 2022.
