 Gaussian 16, Revision A.03,
 Gaussian 16:  ES64L-G16RevA.03 25-Dec-2016

 ------------------
 #p CCSD(T)/cc-pVTZ
 ------------------

 ------------
 H2O_H2O_2242
 ------------
 Symbolic Z-matrix:
 Charge =  0 Multiplicity = 1

                         Standard orientation:
 ---------------------------------------------------------------------
 Center     Atomic      Atomic             Coordinates (Angstroms)
 Number     Number       Type             X           Y           Z
 ---------------------------------------------------------------------
      1          8           0        0.037481    1.999448   -0.000000
      2          1           0        0.035015    1.016850   -0.000000
      3          1           0       -0.891209    2.320447   -0.000000
      4          8           0        0.037481   -1.820513    0.000000
      5          1           0        0.917657   -2.257317    0.000000
      6          1           0       -0.661163   -2.511456    0.000000
 ---------------------------------------------------------------------

 SCF Done:  E(RHF) =  -152.111703464     A.U. after   10 cycles
 E2 =    -0.5262161632D+00 EUMP2 =    -0.15263791962747D+03
 CCSD(T)
 CCSD(T)= -0.15266500406D+03

 The electronic state is 1-A'.
 Alpha  occ. eigenvalues --  -20.57135 -20.53916  -1.34391  -1.31261  -0.71780
 Alpha  occ. eigenvalues --   -0.68673  -0.58036  -0.54741  -0.51530  -0.48411
 Alpha virt. eigenvalues --    0.12298   0.16752   0.19228   0.25190   0.52377
 Alpha virt. eigenvalues --    0.55262   0.56452   0.58871   0.69056   0.71823
 Alpha virt. eigenvalues --    0.76896   0.78210   0.80463   0.83023   0.83585

 Mulliken charges:
               1
     1  O   -0.527174
     2  H    0.267746
     3  H    0.250905
     4  O   -0.510046
     5  H    0.261120
     6  H    0.257449
 Sum of Mulliken charges =  -0.00000

 Dipole moment (field-independent basis, Debye):
    X=             -1.2716    Y=             -3.3212    Z=              0.0000  Tot=              3.5563
 Quadrupole moment (field-independent basis, Debye-Ang):
   XX=             -9.1600   YY=             -7.7260   ZZ=            -14.7261
   XY=             -4.4961   XZ=              0.0000   YZ=             -0.0000

 Normal termination of Gaussian 16 at Sun Aug 28 05:41:13 2022.
