 Gaussian 16, Revision A.03,
 Gaussian 16:  ES64L-G16RevA.03 25-Dec-2016

 ------------------
 #p CCSD(T)/cc-pVTZ
 ------------------

 -----------
 H2O_H2O_978
 -----------
 Symbolic Z-matrix:
 Charge =  0 Multiplicity = 1

                         Standard orientation:
 ---------------------------------------------------------------------
 Center     Atomic      Atomic             Coordinates (Angstroms)
 Number     Number       Type             X           Y           Z
 ---------------------------------------------------------------------
      1          8           0        0.085614   -1.484893    0.000000
      2          1           0        0.085171   -0.502292    0.000000
      3          1           0       -0.843736   -1.803978    0.000000
      4          8           0        0.085614    1.335325    0.000000
      5          1           0        0.276876    2.299134    0.000000
      6          1           0       -0.888129    1.203679    0.000000
 ---------------------------------------------------------------------

 SCF Done:  E(RHF) =  -152.108268983     A.U. after   10 cycles
 E2 =    -0.5294196210D+00 EUMP2 =    -0.15263768860383D+03
 CCSD(T)
 CCSD(T)= -0.15266459830D+03

 The electronic state is 1-A'.
 Alpha  occ. eigenvalues --  -20.58785 -20.52849  -1.36426  -1.30432  -0.74387
 Alpha  occ. eigenvalues --   -0.68166  -0.59613  -0.53553  -0.53358  -0.47499
 Alpha virt. eigenvalues --    0.11494   0.16624   0.20267   0.31056   0.48374
 Alpha virt. eigenvalues --    0.53687   0.58401   0.60462   0.68814   0.72137
 Alpha virt. eigenvalues --    0.74363   0.77641   0.80611   0.82143   0.83457

 Mulliken charges:
               1
     1  O   -0.544573
     2  H    0.287132
     3  H    0.231236
     4  O   -0.448295
     5  H    0.236144
     6  H    0.238356
 Sum of Mulliken charges =  -0.00000

 Dipole moment (field-independent basis, Debye):
    X=             -2.8146    Y=              3.1631    Z=              0.0000  Tot=              4.2341
 Quadrupole moment (field-independent basis, Debye-Ang):
   XX=            -10.4508   YY=             -8.9832   ZZ=            -14.6987
   XY=              2.5240   XZ=              0.0000   YZ=              0.0000

 Normal termination of Gaussian 16 at Fri Aug 26 21:42:01 2022.
