 Gaussian 16, Revision A.03,
 Gaussian 16:  ES64L-G16RevA.03 25-Dec-2016

 ------------------
 #p CCSD(T)/cc-pVTZ
 ------------------

 ------------
 H2O_H2O_2080
 ------------
 Symbolic Z-matrix:
 Charge =  0 Multiplicity = 1

                         Standard orientation:
 ---------------------------------------------------------------------
 Center     Atomic      Atomic             Coordinates (Angstroms)
 Number     Number       Type             X           Y           Z
 ---------------------------------------------------------------------
      1          8           0        0.079861    1.928805   -0.000000
      2          1           0        0.079260    0.946204   -0.000000
      3          1           0       -0.849437    2.248040   -0.000000
      4          8           0        0.079861   -1.769761    0.000000
      5          1           0        0.395139   -2.700410    0.000000
      6          1           0       -0.902735   -1.766181    0.000000
 ---------------------------------------------------------------------

 SCF Done:  E(RHF) =  -152.110430723     A.U. after   10 cycles
 E2 =    -0.5265070138D+00 EUMP2 =    -0.15263693773633D+03
 CCSD(T)
 CCSD(T)= -0.15266403779D+03

 The electronic state is 1-A'.
 Alpha  occ. eigenvalues --  -20.57262 -20.54281  -1.34537  -1.31612  -0.71983
 Alpha  occ. eigenvalues --   -0.68984  -0.58110  -0.55055  -0.51654  -0.48741
 Alpha virt. eigenvalues --    0.11829   0.16399   0.19621   0.25412   0.52047
 Alpha virt. eigenvalues --    0.55754   0.56340   0.58016   0.68807   0.72760
 Alpha virt. eigenvalues --    0.76435   0.78800   0.80249   0.82969   0.83338

 Mulliken charges:
               1
     1  O   -0.520178
     2  H    0.266824
     3  H    0.245580
     4  O   -0.503584
     5  H    0.259491
     6  H    0.251867
 Sum of Mulliken charges =   0.00000

 Dipole moment (field-independent basis, Debye):
    X=             -2.6986    Y=             -2.9682    Z=              0.0000  Tot=              4.0116
 Quadrupole moment (field-independent basis, Debye-Ang):
   XX=            -10.1197   YY=             -8.3279   ZZ=            -14.7211
   XY=             -3.0061   XZ=              0.0000   YZ=              0.0000

 34136\MP4DQ=-152.6458322\MP4SDQ=-152.6489269\CCSD=-152.648316\CCSD(T)=
 Normal termination of Gaussian 16 at Sun Aug 28 04:10:39 2022.
