 Gaussian 16, Revision A.03,
 Gaussian 16:  ES64L-G16RevA.03 25-Dec-2016

 ------------------
 #p CCSD(T)/cc-pVTZ
 ------------------

 ------------
 H2O_H2O_2506
 ------------
 Symbolic Z-matrix:
 Charge =  0 Multiplicity = 1

                         Standard orientation:
 ---------------------------------------------------------------------
 Center     Atomic      Atomic             Coordinates (Angstroms)
 Number     Number       Type             X           Y           Z
 ---------------------------------------------------------------------
      1          8           0        0.076764    2.100584   -0.000000
      2          1           0        0.076084    1.117983   -0.000000
      3          1           0       -0.852508    2.419894   -0.000000
      4          8           0        0.076764   -1.937387    0.000000
      5          1           0        0.452161   -2.845452    0.000000
      6          1           0       -0.903966   -1.998000    0.000000
 ---------------------------------------------------------------------

 SCF Done:  E(RHF) =  -152.109839632     A.U. after   10 cycles
 E2 =    -0.5261917248D+00 EUMP2 =    -0.15263603135635D+03
 CCSD(T)
 CCSD(T)= -0.15266315860D+03

 The electronic state is 1-A'.
 Alpha  occ. eigenvalues --  -20.56936 -20.54473  -1.34211  -1.31793  -0.71633
 Alpha  occ. eigenvalues --   -0.69170  -0.57749  -0.55258  -0.51332  -0.48922
 Alpha virt. eigenvalues --    0.11976   0.16146   0.19488   0.23929   0.53412
 Alpha virt. eigenvalues --    0.55538   0.56219   0.58441   0.68775   0.70597
 Alpha virt. eigenvalues --    0.77372   0.79129   0.79958   0.80886   0.83196

 Mulliken charges:
               1
     1  O   -0.517889
     2  H    0.265030
     3  H    0.247961
     4  O   -0.507840
     5  H    0.259579
     6  H    0.253159
 Sum of Mulliken charges =  -0.00000

 Dipole moment (field-independent basis, Debye):
    X=             -2.6062    Y=             -2.9849    Z=              0.0000  Tot=              3.9626
 Quadrupole moment (field-independent basis, Debye-Ang):
   XX=             -9.9632   YY=             -8.0374   ZZ=            -14.7190
   XY=             -3.2535   XZ=              0.0000   YZ=             -0.0000

 Normal termination of Gaussian 16 at Fri Aug 26 15:14:25 2022.
