 Gaussian 16, Revision A.03,
 Gaussian 16:  ES64L-G16RevA.03 25-Dec-2016

 ------------------
 #p CCSD(T)/cc-pVTZ
 ------------------

 ------------
 H2O_H2O_4395
 ------------
 Symbolic Z-matrix:
 Charge =  0 Multiplicity = 1

                         Standard orientation:
 ---------------------------------------------------------------------
 Center     Atomic      Atomic             Coordinates (Angstroms)
 Number     Number       Type             X           Y           Z
 ---------------------------------------------------------------------
      1          8           0        0.026617    2.853943    0.000000
      2          1           0        0.024584    1.871344    0.000000
      3          1           0       -0.902215    3.174532    0.000000
      4          8           0        0.026617   -2.680693   -0.000000
      5          1           0        0.975210   -2.936973   -0.000000
      6          1           0       -0.523448   -3.494902   -0.000000
 ---------------------------------------------------------------------

 SCF Done:  E(RHF) =  -152.108534823     A.U. after   10 cycles
 E2 =    -0.5258001100D+00 EUMP2 =    -0.15263433493340D+03
 CCSD(T)
 CCSD(T)= -0.15266152942D+03

 The electronic state is 1-A'.
 Alpha  occ. eigenvalues --  -20.56200 -20.54963  -1.33501  -1.32272  -0.70906
 Alpha  occ. eigenvalues --   -0.69676  -0.56999  -0.55746  -0.50621  -0.49397
 Alpha virt. eigenvalues --    0.13264   0.14980   0.19590   0.21180   0.53530
 Alpha virt. eigenvalues --    0.54914   0.56661   0.57803   0.66784   0.68787
 Alpha virt. eigenvalues --    0.78266   0.79454   0.79458   0.80389   0.82672

 Mulliken charges:
               1
     1  O   -0.514664
     2  H    0.260266
     3  H    0.254234
     4  O   -0.515230
     5  H    0.257731
     6  H    0.257662
 Sum of Mulliken charges =  -0.00000

 Dipole moment (field-independent basis, Debye):
    X=             -0.9134    Y=             -3.0434    Z=             -0.0000  Tot=              3.1775
 Quadrupole moment (field-independent basis, Debye-Ang):
   XX=             -9.2892   YY=             -6.6818   ZZ=            -14.7152
   XY=             -6.7992   XZ=             -0.0000   YZ=              0.0000

 Normal termination of Gaussian 16 at Sun Aug 28 02:28:31 2022.
