 Gaussian 16, Revision A.03,
 Gaussian 16:  ES64L-G16RevA.03 25-Dec-2016

 ------------------
 #p CCSD(T)/cc-pVTZ
 ------------------

 ------------
 H2O_H2O_4619
 ------------
 Symbolic Z-matrix:
 Charge =  0 Multiplicity = 1

                         Standard orientation:
 ---------------------------------------------------------------------
 Center     Atomic      Atomic             Coordinates (Angstroms)
 Number     Number       Type             X           Y           Z
 ---------------------------------------------------------------------
      1          8           0        0.030145    2.944987   -0.000000
      2          1           0        0.028281    1.962387   -0.000000
      3          1           0       -0.898741    3.265417   -0.000000
      4          8           0        0.030145   -2.769349    0.000000
      5          1           0        0.959999   -3.086962    0.000000
      6          1           0       -0.571861   -3.545942    0.000000
 ---------------------------------------------------------------------

 SCF Done:  E(RHF) =  -152.108423372     A.U. after   10 cycles
 E2 =    -0.5257995649D+00 EUMP2 =    -0.15263422293695D+03
 CCSD(T)
 CCSD(T)= -0.15266142097D+03

 The electronic state is 1-A'.
 Alpha  occ. eigenvalues --  -20.56161 -20.54994  -1.33463  -1.32301  -0.70867
 Alpha  occ. eigenvalues --   -0.69705  -0.56956  -0.55774  -0.50582  -0.49425
 Alpha virt. eigenvalues --    0.13399   0.14884   0.19665   0.21038   0.53627
 Alpha virt. eigenvalues --    0.54854   0.56688   0.57788   0.66897   0.68658
 Alpha virt. eigenvalues --    0.78303   0.79432   0.79619   0.80412   0.82521

 Mulliken charges:
               1
     1  O   -0.514149
     2  H    0.259951
     3  H    0.254108
     4  O   -0.514747
     5  H    0.257603
     6  H    0.257235
 Sum of Mulliken charges =  -0.00000

 Dipole moment (field-independent basis, Debye):
    X=             -1.0347    Y=             -3.0795    Z=              0.0000  Tot=              3.2487
 Quadrupole moment (field-independent basis, Debye-Ang):
   XX=             -9.2305   YY=             -6.4158   ZZ=            -14.7148
   XY=             -6.7731   XZ=              0.0000   YZ=             -0.0000

 Normal termination of Gaussian 16 at Sun Aug 28 04:24:56 2022.
