 Gaussian 16, Revision A.03,
 Gaussian 16:  ES64L-G16RevA.03 25-Dec-2016

 ------------------
 #p CCSD(T)/cc-pVTZ
 ------------------

 ------------
 H2O_H2O_1247
 ------------
 Symbolic Z-matrix:
 Charge =  0 Multiplicity = 1

                         Standard orientation:
 ---------------------------------------------------------------------
 Center     Atomic      Atomic             Coordinates (Angstroms)
 Number     Number       Type             X           Y           Z
 ---------------------------------------------------------------------
      1          8           0       -0.019977    1.594122    0.000000
      2          1           0       -0.015871    0.611529    0.000000
      3          1           0        0.908176    1.916669    0.000000
      4          8           0       -0.019977   -1.427074    0.000000
      5          1           0       -0.993628   -1.559399    0.000000
      6          1           0        0.420960   -2.305186    0.000000
 ---------------------------------------------------------------------

 SCF Done:  E(RHF) =  -152.113522786     A.U. after   10 cycles
 E2 =    -0.5277278468D+00 EUMP2 =    -0.15264125063261D+03
 CCSD(T)
 CCSD(T)= -0.15266819994D+03

 The electronic state is 1-A'.
 Alpha  occ. eigenvalues --  -20.58280 -20.52639  -1.35680  -1.30167  -0.73153
 Alpha  occ. eigenvalues --   -0.67977  -0.59489  -0.53373  -0.52766  -0.47311
 Alpha virt. eigenvalues --    0.12082   0.17948   0.18947   0.30524   0.49766
 Alpha virt. eigenvalues --    0.54567   0.55735   0.61794   0.68650   0.73261
 Alpha virt. eigenvalues --    0.73724   0.76877   0.81866   0.82411   0.84375

 Mulliken charges:
               1
     1  O   -0.555827
     2  H    0.282638
     3  H    0.250799
     4  O   -0.490013
     5  H    0.263727
     6  H    0.248676
 Sum of Mulliken charges =  -0.00000

 Dipole moment (field-independent basis, Debye):
    X=              0.6751    Y=             -3.3848    Z=              0.0000  Tot=              3.4515
 Quadrupole moment (field-independent basis, Debye-Ang):
   XX=             -9.4429   YY=             -8.6214   ZZ=            -14.7283
   XY=              4.0685   XZ=              0.0000   YZ=              0.0000

 Normal termination of Gaussian 16 at Fri Aug 26 23:22:15 2022.
