 Gaussian 16, Revision A.03,
 Gaussian 16:  ES64L-G16RevA.03 25-Dec-2016

 ------------------
 #p CCSD(T)/cc-pVTZ
 ------------------

 ------------
 H2O_H2O_1387
 ------------
 Symbolic Z-matrix:
 Charge =  0 Multiplicity = 1

                         Standard orientation:
 ---------------------------------------------------------------------
 Center     Atomic      Atomic             Coordinates (Angstroms)
 Number     Number       Type             X           Y           Z
 ---------------------------------------------------------------------
      1          8           0        0.056045    1.660349    0.000000
      2          1           0        0.054048    0.677749    0.000000
      3          1           0       -0.872798    1.980903    0.000000
      4          8           0        0.056045   -1.481510   -0.000000
      5          1           0        0.749436   -2.177725   -0.000000
      6          1           0       -0.827413   -1.911635   -0.000000
 ---------------------------------------------------------------------

 SCF Done:  E(RHF) =  -152.113762540     A.U. after   10 cycles
 E2 =    -0.5274351902D+00 EUMP2 =    -0.15264119773050D+03
 CCSD(T)
 CCSD(T)= -0.15266817610D+03

 The electronic state is 1-A'.
 Alpha  occ. eigenvalues --  -20.58128 -20.52757  -1.35439  -1.30231  -0.72773
 Alpha  occ. eigenvalues --   -0.67992  -0.59223  -0.53526  -0.52557  -0.47372
 Alpha virt. eigenvalues --    0.11960   0.17524   0.19087   0.29625   0.49334
 Alpha virt. eigenvalues --    0.54879   0.56400   0.59460   0.69437   0.72018
 Alpha virt. eigenvalues --    0.73874   0.76727   0.81711   0.82878   0.84813

 Mulliken charges:
               1
     1  O   -0.543967
     2  H    0.281634
     3  H    0.243110
     4  O   -0.502807
     5  H    0.264357
     6  H    0.257673
 Sum of Mulliken charges =  -0.00000

 Dipole moment (field-independent basis, Debye):
    X=             -1.8720    Y=             -3.5511    Z=             -0.0000  Tot=              4.0144
 Quadrupole moment (field-independent basis, Debye-Ang):
   XX=             -9.2971   YY=             -8.3811   ZZ=            -14.7337
   XY=             -3.5178   XZ=             -0.0000   YZ=             -0.0000

 CCSD(T)=-152.6681761\RMSD=6.812e-09\PG=CS [SG(H4O2)]\\@
 Normal termination of Gaussian 16 at Sat Aug 27 00:16:34 2022.
