 Gaussian 16, Revision A.03,
 Gaussian 16:  ES64L-G16RevA.03 25-Dec-2016

 ------------------
 #p CCSD(T)/cc-pVTZ
 ------------------

 -----------
 H2O_H2O_989
 -----------
 Symbolic Z-matrix:
 Charge =  0 Multiplicity = 1

                         Standard orientation:
 ---------------------------------------------------------------------
 Center     Atomic      Atomic             Coordinates (Angstroms)
 Number     Number       Type             X           Y           Z
 ---------------------------------------------------------------------
      1          8           0        0.048675    1.501589    0.000000
      2          1           0        0.046007    0.518991    0.000000
      3          1           0       -0.879949    1.822778   -0.000000
      4          8           0        0.048675   -1.321300    0.000000
      5          1           0        0.826598   -1.921585    0.000000
      6          1           0       -0.771453   -1.862499   -0.000000
 ---------------------------------------------------------------------

 SCF Done:  E(RHF) =  -152.113214989     A.U. after   10 cycles
 E2 =    -0.5287126494D+00 EUMP2 =    -0.15264192763833D+03
 CCSD(T)
 CCSD(T)= -0.15266875779D+03

 The electronic state is 1-A'.
 Alpha  occ. eigenvalues --  -20.58876 -20.51483  -1.36393  -1.29199  -0.73568
 Alpha  occ. eigenvalues --   -0.68170  -0.59718  -0.53441  -0.52185  -0.46304
 Alpha virt. eigenvalues --    0.11790   0.17977   0.19033   0.32039   0.48358
 Alpha virt. eigenvalues --    0.54637   0.57169   0.60914   0.69439   0.71537
 Alpha virt. eigenvalues --    0.72722   0.77472   0.82375   0.82651   0.84821

 Mulliken charges:
               1
     1  O   -0.569185
     2  H    0.299220
     3  H    0.239157
     4  O   -0.491807
     5  H    0.265337
     6  H    0.257277
 Sum of Mulliken charges =  -0.00000

 Dipole moment (field-independent basis, Debye):
    X=             -1.6042    Y=             -3.8095    Z=             -0.0000  Tot=              4.1335
 Quadrupole moment (field-independent basis, Debye-Ang):
   XX=             -9.1821   YY=             -8.7800   ZZ=            -14.7251
   XY=             -3.3830   XZ=             -0.0000   YZ=             -0.0000

 Normal termination of Gaussian 16 at Fri Aug 26 21:45:58 2022.
