 Gaussian 16, Revision A.03,
 Gaussian 16:  ES64L-G16RevA.03 25-Dec-2016

 ------------------
 #p CCSD(T)/cc-pVTZ
 ------------------

 ------------
 H2O_H2O_4559
 ------------
 Symbolic Z-matrix:
 Charge =  0 Multiplicity = 1

                         Standard orientation:
 ---------------------------------------------------------------------
 Center     Atomic      Atomic             Coordinates (Angstroms)
 Number     Number       Type             X           Y           Z
 ---------------------------------------------------------------------
      1          8           0        0.066743    2.923678    0.000000
      2          1           0        0.065959    1.941076    0.000000
      3          1           0       -0.862496    3.243085   -0.000000
      4          8           0        0.066743   -2.750546    0.000000
      5          1           0        0.611995   -3.567985    0.000000
      6          1           0       -0.883345   -3.001225   -0.000000
 ---------------------------------------------------------------------

 SCF Done:  E(RHF) =  -152.108201795     A.U. after   10 cycles
 E2 =    -0.5258259298D+00 EUMP2 =    -0.15263402772490D+03
 CCSD(T)
 CCSD(T)= -0.15266122957D+03

 The electronic state is 1-A'.
 Alpha  occ. eigenvalues --  -20.56182 -20.55022  -1.33483  -1.32328  -0.70890
 Alpha  occ. eigenvalues --   -0.69727  -0.56967  -0.55793  -0.50600  -0.49448
 Alpha virt. eigenvalues --    0.13316   0.14853   0.19607   0.21035   0.53575
 Alpha virt. eigenvalues --    0.54850   0.56645   0.57767   0.66885   0.68673
 Alpha virt. eigenvalues --    0.78287   0.79412   0.79548   0.80454   0.82524

 Mulliken charges:
               1
     1  O   -0.512620
     2  H    0.259855
     3  H    0.252665
     4  O   -0.513519
     5  H    0.258429
     6  H    0.255192
 Sum of Mulliken charges =  -0.00000

 Dipole moment (field-independent basis, Debye):
    X=             -2.2891    Y=             -3.0376    Z=             -0.0000  Tot=              3.8036
 Quadrupole moment (field-independent basis, Debye-Ang):
   XX=             -9.5600   YY=             -6.6103   ZZ=            -14.7140
   XY=             -4.4550   XZ=              0.0000   YZ=             -0.0000

 Normal termination of Gaussian 16 at Sun Aug 28 03:50:21 2022.
