 Gaussian 16, Revision A.03,
 Gaussian 16:  ES64L-G16RevA.03 25-Dec-2016

 ------------------
 #p CCSD(T)/cc-pVTZ
 ------------------

 ------------
 H2O_H2O_2996
 ------------
 Symbolic Z-matrix:
 Charge =  0 Multiplicity = 1

                         Standard orientation:
 ---------------------------------------------------------------------
 Center     Atomic      Atomic             Coordinates (Angstroms)
 Number     Number       Type             X           Y           Z
 ---------------------------------------------------------------------
      1          8           0       -0.023215    2.293962    0.000000
      2          1           0       -0.020535    1.311364    0.000000
      3          1           0        0.905406    2.615162    0.000000
      4          8           0       -0.023215   -2.123578    0.000000
      5          1           0       -0.986411   -2.317902    0.000000
      6          1           0        0.472979   -2.971693    0.000000
 ---------------------------------------------------------------------

 SCF Done:  E(RHF) =  -152.109915502     A.U. after   10 cycles
 E2 =    -0.5259219758D+00 EUMP2 =    -0.15263583747814D+03
 CCSD(T)
 CCSD(T)= -0.15266297999D+03

 The electronic state is 1-A'.
 Alpha  occ. eigenvalues --  -20.56635 -20.54535  -1.33918  -1.31856  -0.71322
 Alpha  occ. eigenvalues --   -0.69260  -0.57464  -0.55347  -0.51047  -0.48994
 Alpha virt. eigenvalues --    0.12399   0.15943   0.19337   0.22920   0.53504
 Alpha virt. eigenvalues --    0.55540   0.56437   0.58357   0.68198   0.69357
 Alpha virt. eigenvalues --    0.77839   0.78890   0.79839   0.80185   0.83192

 Mulliken charges:
               1
     1  O   -0.520249
     2  H    0.263609
     3  H    0.253863
     4  O   -0.514990
     5  H    0.259256
     6  H    0.258512
 Sum of Mulliken charges =   0.00000

 Dipole moment (field-independent basis, Debye):
    X=              0.7939    Y=             -3.0667    Z=              0.0000  Tot=              3.1678
 Quadrupole moment (field-independent basis, Debye-Ang):
   XX=             -9.3612   YY=             -7.5478   ZZ=            -14.7199
   XY=              5.6785   XZ=              0.0000   YZ=              0.0000

 CCSD(T)=-152.66298\RMSD=6.829e-09\PG=CS [SG(H4O2)]\\@
 Normal termination of Gaussian 16 at Fri Aug 26 19:08:26 2022.
