 Gaussian 16, Revision A.03,
 Gaussian 16:  ES64L-G16RevA.03 25-Dec-2016

 ------------------
 #p CCSD(T)/cc-pVTZ
 ------------------

 ------------
 H2O_H2O_4766
 ------------
 Symbolic Z-matrix:
 Charge =  0 Multiplicity = 1

                         Standard orientation:
 ---------------------------------------------------------------------
 Center     Atomic      Atomic             Coordinates (Angstroms)
 Number     Number       Type             X           Y           Z
 ---------------------------------------------------------------------
      1          8           0        0.041101    3.007165   -0.000000
      2          1           0        0.039593    2.024565   -0.000000
      3          1           0       -0.887902    3.327257    0.000000
      4          8           0        0.041101   -2.827204   -0.000000
      5          1           0        0.891305   -3.319810   -0.000000
      6          1           0       -0.700608   -3.471699    0.000000
 ---------------------------------------------------------------------

 SCF Done:  E(RHF) =  -152.108335805     A.U. after   10 cycles
 E2 =    -0.5258038293D+00 EUMP2 =    -0.15263413963422D+03
 CCSD(T)
 CCSD(T)= -0.15266133987D+03

 The electronic state is 1-A'.
 Alpha  occ. eigenvalues --  -20.56140 -20.54996  -1.33442  -1.32303  -0.70846
 Alpha  occ. eigenvalues --   -0.69706  -0.56932  -0.55773  -0.50560  -0.49426
 Alpha virt. eigenvalues --    0.13480   0.14835   0.19729   0.20951   0.53702
 Alpha virt. eigenvalues --    0.54823   0.56702   0.57784   0.66974   0.68599
 Alpha virt. eigenvalues --    0.78324   0.79433   0.79726   0.80379   0.82425

 Mulliken charges:
               1
     1  O   -0.513638
     2  H    0.259894
     3  H    0.253682
     4  O   -0.514283
     5  H    0.257761
     6  H    0.256583
 Sum of Mulliken charges =   0.00000

 Dipole moment (field-independent basis, Debye):
    X=             -1.4106    Y=             -3.1523    Z=              0.0000  Tot=              3.4535
 Quadrupole moment (field-independent basis, Debye-Ang):
   XX=             -9.1496   YY=             -6.0682   ZZ=            -14.7146
   XY=             -6.1973   XZ=              0.0000   YZ=              0.0000

 Normal termination of Gaussian 16 at Sun Aug 28 05:44:43 2022.
