 Gaussian 16, Revision A.03,
 Gaussian 16:  ES64L-G16RevA.03 25-Dec-2016

 ------------------
 #p CCSD(T)/cc-pVTZ
 ------------------

 ------------
 H2O_H2O_4864
 ------------
 Symbolic Z-matrix:
 Charge =  0 Multiplicity = 1

                         Standard orientation:
 ---------------------------------------------------------------------
 Center     Atomic      Atomic             Coordinates (Angstroms)
 Number     Number       Type             X           Y           Z
 ---------------------------------------------------------------------
      1          8           0        0.048547    3.047305    0.000000
      2          1           0        0.047273    2.064705    0.000000
      3          1           0       -0.880532    3.367176   -0.000000
      4          8           0        0.048547   -2.866878    0.000000
      5          1           0        0.827321   -3.466058    0.000000
      6          1           0       -0.770812   -3.409241   -0.000000
 ---------------------------------------------------------------------

 SCF Done:  E(RHF) =  -152.108259456     A.U. after   10 cycles
 E2 =    -0.5258083156D+00 EUMP2 =    -0.15263406777186D+03
 CCSD(T)
 CCSD(T)= -0.15266126983D+03

 The electronic state is 1-A'.
 Alpha  occ. eigenvalues --  -20.56127 -20.55016  -1.33429  -1.32322  -0.70834
 Alpha  occ. eigenvalues --   -0.69724  -0.56916  -0.55790  -0.50547  -0.49443
 Alpha virt. eigenvalues --    0.13511   0.14794   0.19738   0.20913   0.53718
 Alpha virt. eigenvalues --    0.54810   0.56709   0.57771   0.67027   0.68549
 Alpha virt. eigenvalues --    0.78337   0.79416   0.79747   0.80445   0.82312

 Mulliken charges:
               1
     1  O   -0.513208
     2  H    0.259710
     3  H    0.253452
     4  O   -0.513877
     5  H    0.257788
     6  H    0.256135
 Sum of Mulliken charges =  -0.00000

 Dipole moment (field-independent basis, Debye):
    X=             -1.6663    Y=             -3.1585    Z=             -0.0000  Tot=              3.5711
 Quadrupole moment (field-independent basis, Debye-Ang):
   XX=             -9.1821   YY=             -5.9776   ZZ=            -14.7143
   XY=             -5.7907   XZ=              0.0000   YZ=             -0.0000

 Normal termination of Gaussian 16 at Sun Aug 28 06:27:33 2022.
