 Gaussian 16, Revision A.03,
 Gaussian 16:  ES64L-G16RevA.03 25-Dec-2016

 ------------------
 #p CCSD(T)/cc-pVTZ
 ------------------

 ------------
 H2O_H2O_1306
 ------------
 Symbolic Z-matrix:
 Charge =  0 Multiplicity = 1

                         Standard orientation:
 ---------------------------------------------------------------------
 Center     Atomic      Atomic             Coordinates (Angstroms)
 Number     Number       Type             X           Y           Z
 ---------------------------------------------------------------------
      1          8           0        0.076782    1.621915    0.000000
      2          1           0        0.075890    0.639314    0.000000
      3          1           0       -0.852421    1.941425   -0.000000
      4          8           0        0.076782   -1.458751    0.000000
      5          1           0        0.451982   -2.366897    0.000000
      6          1           0       -0.903962   -1.519152   -0.000000
 ---------------------------------------------------------------------

 SCF Done:  E(RHF) =  -152.111882431     A.U. after   10 cycles
 E2 =    -0.5278444364D+00 EUMP2 =    -0.15263972686739D+03
 CCSD(T)
 CCSD(T)= -0.15266671672D+03

 The electronic state is 1-A'.
 Alpha  occ. eigenvalues --  -20.58211 -20.53161  -1.35585  -1.30621  -0.73101
 Alpha  occ. eigenvalues --   -0.68248  -0.59218  -0.53896  -0.52660  -0.47737
 Alpha virt. eigenvalues --    0.11721   0.16898   0.19675   0.29565   0.49013
 Alpha virt. eigenvalues --    0.54895   0.57892   0.58615   0.69579   0.73437
 Alpha virt. eigenvalues --    0.74425   0.76683   0.81517   0.82325   0.84072

 Mulliken charges:
               1
     1  O   -0.538248
     2  H    0.281492
     3  H    0.238655
     4  O   -0.483274
     5  H    0.250796
     6  H    0.250579
 Sum of Mulliken charges =   0.00000

 Dipole moment (field-independent basis, Debye):
    X=             -2.5554    Y=             -3.2660    Z=              0.0000  Tot=              4.1469
 Quadrupole moment (field-independent basis, Debye-Ang):
   XX=             -9.9866   YY=             -8.6132   ZZ=            -14.7223
   XY=             -2.9645   XZ=              0.0000   YZ=              0.0000

 Normal termination of Gaussian 16 at Fri Aug 26 23:44:12 2022.
