 Gaussian 16, Revision A.03,
 Gaussian 16:  ES64L-G16RevA.03 25-Dec-2016

 ------------------
 #p CCSD(T)/cc-pVTZ
 ------------------

 ------------
 H2O_H2O_1887
 ------------
 Symbolic Z-matrix:
 Charge =  0 Multiplicity = 1

                         Standard orientation:
 ---------------------------------------------------------------------
 Center     Atomic      Atomic             Coordinates (Angstroms)
 Number     Number       Type             X           Y           Z
 ---------------------------------------------------------------------
      1          8           0        0.056025    1.859800   -0.000000
      2          1           0        0.054253    0.877200   -0.000000
      3          1           0       -0.872892    2.180142   -0.000000
      4          8           0        0.056025   -1.680936    0.000000
      5          1           0        0.749575   -2.376992    0.000000
      6          1           0       -0.827335   -2.111262    0.000000
 ---------------------------------------------------------------------

 SCF Done:  E(RHF) =  -152.112463000     A.U. after   10 cycles
 E2 =    -0.5265691341D+00 EUMP2 =    -0.15263903213406D+03
 CCSD(T)
 CCSD(T)= -0.15266608677D+03

 The electronic state is 1-A'.
 Alpha  occ. eigenvalues --  -20.57480 -20.53585  -1.34733  -1.30955  -0.72115
 Alpha  occ. eigenvalues --   -0.68399  -0.58442  -0.54393  -0.51870  -0.48103
 Alpha virt. eigenvalues --    0.12126   0.17032   0.19183   0.26751   0.51084
 Alpha virt. eigenvalues --    0.55110   0.56312   0.58948   0.69058   0.72438
 Alpha virt. eigenvalues --    0.75855   0.77383   0.80853   0.83333   0.84298

 Mulliken charges:
               1
     1  O   -0.529984
     2  H    0.270570
     3  H    0.246981
     4  O   -0.506721
     5  H    0.262577
     6  H    0.256578
 Sum of Mulliken charges =  -0.00000

 Dipole moment (field-independent basis, Debye):
    X=             -1.8904    Y=             -3.3912    Z=              0.0000  Tot=              3.8825
 Quadrupole moment (field-independent basis, Debye-Ang):
   XX=             -9.2948   YY=             -7.9791   ZZ=            -14.7297
   XY=             -3.7825   XZ=              0.0000   YZ=             -0.0000

 65546\MP4DQ=-152.647875\MP4SDQ=-152.6509649\CCSD=-152.6503525\CCSD(T)=
 Normal termination of Gaussian 16 at Sun Aug 28 02:26:22 2022.
