 Gaussian 16, Revision A.03,
 Gaussian 16:  ES64L-G16RevA.03 25-Dec-2016

 ------------------
 #p CCSD(T)/cc-pVTZ
 ------------------

 ------------
 H2O_H2O_4456
 ------------
 Symbolic Z-matrix:
 Charge =  0 Multiplicity = 1

                         Standard orientation:
 ---------------------------------------------------------------------
 Center     Atomic      Atomic             Coordinates (Angstroms)
 Number     Number       Type             X           Y           Z
 ---------------------------------------------------------------------
      1          8           0        0.076749    2.878409   -0.000000
      2          1           0        0.076257    1.895808   -0.000000
      3          1           0       -0.852585    3.197540   -0.000000
      4          8           0        0.076749   -2.715183    0.000000
      5          1           0        0.452320   -3.623176    0.000000
      6          1           0       -0.903970   -2.775984    0.000000
 ---------------------------------------------------------------------

 SCF Done:  E(RHF) =  -152.108070271     A.U. after   10 cycles
 E2 =    -0.5258422873D+00 EUMP2 =    -0.15263391255851D+03
 CCSD(T)
 CCSD(T)= -0.15266111670D+03

 The electronic state is 1-A'.
 Alpha  occ. eigenvalues --  -20.56205 -20.55089  -1.33507  -1.32394  -0.70917
 Alpha  occ. eigenvalues --   -0.69791  -0.56984  -0.55855  -0.50622  -0.49512
 Alpha virt. eigenvalues --    0.13141   0.14849   0.19429   0.21181   0.53426
 Alpha virt. eigenvalues --    0.54879   0.56603   0.57759   0.66852   0.68669
 Alpha virt. eigenvalues --    0.78267   0.79351   0.79449   0.80699   0.82430

 Mulliken charges:
               1
     1  O   -0.511800
     2  H    0.259375
     3  H    0.252308
     4  O   -0.512797
     5  H    0.258574
     6  H    0.254339
 Sum of Mulliken charges =  -0.00000

 Dipole moment (field-independent basis, Debye):
    X=             -2.6315    Y=             -2.8660    Z=              0.0000  Tot=              3.8909
 Quadrupole moment (field-independent basis, Debye-Ang):
   XX=             -9.9481   YY=             -7.2628   ZZ=            -14.7135
   XY=             -3.6964   XZ=              0.0000   YZ=             -0.0000

 Normal termination of Gaussian 16 at Sun Aug 28 03:05:04 2022.
