 Gaussian 16, Revision A.03,
 Gaussian 16:  ES64L-G16RevA.03 25-Dec-2016

 ------------------
 #p CCSD(T)/cc-pVTZ
 ------------------

 ----------
 H2O_H2O_88
 ----------
 Symbolic Z-matrix:
 Charge =  0 Multiplicity = 1

                         Standard orientation:
 ---------------------------------------------------------------------
 Center     Atomic      Atomic             Coordinates (Angstroms)
 Number     Number       Type             X           Y           Z
 ---------------------------------------------------------------------
      1          8           0        0.052459    1.142286   -0.000000
      2          1           0        0.049180    0.159690   -0.000000
      3          1           0       -0.875965    1.464052   -0.000000
      4          8           0        0.052459   -0.962583    0.000000
      5          1           0        0.789052   -1.612918    0.000000
      6          1           0       -0.801611   -1.448453    0.000000
 ---------------------------------------------------------------------

 SCF Done:  E(RHF) =  -152.047129653     A.U. after   11 cycles
 E2 =    -0.5356281886D+00 EUMP2 =    -0.15258275784143D+03
 CCSD(T)
 CCSD(T)= -0.15260835636D+03

 The electronic state is 1-A'.
 Alpha  occ. eigenvalues --  -20.61982 -20.44395  -1.43399  -1.24599  -0.78964
 Alpha  occ. eigenvalues --   -0.77526  -0.58435  -0.54766  -0.44651  -0.41100
 Alpha virt. eigenvalues --    0.10368   0.16381   0.21182   0.32848   0.47258
 Alpha virt. eigenvalues --    0.51992   0.63547   0.63623   0.70789   0.70948
 Alpha virt. eigenvalues --    0.79189   0.79505   0.81418   0.82359   0.87810

 Mulliken charges:
               1
     1  O   -0.666953
     2  H    0.290674
     3  H    0.201296
     4  O   -0.317408
     5  H    0.248960
     6  H    0.243430
 Sum of Mulliken charges =  -0.00000

 Dipole moment (field-independent basis, Debye):
    X=             -1.5875    Y=             -5.0287    Z=              0.0000  Tot=              5.2733
 Quadrupole moment (field-independent basis, Debye-Ang):
   XX=             -9.1789   YY=            -10.1888   ZZ=            -14.5641
   XY=             -2.6830   XZ=              0.0000   YZ=             -0.0000

 Normal termination of Gaussian 16 at Fri Aug 26 15:46:40 2022.
