 Gaussian 16, Revision A.03,
 Gaussian 16:  ES64L-G16RevA.03 25-Dec-2016

 ------------------
 #p CCSD(T)/cc-pVTZ
 ------------------

 ------------
 H2O_H2O_3896
 ------------
 Symbolic Z-matrix:
 Charge =  0 Multiplicity = 1

                         Standard orientation:
 ---------------------------------------------------------------------
 Center     Atomic      Atomic             Coordinates (Angstroms)
 Number     Number       Type             X           Y           Z
 ---------------------------------------------------------------------
      1          8           0       -0.023182    2.652959    0.000000
      2          1           0       -0.020877    1.670360    0.000000
      3          1           0        0.905560    2.973805    0.000000
      4          8           0       -0.023182   -2.482557    0.000000
      5          1           0       -0.986451   -2.676514    0.000000
      6          1           0        0.472687   -3.330862    0.000000
 ---------------------------------------------------------------------

 SCF Done:  E(RHF) =  -152.108859606     A.U. after   10 cycles
 E2 =    -0.5258143581D+00 EUMP2 =    -0.15263467396391D+03
 CCSD(T)
 CCSD(T)= -0.15266185654D+03

 The electronic state is 1-A'.
 Alpha  occ. eigenvalues --  -20.56311 -20.54863  -1.33609  -1.32174  -0.71014
 Alpha  occ. eigenvalues --   -0.69579  -0.57118  -0.55654  -0.50731  -0.49302
 Alpha virt. eigenvalues --    0.12906   0.15256   0.19445   0.21599   0.53333
 Alpha virt. eigenvalues --    0.55102   0.56597   0.57859   0.66695   0.69097
 Alpha virt. eigenvalues --    0.78163   0.79000   0.79545   0.80367   0.82845

 Mulliken charges:
               1
     1  O   -0.515981
     2  H    0.261119
     3  H    0.254328
     4  O   -0.516033
     5  H    0.258167
     6  H    0.258400
 Sum of Mulliken charges =  -0.00000

 Dipole moment (field-independent basis, Debye):
    X=              0.7950    Y=             -3.0106    Z=              0.0000  Tot=              3.1138
 Quadrupole moment (field-independent basis, Debye-Ang):
   XX=             -9.3615   YY=             -7.0971   ZZ=            -14.7163
   XY=              6.5429   XZ=              0.0000   YZ=              0.0000

 Normal termination of Gaussian 16 at Sat Aug 27 00:20:19 2022.
