 Gaussian 16, Revision A.03,
 Gaussian 16:  ES64L-G16RevA.03 25-Dec-2016

 ------------------
 #p CCSD(T)/cc-pVTZ
 ------------------

 ------------
 H2O_H2O_4709
 ------------
 Symbolic Z-matrix:
 Charge =  0 Multiplicity = 1

                         Standard orientation:
 ---------------------------------------------------------------------
 Center     Atomic      Atomic             Coordinates (Angstroms)
 Number     Number       Type             X           Y           Z
 ---------------------------------------------------------------------
      1          8           0        0.066741    2.983510   -0.000000
      2          1           0        0.065974    2.000909   -0.000000
      3          1           0       -0.862503    3.302902   -0.000000
      4          8           0        0.066741   -2.810377    0.000000
      5          1           0        0.612008   -3.627806    0.000000
      6          1           0       -0.883341   -3.061071    0.000000
 ---------------------------------------------------------------------

 SCF Done:  E(RHF) =  -152.108145838     A.U. after   10 cycles
 E2 =    -0.5258244357D+00 EUMP2 =    -0.15263397027346D+03
 CCSD(T)
 CCSD(T)= -0.15266117402D+03

 The electronic state is 1-A'.
 Alpha  occ. eigenvalues --  -20.56157 -20.55051  -1.33459  -1.32356  -0.70866
 Alpha  occ. eigenvalues --   -0.69755  -0.56940  -0.55820  -0.50575  -0.49475
 Alpha virt. eigenvalues --    0.13390   0.14792   0.19630   0.20971   0.53617
 Alpha virt. eigenvalues --    0.54822   0.56666   0.57747   0.66964   0.68584
 Alpha virt. eigenvalues --    0.78311   0.79386   0.79628   0.80522   0.82359

 Mulliken charges:
               1
     1  O   -0.512410
     2  H    0.259559
     3  H    0.252786
     4  O   -0.513265
     5  H    0.258198
     6  H    0.255132
 Sum of Mulliken charges =  -0.00000

 Dipole moment (field-independent basis, Debye):
    X=             -2.2899    Y=             -3.0341    Z=              0.0000  Tot=              3.8012
 Quadrupole moment (field-independent basis, Debye-Ang):
   XX=             -9.5598   YY=             -6.5275   ZZ=            -14.7139
   XY=             -4.5096   XZ=              0.0000   YZ=             -0.0000

 Normal termination of Gaussian 16 at Sun Aug 28 05:17:01 2022.
