 Gaussian 16, Revision A.03,
 Gaussian 16:  ES64L-G16RevA.03 25-Dec-2016

 ------------------
 #p CCSD(T)/cc-pVTZ
 ------------------

 -----------
 H2O_H2O_751
 -----------
 Symbolic Z-matrix:
 Charge =  0 Multiplicity = 1

                         Standard orientation:
 ---------------------------------------------------------------------
 Center     Atomic      Atomic             Coordinates (Angstroms)
 Number     Number       Type             X           Y           Z
 ---------------------------------------------------------------------
      1          8           0        0.090689   -1.389240    0.000000
      2          1           0        0.090543   -0.406639    0.000000
      3          1           0       -0.838757   -1.708044    0.000000
      4          8           0        0.090689    1.250543    0.000000
      5          1           0        0.154809    2.231051    0.000000
      6          1           0       -0.857618    0.993209    0.000000
 ---------------------------------------------------------------------

 SCF Done:  E(RHF) =  -152.101427072     A.U. after   10 cycles
 E2 =    -0.5311581053D+00 EUMP2 =    -0.15263258517754D+03
 CCSD(T)
 CCSD(T)= -0.15265937775D+03

 The electronic state is 1-A'.
 Alpha  occ. eigenvalues --  -20.59283 -20.52490  -1.37365  -1.30229  -0.76014
 Alpha  occ. eigenvalues --   -0.67934  -0.59786  -0.54037  -0.53211  -0.47248
 Alpha virt. eigenvalues --    0.11376   0.16447   0.20778   0.31768   0.48233
 Alpha virt. eigenvalues --    0.52527   0.58644   0.62841   0.68968   0.71350
 Alpha virt. eigenvalues --    0.73921   0.78316   0.79039   0.82677   0.82904

 Mulliken charges:
               1
     1  O   -0.549087
     2  H    0.288018
     3  H    0.223774
     4  O   -0.425867
     5  H    0.234073
     6  H    0.229089
 Sum of Mulliken charges =  -0.00000

 Dipole moment (field-independent basis, Debye):
    X=             -2.9535    Y=              3.1089    Z=              0.0000  Tot=              4.2881
 Quadrupole moment (field-independent basis, Debye-Ang):
   XX=            -10.7518   YY=             -9.2547   ZZ=            -14.6696
   XY=              2.2032   XZ=              0.0000   YZ=              0.0000

 Normal termination of Gaussian 16 at Fri Aug 26 20:17:03 2022.
