 Gaussian 16, Revision A.03,
 Gaussian 16:  ES64L-G16RevA.03 25-Dec-2016

 ------------------
 #p CCSD(T)/cc-pVTZ
 ------------------

 ------------
 H2O_H2O_1079
 ------------
 Symbolic Z-matrix:
 Charge =  0 Multiplicity = 1

                         Standard orientation:
 ---------------------------------------------------------------------
 Center     Atomic      Atomic             Coordinates (Angstroms)
 Number     Number       Type             X           Y           Z
 ---------------------------------------------------------------------
      1          8           0        0.082821   -1.527450    0.000000
      2          1           0        0.082227   -0.544849    0.000000
      3          1           0       -0.846480   -1.846679    0.000000
      4          8           0        0.082821    1.372969    0.000000
      5          1           0        0.336563    2.322242    0.000000
      6          1           0       -0.897438    1.305139    0.000000
 ---------------------------------------------------------------------

 SCF Done:  E(RHF) =  -152.109966307     A.U. after   10 cycles
 E2 =    -0.5288276800D+00 EUMP2 =    -0.15263879398672D+03
 CCSD(T)
 CCSD(T)= -0.15266573403D+03

 The electronic state is 1-A'.
 Alpha  occ. eigenvalues --  -20.58593 -20.52944  -1.36120  -1.30481  -0.73877
 Alpha  occ. eigenvalues --   -0.68208  -0.59507  -0.53653  -0.53115  -0.47567
 Alpha virt. eigenvalues --    0.11563   0.16718   0.20052   0.30649   0.48526
 Alpha virt. eigenvalues --    0.54192   0.58405   0.59558   0.69051   0.72532
 Alpha virt. eigenvalues --    0.74549   0.77271   0.81220   0.81974   0.83690

 Mulliken charges:
               1
     1  O   -0.542934
     2  H    0.285912
     3  H    0.233899
     4  O   -0.459194
     5  H    0.239297
     6  H    0.243021
 Sum of Mulliken charges =  -0.00000

 Dipole moment (field-independent basis, Debye):
    X=             -2.7338    Y=              3.2026    Z=              0.0000  Tot=              4.2107
 Quadrupole moment (field-independent basis, Debye-Ang):
   XX=            -10.2944   YY=             -8.8629   ZZ=            -14.7082
   XY=              2.6734   XZ=              0.0000   YZ=              0.0000

 Normal termination of Gaussian 16 at Fri Aug 26 22:19:54 2022.
