 Gaussian 16, Revision A.03,
 Gaussian 16:  ES64L-G16RevA.03 25-Dec-2016

 ------------------
 #p CCSD(T)/cc-pVTZ
 ------------------

 -----------
 H2O_H2O_715
 -----------
 Symbolic Z-matrix:
 Charge =  0 Multiplicity = 1

                         Standard orientation:
 ---------------------------------------------------------------------
 Center     Atomic      Atomic             Coordinates (Angstroms)
 Number     Number       Type             X           Y           Z
 ---------------------------------------------------------------------
      1          8           0        0.044980    1.391894    0.000000
      2          1           0        0.041845    0.409298    0.000000
      3          1           0       -0.883491    1.713525    0.000000
      4          8           0        0.044980   -1.211616    0.000000
      5          1           0        0.860237   -1.760125    0.000000
      6          1           0       -0.738278   -1.804924    0.000000
 ---------------------------------------------------------------------

 SCF Done:  E(RHF) =  -152.108910488     A.U. after   10 cycles
 E2 =    -0.5301417327D+00 EUMP2 =    -0.15263905222027D+03
 CCSD(T)
 CCSD(T)= -0.15266567251D+03

 The electronic state is 1-A'.
 Alpha  occ. eigenvalues --  -20.59566 -20.50128  -1.37466  -1.28191  -0.74400
 Alpha  occ. eigenvalues --   -0.69374  -0.59387  -0.54361  -0.50756  -0.45228
 Alpha virt. eigenvalues --    0.11552   0.17930   0.19345   0.33194   0.47741
 Alpha virt. eigenvalues --    0.54150   0.59110   0.62656   0.69578   0.72293
 Alpha virt. eigenvalues --    0.72402   0.78118   0.81816   0.82863   0.84418

 Mulliken charges:
               1
     1  O   -0.594294
     2  H    0.310890
     3  H    0.234004
     4  O   -0.468241
     5  H    0.263699
     6  H    0.253941
 Sum of Mulliken charges =  -0.00000

 Dipole moment (field-independent basis, Debye):
    X=             -1.4610    Y=             -4.0558    Z=             -0.0000  Tot=              4.3109
 Quadrupole moment (field-independent basis, Debye-Ang):
   XX=             -9.1436   YY=             -9.1280   ZZ=            -14.7037
   XY=             -3.2187   XZ=             -0.0000   YZ=             -0.0000

 Normal termination of Gaussian 16 at Fri Aug 26 20:03:38 2022.
