 Gaussian 16, Revision A.03,
 Gaussian 16:  ES64L-G16RevA.03 25-Dec-2016

 ------------------
 #p CCSD(T)/cc-pVTZ
 ------------------

 ------------
 H2O_H2O_2185
 ------------
 Symbolic Z-matrix:
 Charge =  0 Multiplicity = 1

                         Standard orientation:
 ---------------------------------------------------------------------
 Center     Atomic      Atomic             Coordinates (Angstroms)
 Number     Number       Type             X           Y           Z
 ---------------------------------------------------------------------
      1          8           0        0.063256    1.977623   -0.000000
      2          1           0        0.061921    0.995022   -0.000000
      3          1           0       -0.865804    2.297551   -0.000000
      4          8           0        0.063256   -1.802143    0.000000
      5          1           0        0.660367   -2.582505    0.000000
      6          1           0       -0.868577   -2.113903    0.000000
 ---------------------------------------------------------------------

 SCF Done:  E(RHF) =  -152.111284365     A.U. after   10 cycles
 E2 =    -0.5263248259D+00 EUMP2 =    -0.15263760919097D+03
 CCSD(T)
 CCSD(T)= -0.15266469754D+03

 The electronic state is 1-A'.
 Alpha  occ. eigenvalues --  -20.57191 -20.53988  -1.34449  -1.31328  -0.71850
 Alpha  occ. eigenvalues --   -0.68724  -0.58071  -0.54793  -0.51582  -0.48470
 Alpha virt. eigenvalues --    0.12134   0.16630   0.19318   0.25245   0.52118
 Alpha virt. eigenvalues --    0.55607   0.56093   0.58783   0.68914   0.71920
 Alpha virt. eigenvalues --    0.76760   0.78284   0.80431   0.83464   0.83505

 Mulliken charges:
               1
     1  O   -0.524026
     2  H    0.267756
     3  H    0.247640
     4  O   -0.507367
     5  H    0.260783
     6  H    0.255214
 Sum of Mulliken charges =  -0.00000

 Dipole moment (field-independent basis, Debye):
    X=             -2.1421    Y=             -3.2645    Z=              0.0000  Tot=              3.9045
 Quadrupole moment (field-independent basis, Debye-Ang):
   XX=             -9.4649   YY=             -7.8485   ZZ=            -14.7246
   XY=             -3.7114   XZ=              0.0000   YZ=             -0.0000

 Normal termination of Gaussian 16 at Sun Aug 28 05:11:27 2022.
