 Gaussian 16, Revision A.03,
 Gaussian 16:  ES64L-G16RevA.03 25-Dec-2016

 ------------------
 #p CCSD(T)/cc-pVTZ
 ------------------

 ------------
 H2O_H2O_2179
 ------------
 Symbolic Z-matrix:
 Charge =  0 Multiplicity = 1

                         Standard orientation:
 ---------------------------------------------------------------------
 Center     Atomic      Atomic             Coordinates (Angstroms)
 Number     Number       Type             X           Y           Z
 ---------------------------------------------------------------------
      1          8           0        0.082810   -1.966227    0.000000
      2          1           0        0.082354   -0.983626    0.000000
      3          1           0       -0.846535   -2.285324    0.000000
      4          8           0        0.082810    1.811722    0.000000
      5          1           0        0.336685    2.760960    0.000000
      6          1           0       -0.897457    1.744029    0.000000
 ---------------------------------------------------------------------

 SCF Done:  E(RHF) =  -152.109959119     A.U. after   10 cycles
 E2 =    -0.5264438467D+00 EUMP2 =    -0.15263640296586D+03
 CCSD(T)
 CCSD(T)= -0.15266351704D+03

 The electronic state is 1-A'.
 Alpha  occ. eigenvalues --  -20.57172 -20.54454  -1.34450  -1.31776  -0.71901
 Alpha  occ. eigenvalues --   -0.69141  -0.57996  -0.55223  -0.51564  -0.48902
 Alpha virt. eigenvalues --    0.11768   0.16262   0.19686   0.24982   0.52509
 Alpha virt. eigenvalues --    0.55775   0.56420   0.57884   0.68686   0.72469
 Alpha virt. eigenvalues --    0.76702   0.79119   0.80075   0.81966   0.83382

 Mulliken charges:
               1
     1  O   -0.518205
     2  H    0.265822
     3  H    0.245963
     4  O   -0.503804
     5  H    0.259232
     6  H    0.250991
 Sum of Mulliken charges =  -0.00000

 Dipole moment (field-independent basis, Debye):
    X=             -2.8008    Y=              2.8655    Z=              0.0000  Tot=              4.0070
 Quadrupole moment (field-independent basis, Debye-Ang):
   XX=            -10.2702   YY=             -8.4277   ZZ=            -14.7192
   XY=              2.8633   XZ=              0.0000   YZ=              0.0000

 9\MP4DQ=-152.6453223\MP4SDQ=-152.6484142\CCSD=-152.6478053\CCSD(T)=-15
 Normal termination of Gaussian 16 at Sun Aug 28 05:08:57 2022.
