 Gaussian 16, Revision A.03,
 Gaussian 16:  ES64L-G16RevA.03 25-Dec-2016

 ------------------
 #p CCSD(T)/cc-pVTZ
 ------------------

 ------------
 H2O_H2O_2040
 ------------
 Symbolic Z-matrix:
 Charge =  0 Multiplicity = 1

                         Standard orientation:
 ---------------------------------------------------------------------
 Center     Atomic      Atomic             Coordinates (Angstroms)
 Number     Number       Type             X           Y           Z
 ---------------------------------------------------------------------
      1          8           0        0.044897    1.920446    0.000000
      2          1           0        0.042667    0.937847    0.000000
      3          1           0       -0.883870    2.241222   -0.000000
      4          8           0        0.044897   -1.740085    0.000000
      5          1           0        0.860659   -2.287843    0.000000
      6          1           0       -0.737814   -2.334113   -0.000000
 ---------------------------------------------------------------------

 SCF Done:  E(RHF) =  -152.112263347     A.U. after   10 cycles
 E2 =    -0.5263801089D+00 EUMP2 =    -0.15263864345546D+03
 CCSD(T)
 CCSD(T)= -0.15266570976D+03

 The electronic state is 1-A'.
 Alpha  occ. eigenvalues --  -20.57322 -20.53701  -1.34573  -1.31060  -0.71955
 Alpha  occ. eigenvalues --   -0.68487  -0.58262  -0.54521  -0.51713  -0.48212
 Alpha virt. eigenvalues --    0.12235   0.16968   0.19169   0.26080   0.51713
 Alpha virt. eigenvalues --    0.55060   0.56429   0.58978   0.69071   0.72294
 Alpha virt. eigenvalues --    0.76363   0.77623   0.80700   0.83458   0.84233

 Mulliken charges:
               1
     1  O   -0.529367
     2  H    0.269262
     3  H    0.249228
     4  O   -0.508441
     5  H    0.261949
     6  H    0.257368
 Sum of Mulliken charges =  -0.00000

 Dipole moment (field-independent basis, Debye):
    X=             -1.5188    Y=             -3.3868    Z=             -0.0000  Tot=              3.7117
 Quadrupole moment (field-independent basis, Debye-Ang):
   XX=             -9.1600   YY=             -7.8379   ZZ=            -14.7286
   XY=             -4.1506   XZ=              0.0000   YZ=             -0.0000

 Normal termination of Gaussian 16 at Sun Aug 28 03:47:45 2022.
