 Gaussian 16, Revision A.03,
 Gaussian 16:  ES64L-G16RevA.03 25-Dec-2016

 ------------------
 #p CCSD(T)/cc-pVTZ
 ------------------

 -----------
 H2O_H2O_434
 -----------
 Symbolic Z-matrix:
 Charge =  0 Multiplicity = 1

                         Standard orientation:
 ---------------------------------------------------------------------
 Center     Atomic      Atomic             Coordinates (Angstroms)
 Number     Number       Type             X           Y           Z
 ---------------------------------------------------------------------
      1          8           0        0.066838    1.278236   -0.000000
      2          1           0        0.064973    0.295636   -0.000000
      3          1           0       -0.862048    1.598666    0.000000
      4          8           0        0.066838   -1.105252   -0.000000
      5          1           0        0.611190   -1.923290   -0.000000
      6          1           0       -0.883524   -1.354886    0.000000
 ---------------------------------------------------------------------

 SCF Done:  E(RHF) =  -152.093979461     A.U. after   11 cycles
 E2 =    -0.5327548719D+00 EUMP2 =    -0.15262673433299D+03
 CCSD(T)
 CCSD(T)= -0.15265301294D+03

 The electronic state is 1-A'.
 Alpha  occ. eigenvalues --  -20.60454 -20.48707  -1.39269  -1.27285  -0.76459
 Alpha  occ. eigenvalues --   -0.71268  -0.58129  -0.55691  -0.49297  -0.44184
 Alpha virt. eigenvalues --    0.11073   0.16905   0.20339   0.33177   0.48201
 Alpha virt. eigenvalues --    0.53163   0.60495   0.63409   0.72048   0.72116
 Alpha virt. eigenvalues --    0.74686   0.79006   0.79594   0.83711   0.84053

 Mulliken charges:
               1
     1  O   -0.608140
     2  H    0.304982
     3  H    0.217381
     4  O   -0.402448
     5  H    0.244392
     6  H    0.243833
 Sum of Mulliken charges =  -0.00000

 Dipole moment (field-independent basis, Debye):
    X=             -2.1168    Y=             -4.2290    Z=              0.0000  Tot=              4.7292
 Quadrupole moment (field-independent basis, Debye-Ang):
   XX=             -9.5626   YY=             -9.4816   ZZ=            -14.6505
   XY=             -2.8508   XZ=             -0.0000   YZ=              0.0000

 Normal termination of Gaussian 16 at Fri Aug 26 18:14:24 2022.
