 Gaussian 16, Revision A.03,
 Gaussian 16:  ES64L-G16RevA.03 25-Dec-2016

 ------------------
 #p CCSD(T)/cc-pVTZ
 ------------------

 ------------
 H2O_H2O_4144
 ------------
 Symbolic Z-matrix:
 Charge =  0 Multiplicity = 1

                         Standard orientation:
 ---------------------------------------------------------------------
 Center     Atomic      Atomic             Coordinates (Angstroms)
 Number     Number       Type             X           Y           Z
 ---------------------------------------------------------------------
      1          8           0        0.030157    2.755516   -0.000000
      2          1           0        0.028160    1.772917   -0.000000
      3          1           0       -0.898687    3.076071   -0.000000
      4          8           0        0.030157   -2.579887    0.000000
      5          1           0        0.959969   -2.897624    0.000000
      6          1           0       -0.571953   -3.356399    0.000000
 ---------------------------------------------------------------------

 SCF Done:  E(RHF) =  -152.108695847     A.U. after   10 cycles
 E2 =    -0.5258057786D+00 EUMP2 =    -0.15263450162540D+03
 CCSD(T)
 CCSD(T)= -0.15266169029D+03

 The electronic state is 1-A'.
 Alpha  occ. eigenvalues --  -20.56253 -20.54885  -1.33552  -1.32195  -0.70956
 Alpha  occ. eigenvalues --   -0.69598  -0.57056  -0.55672  -0.50673  -0.49321
 Alpha virt. eigenvalues --    0.13136   0.15118   0.19586   0.21302   0.53491
 Alpha virt. eigenvalues --    0.54960   0.56626   0.57824   0.66692   0.68973
 Alpha virt. eigenvalues --    0.78217   0.79295   0.79529   0.80173   0.82806

 Mulliken charges:
               1
     1  O   -0.515261
     2  H    0.260982
     3  H    0.253961
     4  O   -0.515712
     5  H    0.258235
     6  H    0.257795
 Sum of Mulliken charges =  -0.00000

 Dipole moment (field-independent basis, Debye):
    X=             -1.0339    Y=             -3.0938    Z=              0.0000  Tot=              3.2619
 Quadrupole moment (field-independent basis, Debye-Ang):
   XX=             -9.2300   YY=             -6.6934   ZZ=            -14.7158
   XY=             -6.3626   XZ=              0.0000   YZ=             -0.0000

 Normal termination of Gaussian 16 at Sun Aug 28 00:06:55 2022.
