 Gaussian 16, Revision A.03,
 Gaussian 16:  ES64L-G16RevA.03 25-Dec-2016

 ------------------
 #p CCSD(T)/cc-pVTZ
 ------------------

 ------------
 H2O_H2O_1769
 ------------
 Symbolic Z-matrix:
 Charge =  0 Multiplicity = 1

                         Standard orientation:
 ---------------------------------------------------------------------
 Center     Atomic      Atomic             Coordinates (Angstroms)
 Number     Number       Type             X           Y           Z
 ---------------------------------------------------------------------
      1          8           0        0.030255    1.808152    0.000000
      2          1           0        0.027159    0.825555    0.000000
      3          1           0       -0.898229    2.129746    0.000000
      4          8           0        0.030255   -1.632590   -0.000000
      5          1           0        0.959711   -1.951368   -0.000000
      6          1           0       -0.572724   -2.408427   -0.000000
 ---------------------------------------------------------------------

 SCF Done:  E(RHF) =  -152.113125150     A.U. after   10 cycles
 E2 =    -0.5266480453D+00 EUMP2 =    -0.15263977319541D+03
 CCSD(T)
 CCSD(T)= -0.15266681104D+03

 The electronic state is 1-A'.
 Alpha  occ. eigenvalues --  -20.57584 -20.53437  -1.34849  -1.30826  -0.72233
 Alpha  occ. eigenvalues --   -0.68315  -0.58613  -0.54249  -0.51986  -0.47983
 Alpha virt. eigenvalues --    0.12201   0.17325   0.19067   0.27469   0.51405
 Alpha virt. eigenvalues --    0.54422   0.56153   0.59395   0.69042   0.72734
 Alpha virt. eigenvalues --    0.75381   0.77405   0.81018   0.83268   0.84507

 Mulliken charges:
               1
     1  O   -0.535974
     2  H    0.271424
     3  H    0.250662
     4  O   -0.508021
     5  H    0.263165
     6  H    0.258744
 Sum of Mulliken charges =  -0.00000

 Dipole moment (field-independent basis, Debye):
    X=             -1.0227    Y=             -3.3590    Z=             -0.0000  Tot=              3.5112
 Quadrupole moment (field-independent basis, Debye-Ang):
   XX=             -9.2309   YY=             -8.1235   ZZ=            -14.7322
   XY=             -4.3019   XZ=             -0.0000   YZ=              0.0000

 Normal termination of Gaussian 16 at Sun Aug 28 01:25:53 2022.
