 Gaussian 16, Revision A.03,
 Gaussian 16:  ES64L-G16RevA.03 25-Dec-2016

 ------------------
 #p CCSD(T)/cc-pVTZ
 ------------------

 ------------
 H2O_H2O_4075
 ------------
 Symbolic Z-matrix:
 Charge =  0 Multiplicity = 1

                         Standard orientation:
 ---------------------------------------------------------------------
 Center     Atomic      Atomic             Coordinates (Angstroms)
 Number     Number       Type             X           Y           Z
 ---------------------------------------------------------------------
      1          8           0        0.092949   -2.712296    0.000000
      2          1           0        0.092949   -1.729695    0.000000
      3          1           0       -0.836544   -3.030963    0.000000
      4          8           0        0.092949    2.579509    0.000000
      5          1           0        0.092950    3.562112    0.000000
      6          1           0       -0.836544    2.260843    0.000000
 ---------------------------------------------------------------------

 SCF Done:  E(RHF) =  -152.107676712     A.U. after   10 cycles
 E2 =    -0.5259012905D+00 EUMP2 =    -0.15263357800262D+03
 CCSD(T)
 CCSD(T)= -0.15266078911D+03

 The electronic state is 1-A'.
 Alpha  occ. eigenvalues --  -20.56299 -20.55312  -1.33600  -1.32613  -0.71018
 Alpha  occ. eigenvalues --   -0.70007  -0.57060  -0.56064  -0.50709  -0.49725
 Alpha virt. eigenvalues --    0.12277   0.14951   0.18823   0.22190   0.53124
 Alpha virt. eigenvalues --    0.54907   0.56503   0.57790   0.66793   0.68640
 Alpha virt. eigenvalues --    0.78188   0.79149   0.79341   0.81516   0.82115

 Mulliken charges:
               1
     1  O   -0.509442
     2  H    0.257648
     3  H    0.251626
     4  O   -0.510498
     5  H    0.258809
     6  H    0.251857
 Sum of Mulliken charges =  -0.00000

 Dipole moment (field-independent basis, Debye):
    X=             -3.1832    Y=              2.3389    Z=              0.0000  Tot=              3.9501
 Quadrupole moment (field-independent basis, Debye-Ang):
   XX=            -10.8473   YY=             -9.2720   ZZ=            -14.7118
   XY=              2.1551   XZ=              0.0000   YZ=              0.0000

 Normal termination of Gaussian 16 at Sat Aug 27 23:18:48 2022.
