 Gaussian 16, Revision A.03,
 Gaussian 16:  ES64L-G16RevA.03 25-Dec-2016

 ------------------
 #p CCSD(T)/cc-pVTZ
 ------------------

 ------------
 H2O_H2O_3894
 ------------
 Symbolic Z-matrix:
 Charge =  0 Multiplicity = 1

                         Standard orientation:
 ---------------------------------------------------------------------
 Center     Atomic      Atomic             Coordinates (Angstroms)
 Number     Number       Type             X           Y           Z
 ---------------------------------------------------------------------
      1          8           0        0.030164    2.655795    0.000000
      2          1           0        0.028090    1.673196    0.000000
      3          1           0       -0.898654    2.976423    0.000000
      4          8           0        0.030164   -2.480170   -0.000000
      5          1           0        0.959950   -2.797981   -0.000000
      6          1           0       -0.572007   -3.256634   -0.000000
 ---------------------------------------------------------------------

 SCF Done:  E(RHF) =  -152.108886074     A.U. after   10 cycles
 E2 =    -0.5258159064D+00 EUMP2 =    -0.15263470198061D+03
 CCSD(T)
 CCSD(T)= -0.15266188345D+03

 The electronic state is 1-A'.
 Alpha  occ. eigenvalues --  -20.56314 -20.54816  -1.33611  -1.32128  -0.71014
 Alpha  occ. eigenvalues --   -0.69530  -0.57122  -0.55608  -0.50734  -0.49256
 Alpha virt. eigenvalues --    0.12973   0.15269   0.19544   0.21494   0.53423
 Alpha virt. eigenvalues --    0.55036   0.56589   0.57857   0.66695   0.69133
 Alpha virt. eigenvalues --    0.78161   0.79087   0.79590   0.80079   0.82889

 Mulliken charges:
               1
     1  O   -0.515975
     2  H    0.261552
     3  H    0.253856
     4  O   -0.516049
     5  H    0.258573
     6  H    0.258044
 Sum of Mulliken charges =   0.00000

 Dipole moment (field-independent basis, Debye):
    X=             -1.0333    Y=             -3.1039    Z=             -0.0000  Tot=              3.2714
 Quadrupole moment (field-independent basis, Debye-Ang):
   XX=             -9.2298   YY=             -6.8379   ZZ=            -14.7165
   XY=             -6.1465   XZ=             -0.0000   YZ=              0.0000

 Normal termination of Gaussian 16 at Sat Aug 27 00:19:39 2022.
