 Gaussian 16, Revision A.03,
 Gaussian 16:  ES64L-G16RevA.03 25-Dec-2016

 ------------------
 #p CCSD(T)/cc-pVTZ
 ------------------

 ------------
 H2O_H2O_3675
 ------------
 Symbolic Z-matrix:
 Charge =  0 Multiplicity = 1

                         Standard orientation:
 ---------------------------------------------------------------------
 Center     Atomic      Atomic             Coordinates (Angstroms)
 Number     Number       Type             X           Y           Z
 ---------------------------------------------------------------------
      1          8           0        0.092949   -2.552746    0.000000
      2          1           0        0.092949   -1.570144    0.000000
      3          1           0       -0.836544   -2.871412    0.000000
      4          8           0        0.092949    2.419959    0.000000
      5          1           0        0.092949    3.402560    0.000000
      6          1           0       -0.836544    2.101292    0.000000
 ---------------------------------------------------------------------

 SCF Done:  E(RHF) =  -152.107769941     A.U. after   10 cycles
 E2 =    -0.5259414512D+00 EUMP2 =    -0.15263371139169D+03
 CCSD(T)
 CCSD(T)= -0.15266091591D+03

 The electronic state is 1-A'.
 Alpha  occ. eigenvalues --  -20.56404 -20.55264  -1.33703  -1.32565  -0.71125
 Alpha  occ. eigenvalues --   -0.69956  -0.57165  -0.56016  -0.50812  -0.49677
 Alpha virt. eigenvalues --    0.11895   0.15174   0.18923   0.22612   0.53279
 Alpha virt. eigenvalues --    0.54908   0.56473   0.57907   0.66865   0.68789
 Alpha virt. eigenvalues --    0.78092   0.78878   0.79196   0.81407   0.82383

 Mulliken charges:
               1
     1  O   -0.509560
     2  H    0.258208
     3  H    0.250954
     4  O   -0.510188
     5  H    0.259353
     6  H    0.251233
 Sum of Mulliken charges =  -0.00000

 Dipole moment (field-independent basis, Debye):
    X=             -3.1777    Y=              2.3509    Z=              0.0000  Tot=              3.9528
 Quadrupole moment (field-independent basis, Debye-Ang):
   XX=            -10.8502   YY=             -9.2545   ZZ=            -14.7120
   XY=              2.1530   XZ=              0.0000   YZ=              0.0000

 CCSD(T)=-152.6609159\RMSD=7.163e-09\PG=CS [SG(H4O2)]\\@
 Normal termination of Gaussian 16 at Fri Aug 26 23:02:54 2022.
