 Gaussian 16, Revision A.03,
 Gaussian 16:  ES64L-G16RevA.03 25-Dec-2016

 ------------------
 #p CCSD(T)/cc-pVTZ
 ------------------

 -----------
 H2O_H2O_258
 -----------
 Symbolic Z-matrix:
 Charge =  0 Multiplicity = 1

                         Standard orientation:
 ---------------------------------------------------------------------
 Center     Atomic      Atomic             Coordinates (Angstroms)
 Number     Number       Type             X           Y           Z
 ---------------------------------------------------------------------
      1          8           0        0.070274    1.206877    0.000000
      2          1           0        0.068552    0.224277    0.000000
      3          1           0       -0.858660    1.527171   -0.000000
      4          8           0        0.070274   -1.036756    0.000000
      5          1           0        0.560084   -1.888574    0.000000
      6          1           0       -0.894354   -1.223840   -0.000000
 ---------------------------------------------------------------------

 SCF Done:  E(RHF) =  -152.075323303     A.U. after   11 cycles
 E2 =    -0.5347217154D+00 EUMP2 =    -0.15261004501842D+03
 CCSD(T)
 CCSD(T)= -0.15263600674D+03

 The electronic state is 1-A'.
 Alpha  occ. eigenvalues --  -20.61136 -20.47257  -1.41039  -1.26379  -0.78525
 Alpha  occ. eigenvalues --   -0.72802  -0.56857  -0.56846  -0.47786  -0.43154
 Alpha virt. eigenvalues --    0.10768   0.16489   0.20856   0.32827   0.48639
 Alpha virt. eigenvalues --    0.52441   0.60437   0.64270   0.71746   0.72188
 Alpha virt. eigenvalues --    0.77463   0.78317   0.80406   0.84151   0.84595

 Mulliken charges:
               1
     1  O   -0.622782
     2  H    0.294812
     3  H    0.206966
     4  O   -0.357694
     5  H    0.237663
     6  H    0.241034
 Sum of Mulliken charges =  -0.00000

 Dipole moment (field-independent basis, Debye):
    X=             -2.1852    Y=             -4.4435    Z=             -0.0000  Tot=              4.9518
 Quadrupole moment (field-independent basis, Debye-Ang):
   XX=             -9.6693   YY=             -9.7474   ZZ=            -14.6048
   XY=             -2.7044   XZ=             -0.0000   YZ=             -0.0000

 Normal termination of Gaussian 16 at Fri Aug 26 16:57:55 2022.
