 Gaussian 16, Revision A.03,
 Gaussian 16:  ES64L-G16RevA.03 25-Dec-2016

 ------------------
 #p CCSD(T)/cc-pVTZ
 ------------------

 ------------
 H2O_H2O_1651
 ------------
 Symbolic Z-matrix:
 Charge =  0 Multiplicity = 1

                         Standard orientation:
 ---------------------------------------------------------------------
 Center     Atomic      Atomic             Coordinates (Angstroms)
 Number     Number       Type             X           Y           Z
 ---------------------------------------------------------------------
      1          8           0        0.090687   -1.748232    0.000000
      2          1           0        0.090572   -0.765631    0.000000
      3          1           0       -0.838769   -2.067007    0.000000
      4          8           0        0.090687    1.609529    0.000000
      5          1           0        0.154838    2.590036    0.000000
      6          1           0       -0.857628    1.352227    0.000000
 ---------------------------------------------------------------------

 SCF Done:  E(RHF) =  -152.109456901     A.U. after   10 cycles
 E2 =    -0.5272603770D+00 EUMP2 =    -0.15263671727813D+03
 CCSD(T)
 CCSD(T)= -0.15266381692D+03

 The electronic state is 1-A'.
 Alpha  occ. eigenvalues --  -20.57675 -20.54448  -1.35004  -1.31788  -0.72642
 Alpha  occ. eigenvalues --   -0.69063  -0.58522  -0.55176  -0.52078  -0.48895
 Alpha virt. eigenvalues --    0.11522   0.16306   0.20281   0.27080   0.50527
 Alpha virt. eigenvalues --    0.54856   0.57538   0.57713   0.68068   0.74464
 Alpha virt. eigenvalues --    0.74573   0.77890   0.80390   0.82304   0.83405

 Mulliken charges:
               1
     1  O   -0.519996
     2  H    0.270403
     3  H    0.241357
     4  O   -0.489731
     5  H    0.253687
     6  H    0.244280
 Sum of Mulliken charges =  -0.00000

 Dipole moment (field-independent basis, Debye):
    X=             -3.0389    Y=              2.6628    Z=              0.0000  Tot=              4.0405
 Quadrupole moment (field-independent basis, Debye-Ang):
   XX=            -10.7465   YY=             -8.9794   ZZ=            -14.7143
   XY=              2.2998   XZ=              0.0000   YZ=              0.0000

 3101\MP4DQ=-152.6454551\MP4SDQ=-152.6486\CCSD=-152.6479705\CCSD(T)=-15
 Normal termination of Gaussian 16 at Sun Aug 28 00:20:45 2022.
