 Gaussian 16, Revision A.03,
 Gaussian 16:  ES64L-G16RevA.03 25-Dec-2016

 ------------------
 #p CCSD(T)/cc-pVTZ
 ------------------

 -----------
 H2O_H2O_568
 -----------
 Symbolic Z-matrix:
 Charge =  0 Multiplicity = 1

                         Standard orientation:
 ---------------------------------------------------------------------
 Center     Atomic      Atomic             Coordinates (Angstroms)
 Number     Number       Type             X           Y           Z
 ---------------------------------------------------------------------
      1          8           0        0.033955    1.330502    0.000000
      2          1           0        0.029912    0.347909    0.000000
      3          1           0       -0.894219    1.652990    0.000000
      4          8           0        0.033955   -1.153105    0.000000
      5          1           0        0.940206   -1.532862    0.000000
      6          1           0       -0.619182   -1.887215    0.000000
 ---------------------------------------------------------------------

 SCF Done:  E(RHF) =  -152.103277668     A.U. after   11 cycles
 E2 =    -0.5311601849D+00 EUMP2 =    -0.15263443785282D+03
 CCSD(T)
 CCSD(T)= -0.15266088789D+03

 The electronic state is 1-A'.
 Alpha  occ. eigenvalues --  -20.59985 -20.49203  -1.38288  -1.27555  -0.75242
 Alpha  occ. eigenvalues --   -0.70288  -0.58962  -0.55000  -0.49755  -0.44538
 Alpha virt. eigenvalues --    0.11430   0.17925   0.19543   0.33671   0.47431
 Alpha virt. eigenvalues --    0.53815   0.59404   0.65983   0.68973   0.72297
 Alpha virt. eigenvalues --    0.73549   0.78203   0.80770   0.83309   0.83981

 Mulliken charges:
               1
     1  O   -0.612059
     2  H    0.309455
     3  H    0.233673
     4  O   -0.441121
     5  H    0.262483
     6  H    0.247569
 Sum of Mulliken charges =   0.00000

 Dipole moment (field-independent basis, Debye):
    X=             -1.0951    Y=             -4.1718    Z=             -0.0000  Tot=              4.3131
 Quadrupole moment (field-independent basis, Debye-Ang):
   XX=             -9.1549   YY=             -9.3322   ZZ=            -14.6824
   XY=             -3.1742   XZ=             -0.0000   YZ=             -0.0000

 Normal termination of Gaussian 16 at Fri Aug 26 19:07:35 2022.
