 Gaussian 16, Revision A.03,
 Gaussian 16:  ES64L-G16RevA.03 25-Dec-2016

 ------------------
 #p CCSD(T)/cc-pVTZ
 ------------------

 ------------
 H2O_H2O_1049
 ------------
 Symbolic Z-matrix:
 Charge =  0 Multiplicity = 1

                         Standard orientation:
 ---------------------------------------------------------------------
 Center     Atomic      Atomic             Coordinates (Angstroms)
 Number     Number       Type             X           Y           Z
 ---------------------------------------------------------------------
      1          8           0        0.013660   -1.510094    0.000000
      2          1           0        0.008948   -0.527504    0.000000
      3          1           0       -0.914295   -1.833213    0.000000
      4          8           0        0.013660    1.350880    0.000000
      5          1           0        0.996251    1.355591    0.000000
      6          1           0       -0.309460    2.278835    0.000000
 ---------------------------------------------------------------------

 SCF Done:  E(RHF) =  -152.112013593     A.U. after   10 cycles
 E2 =    -0.5285011668D+00 EUMP2 =    -0.15264051475926D+03
 CCSD(T)
 CCSD(T)= -0.15266740472D+03

 The electronic state is 1-A'.
 Alpha  occ. eigenvalues --  -20.58611 -20.52297  -1.36169  -1.29926  -0.73869
 Alpha  occ. eigenvalues --   -0.67872  -0.59847  -0.53182  -0.52971  -0.47051
 Alpha virt. eigenvalues --    0.12029   0.18026   0.19079   0.31744   0.49183
 Alpha virt. eigenvalues --    0.54518   0.55804   0.63227   0.68389   0.72576
 Alpha virt. eigenvalues --    0.74527   0.76376   0.81342   0.82422   0.84233

 Mulliken charges:
               1
     1  O   -0.566930
     2  H    0.286130
     3  H    0.251749
     4  O   -0.469843
     5  H    0.260286
     6  H    0.238609
 Sum of Mulliken charges =  -0.00000

 Dipole moment (field-independent basis, Debye):
    X=             -0.4681    Y=              3.3380    Z=              0.0000  Tot=              3.3707
 Quadrupole moment (field-independent basis, Debye-Ang):
   XX=             -9.6375   YY=             -8.8523   ZZ=            -14.7164
   XY=              4.0447   XZ=              0.0000   YZ=              0.0000

 Normal termination of Gaussian 16 at Fri Aug 26 22:08:58 2022.
