 Gaussian 16, Revision A.03,
 Gaussian 16:  ES64L-G16RevA.03 25-Dec-2016

 ------------------
 #p CCSD(T)/cc-pVTZ
 ------------------

 ------------
 H2O_H2O_2088
 ------------
 Symbolic Z-matrix:
 Charge =  0 Multiplicity = 1

                         Standard orientation:
 ---------------------------------------------------------------------
 Center     Atomic      Atomic             Coordinates (Angstroms)
 Number     Number       Type             X           Y           Z
 ---------------------------------------------------------------------
      1          8           0        0.052330    1.940113    0.000000
      2          1           0        0.050465    0.957514    0.000000
      3          1           0       -0.876557    2.260543    0.000000
      4          8           0        0.052330   -1.760259   -0.000000
      5          1           0        0.789858   -2.409534   -0.000000
      6          1           0       -0.801040   -2.247359   -0.000000
 ---------------------------------------------------------------------

 SCF Done:  E(RHF) =  -152.111958730     A.U. after   10 cycles
 E2 =    -0.5263597599D+00 EUMP2 =    -0.15263831848946D+03
 CCSD(T)
 CCSD(T)= -0.15266539169D+03

 The electronic state is 1-A'.
 Alpha  occ. eigenvalues --  -20.57280 -20.53780  -1.34532  -1.31133  -0.71919
 Alpha  occ. eigenvalues --   -0.68548  -0.58199  -0.54596  -0.51670  -0.48281
 Alpha virt. eigenvalues --    0.12209   0.16859   0.19215   0.25802   0.51749
 Alpha virt. eigenvalues --    0.55252   0.56342   0.58966   0.69019   0.72186
 Alpha virt. eigenvalues --    0.76506   0.77792   0.80623   0.83475   0.84013

 Mulliken charges:
               1
     1  O   -0.527490
     2  H    0.268861
     3  H    0.248440
     4  O   -0.508003
     5  H    0.261629
     6  H    0.256563
 Sum of Mulliken charges =  -0.00000

 Dipole moment (field-independent basis, Debye):
    X=             -1.7706    Y=             -3.3669    Z=             -0.0000  Tot=              3.8041
 Quadrupole moment (field-independent basis, Debye-Ang):
   XX=             -9.2309   YY=             -7.8137   ZZ=            -14.7273
   XY=             -3.9879   XZ=             -0.0000   YZ=              0.0000

 Normal termination of Gaussian 16 at Sun Aug 28 04:14:03 2022.
