 Gaussian 16, Revision A.03,
 Gaussian 16:  ES64L-G16RevA.03 25-Dec-2016

 ------------------
 #p CCSD(T)/cc-pVTZ
 ------------------

 -----------
 H2O_H2O_902
 -----------
 Symbolic Z-matrix:
 Charge =  0 Multiplicity = 1

                         Standard orientation:
 ---------------------------------------------------------------------
 Center     Atomic      Atomic             Coordinates (Angstroms)
 Number     Number       Type             X           Y           Z
 ---------------------------------------------------------------------
      1          8           0        0.088240   -1.452115    0.000000
      2          1           0        0.087950   -0.469514    0.000000
      3          1           0       -0.841159   -1.771056    0.000000
      4          8           0        0.088240    1.307816    0.000000
      5          1           0        0.216208    2.282049    0.000000
      6          1           0       -0.874838    1.112914    0.000000
 ---------------------------------------------------------------------

 SCF Done:  E(RHF) =  -152.106238322     A.U. after   10 cycles
 E2 =    -0.5299697997D+00 EUMP2 =    -0.15263620812212D+03
 CCSD(T)
 CCSD(T)= -0.15266309314D+03

 The electronic state is 1-A'.
 Alpha  occ. eigenvalues --  -20.58936 -20.52822  -1.36699  -1.30443  -0.74901
 Alpha  occ. eigenvalues --   -0.68101  -0.59682  -0.53557  -0.53530  -0.47493
 Alpha virt. eigenvalues --    0.11445   0.16535   0.20482   0.31288   0.48287
 Alpha virt. eigenvalues --    0.53206   0.58437   0.61267   0.68672   0.71795
 Alpha virt. eigenvalues --    0.74162   0.77947   0.80031   0.82264   0.83219

 Mulliken charges:
               1
     1  O   -0.544871
     2  H    0.287408
     3  H    0.228849
     4  O   -0.440420
     5  H    0.234981
     6  H    0.234053
 Sum of Mulliken charges =  -0.00000

 Dipole moment (field-independent basis, Debye):
    X=             -2.8922    Y=              3.1059    Z=              0.0000  Tot=              4.2440
 Quadrupole moment (field-independent basis, Debye-Ang):
   XX=            -10.6052   YY=             -9.0933   ZZ=            -14.6892
   XY=              2.3732   XZ=              0.0000   YZ=              0.0000

 Normal termination of Gaussian 16 at Fri Aug 26 21:14:14 2022.
