 Gaussian 16, Revision A.03,
 Gaussian 16:  ES64L-G16RevA.03 25-Dec-2016

 ------------------
 #p CCSD(T)/cc-pVTZ
 ------------------

 -----------
 H2O_H2O_601
 -----------
 Symbolic Z-matrix:
 Charge =  0 Multiplicity = 1

                         Standard orientation:
 ---------------------------------------------------------------------
 Center     Atomic      Atomic             Coordinates (Angstroms)
 Number     Number       Type             X           Y           Z
 ---------------------------------------------------------------------
      1          8           0        0.090689   -1.329408    0.000000
      2          1           0        0.090537   -0.346807    0.000000
      3          1           0       -0.838754   -1.648219    0.000000
      4          8           0        0.090689    1.190712    0.000000
      5          1           0        0.154802    2.171220    0.000000
      6          1           0       -0.857616    0.933372    0.000000
 ---------------------------------------------------------------------

 SCF Done:  E(RHF) =  -152.095297666     A.U. after   11 cycles
 E2 =    -0.5324500055D+00 EUMP2 =    -0.15262774767140D+03
 CCSD(T)
 CCSD(T)= -0.15265438135D+03

 The electronic state is 1-A'.
 Alpha  occ. eigenvalues --  -20.59699 -20.51754  -1.38219  -1.29689  -0.77182
 Alpha  occ. eigenvalues --   -0.67965  -0.59694  -0.54646  -0.52490  -0.46676
 Alpha virt. eigenvalues --    0.11289   0.16407   0.20931   0.32180   0.48412
 Alpha virt. eigenvalues --    0.52112   0.58885   0.64309   0.69945   0.71277
 Alpha virt. eigenvalues --    0.73901   0.78174   0.78537   0.82785   0.83323

 Mulliken charges:
               1
     1  O   -0.558199
     2  H    0.287307
     3  H    0.218094
     4  O   -0.407563
     5  H    0.232008
     6  H    0.228353
 Sum of Mulliken charges =  -0.00000

 Dipole moment (field-independent basis, Debye):
    X=             -2.9302    Y=              3.2554    Z=              0.0000  Tot=              4.3799
 Quadrupole moment (field-independent basis, Debye-Ang):
   XX=            -10.7419   YY=             -9.3617   ZZ=            -14.6485
   XY=              2.1748   XZ=              0.0000   YZ=              0.0000

 Normal termination of Gaussian 16 at Fri Aug 26 19:19:41 2022.
