 Gaussian 16, Revision A.03,
 Gaussian 16:  ES64L-G16RevA.03 25-Dec-2016

 ------------------
 #p CCSD(T)/cc-pVTZ
 ------------------

 -----------
 H2O_H2O_725
 -----------
 Symbolic Z-matrix:
 Charge =  0 Multiplicity = 1

                         Standard orientation:
 ---------------------------------------------------------------------
 Center     Atomic      Atomic             Coordinates (Angstroms)
 Number     Number       Type             X           Y           Z
 ---------------------------------------------------------------------
      1          8           0        0.092949   -1.376058    0.000000
      2          1           0        0.092949   -0.393456    0.000000
      3          1           0       -0.836544   -1.694724    0.000000
      4          8           0        0.092949    1.243271    0.000000
      5          1           0        0.092949    2.225872    0.000000
      6          1           0       -0.836544    0.924604    0.000000
 ---------------------------------------------------------------------

 SCF Done:  E(RHF) =  -152.098997641     A.U. after   10 cycles
 E2 =    -0.5315543393D+00 EUMP2 =    -0.15263055198002D+03
 CCSD(T)
 CCSD(T)= -0.15265733889D+03

 The electronic state is 1-A'.
 Alpha  occ. eigenvalues --  -20.59326 -20.52646  -1.37526  -1.30390  -0.76455
 Alpha  occ. eigenvalues --   -0.67793  -0.59829  -0.54112  -0.53378  -0.47399
 Alpha virt. eigenvalues --    0.11377   0.16381   0.20989   0.31705   0.48160
 Alpha virt. eigenvalues --    0.52211   0.58689   0.63303   0.68996   0.71066
 Alpha virt. eigenvalues --    0.73736   0.78539   0.78696   0.82618   0.82650

 Mulliken charges:
               1
     1  O   -0.545954
     2  H    0.286113
     3  H    0.222291
     4  O   -0.423360
     5  H    0.234360
     6  H    0.226551
 Sum of Mulliken charges =  -0.00000

 Dipole moment (field-independent basis, Debye):
    X=             -3.0257    Y=              3.0071    Z=              0.0000  Tot=              4.2659
 Quadrupole moment (field-independent basis, Debye-Ang):
   XX=            -10.8954   YY=             -9.3508   ZZ=            -14.6614
   XY=              2.0475   XZ=              0.0000   YZ=              0.0000

 Normal termination of Gaussian 16 at Fri Aug 26 20:07:30 2022.
