 Gaussian 16, Revision A.03,
 Gaussian 16:  ES64L-G16RevA.03 25-Dec-2016

 ------------------
 #p CCSD(T)/cc-pVTZ
 ------------------

 ------------
 H2O_H2O_4970
 ------------
 Symbolic Z-matrix:
 Charge =  0 Multiplicity = 1

                         Standard orientation:
 ---------------------------------------------------------------------
 Center     Atomic      Atomic             Coordinates (Angstroms)
 Number     Number       Type             X           Y           Z
 ---------------------------------------------------------------------
      1          8           0        0.026603    3.083302   -0.000000
      2          1           0        0.024726    2.100702   -0.000000
      3          1           0       -0.902279    3.403744   -0.000000
      4          8           0        0.026603   -2.910043    0.000000
      5          1           0        0.975235   -3.166173    0.000000
      6          1           0       -0.523333   -3.724339    0.000000
 ---------------------------------------------------------------------

 SCF Done:  E(RHF) =  -152.108275562     A.U. after   10 cycles
 E2 =    -0.5258007261D+00 EUMP2 =    -0.15263407628797D+03
 CCSD(T)
 CCSD(T)= -0.15266127871D+03

 The electronic state is 1-A'.
 Alpha  occ. eigenvalues --  -20.56108 -20.55075  -1.33411  -1.32381  -0.70816
 Alpha  occ. eigenvalues --   -0.69786  -0.56898  -0.55851  -0.50529  -0.49503
 Alpha virt. eigenvalues --    0.13525   0.14745   0.19695   0.20908   0.53693
 Alpha virt. eigenvalues --    0.54786   0.56728   0.57740   0.67077   0.68456
 Alpha virt. eigenvalues --    0.78353   0.79358   0.79737   0.80623   0.82080

 Mulliken charges:
               1
     1  O   -0.513513
     2  H    0.259142
     3  H    0.254341
     4  O   -0.514011
     5  H    0.257066
     6  H    0.256975
 Sum of Mulliken charges =   0.00000

 Dipole moment (field-independent basis, Debye):
    X=             -0.9140    Y=             -3.0302    Z=              0.0000  Tot=              3.1650
 Quadrupole moment (field-independent basis, Debye-Ang):
   XX=             -9.2899   YY=             -6.3625   ZZ=            -14.7144
   XY=             -7.3239   XZ=              0.0000   YZ=             -0.0000

 Normal termination of Gaussian 16 at Sun Aug 28 07:18:43 2022.
