 Gaussian 16, Revision A.03,
 Gaussian 16:  ES64L-G16RevA.03 25-Dec-2016

 ------------------
 #p CCSD(T)/cc-pVTZ
 ------------------

 ------------
 H2O_H2O_1588
 ------------
 Symbolic Z-matrix:
 Charge =  0 Multiplicity = 1

                         Standard orientation:
 ---------------------------------------------------------------------
 Center     Atomic      Atomic             Coordinates (Angstroms)
 Number     Number       Type             X           Y           Z
 ---------------------------------------------------------------------
      1          8           0        0.052350    1.740663    0.000000
      2          1           0        0.050260    0.758064    0.000000
      3          1           0       -0.876463    2.061307    0.000000
      4          8           0        0.052350   -1.560833   -0.000000
      5          1           0        0.789729   -2.210277   -0.000000
      6          1           0       -0.801132   -2.047736   -0.000000
 ---------------------------------------------------------------------

 SCF Done:  E(RHF) =  -152.113503319     A.U. after   10 cycles
 E2 =    -0.5269898182D+00 EUMP2 =    -0.15264049313713D+03
 CCSD(T)
 CCSD(T)= -0.15266750695D+03

 The electronic state is 1-A'.
 Alpha  occ. eigenvalues --  -20.57838 -20.53111  -1.35109  -1.30531  -0.72463
 Alpha  occ. eigenvalues --   -0.68107  -0.58900  -0.53904  -0.52242  -0.47680
 Alpha virt. eigenvalues --    0.12060   0.17410   0.19063   0.28458   0.50095
 Alpha virt. eigenvalues --    0.54803   0.56264   0.59284   0.69149   0.72165
 Alpha virt. eigenvalues --    0.74683   0.76804   0.81349   0.83103   0.84702

 Mulliken charges:
               1
     1  O   -0.537908
     2  H    0.275857
     3  H    0.245598
     4  O   -0.506058
     5  H    0.264498
     6  H    0.258013
 Sum of Mulliken charges =  -0.00000

 Dipole moment (field-independent basis, Debye):
    X=             -1.7574    Y=             -3.4953    Z=             -0.0000  Tot=              3.9122
 Quadrupole moment (field-independent basis, Debye-Ang):
   XX=             -9.2339   YY=             -8.1982   ZZ=            -14.7340
   XY=             -3.7010   XZ=             -0.0000   YZ=             -0.0000

 Normal termination of Gaussian 16 at Sat Aug 27 23:30:49 2022.
