 Gaussian 16, Revision A.03,
 Gaussian 16:  ES64L-G16RevA.03 25-Dec-2016

 ------------------
 #p CCSD(T)/cc-pVTZ
 ------------------

 ------------
 H2O_H2O_2954
 ------------
 Symbolic Z-matrix:
 Charge =  0 Multiplicity = 1

                         Standard orientation:
 ---------------------------------------------------------------------
 Center     Atomic      Atomic             Coordinates (Angstroms)
 Number     Number       Type             X           Y           Z
 ---------------------------------------------------------------------
      1          8           0        0.082805   -2.275362    0.000000
      2          1           0        0.082413   -1.292761    0.000000
      3          1           0       -0.846561   -2.594399    0.000000
      4          8           0        0.082805    2.120847    0.000000
      5          1           0        0.336742    3.070068    0.000000
      6          1           0       -0.897468    2.053218    0.000000
 ---------------------------------------------------------------------

 SCF Done:  E(RHF) =  -152.108834840     A.U. after   10 cycles
 E2 =    -0.5260433080D+00 EUMP2 =    -0.15263487814769D+03
 CCSD(T)
 CCSD(T)= -0.15266204105D+03

 The electronic state is 1-A'.
 Alpha  occ. eigenvalues --  -20.56675 -20.54819  -1.33963  -1.32128  -0.71386
 Alpha  occ. eigenvalues --   -0.69509  -0.57459  -0.55591  -0.51079  -0.49250
 Alpha virt. eigenvalues --    0.11933   0.15731   0.19431   0.22895   0.54072
 Alpha virt. eigenvalues --    0.54934   0.56390   0.58332   0.68159   0.69217
 Alpha virt. eigenvalues --    0.77804   0.78704   0.79611   0.80744   0.82834

 Mulliken charges:
               1
     1  O   -0.513794
     2  H    0.262206
     3  H    0.249319
     4  O   -0.509976
     5  H    0.259773
     6  H    0.252471
 Sum of Mulliken charges =  -0.00000

 Dipole moment (field-independent basis, Debye):
    X=             -2.8199    Y=              2.7808    Z=              0.0000  Tot=              3.9604
 Quadrupole moment (field-independent basis, Debye-Ang):
   XX=            -10.2558   YY=             -8.2171   ZZ=            -14.7158
   XY=              2.9772   XZ=              0.0000   YZ=              0.0000

 Normal termination of Gaussian 16 at Fri Aug 26 18:43:00 2022.
