 Gaussian 16, Revision A.03,
 Gaussian 16:  ES64L-G16RevA.03 25-Dec-2016

 ------------------
 #p CCSD(T)/cc-pVTZ
 ------------------

 ------------
 H2O_H2O_4224
 ------------
 Symbolic Z-matrix:
 Charge =  0 Multiplicity = 1

                         Standard orientation:
 ---------------------------------------------------------------------
 Center     Atomic      Atomic             Coordinates (Angstroms)
 Number     Number       Type             X           Y           Z
 ---------------------------------------------------------------------
      1          8           0       -0.013481    2.776552    0.000000
      2          1           0       -0.010981    1.793954    0.000000
      3          1           0        0.915199    3.097581    0.000000
      4          8           0       -0.013481   -2.617277    0.000000
      5          1           0       -0.996079   -2.619776    0.000000
      6          1           0        0.307550   -3.545957    0.000000
 ---------------------------------------------------------------------

 SCF Done:  E(RHF) =  -152.108549138     A.U. after   10 cycles
 E2 =    -0.5258041190D+00 EUMP2 =    -0.15263435325744D+03
 CCSD(T)
 CCSD(T)= -0.15266154706D+03

 The electronic state is 1-A'.
 Alpha  occ. eigenvalues --  -20.56232 -20.55039  -1.33534  -1.32348  -0.70941
 Alpha  occ. eigenvalues --   -0.69755  -0.57030  -0.55823  -0.50653  -0.49473
 Alpha virt. eigenvalues --    0.12987   0.15033   0.19277   0.21572   0.53282
 Alpha virt. eigenvalues --    0.55036   0.56643   0.57806   0.66731   0.68809
 Alpha virt. eigenvalues --    0.78235   0.79291   0.79383   0.80846   0.82589

 Mulliken charges:
               1
     1  O   -0.514852
     2  H    0.259601
     3  H    0.255037
     4  O   -0.515263
     5  H    0.257046
     6  H    0.258430
 Sum of Mulliken charges =  -0.00000

 Dipole moment (field-independent basis, Debye):
    X=              0.4642    Y=             -2.8012    Z=              0.0000  Tot=              2.8394
 Quadrupole moment (field-independent basis, Debye-Ang):
   XX=             -9.6481   YY=             -7.5671   ZZ=            -14.7151
   XY=              7.5214   XZ=              0.0000   YZ=              0.0000

 Normal termination of Gaussian 16 at Sun Aug 28 00:56:03 2022.
