 Gaussian 16, Revision A.03,
 Gaussian 16:  ES64L-G16RevA.03 25-Dec-2016

 ------------------
 #p CCSD(T)/cc-pVTZ
 ------------------

 ------------
 H2O_H2O_1795
 ------------
 Symbolic Z-matrix:
 Charge =  0 Multiplicity = 1

                         Standard orientation:
 ---------------------------------------------------------------------
 Center     Atomic      Atomic             Coordinates (Angstroms)
 Number     Number       Type             X           Y           Z
 ---------------------------------------------------------------------
      1          8           0        0.026724    1.816833   -0.000000
      2          1           0        0.023473    0.834237   -0.000000
      3          1           0       -0.901709    2.138574    0.000000
      4          8           0        0.026724   -1.643650   -0.000000
      5          1           0        0.974998   -1.901104   -0.000000
      6          1           0       -0.524349   -2.457175    0.000000
 ---------------------------------------------------------------------

 SCF Done:  E(RHF) =  -152.112961876     A.U. after   10 cycles
 E2 =    -0.5266114560D+00 EUMP2 =    -0.15263957333225D+03
 CCSD(T)
 CCSD(T)= -0.15266661618D+03

 The electronic state is 1-A'.
 Alpha  occ. eigenvalues --  -20.57545 -20.53521  -1.34813  -1.30905  -0.72208
 Alpha  occ. eigenvalues --   -0.68382  -0.58565  -0.54334  -0.51948  -0.48063
 Alpha virt. eigenvalues --    0.12207   0.17272   0.19098   0.27315   0.51627
 Alpha virt. eigenvalues --    0.54407   0.56102   0.59396   0.69025   0.72905
 Alpha virt. eigenvalues --    0.75470   0.77602   0.80944   0.83280   0.84422

 Mulliken charges:
               1
     1  O   -0.535409
     2  H    0.270662
     3  H    0.251457
     4  O   -0.508092
     5  H    0.262843
     6  H    0.258538
 Sum of Mulliken charges =  -0.00000

 Dipole moment (field-independent basis, Debye):
    X=             -0.9052    Y=             -3.3057    Z=              0.0000  Tot=              3.4274
 Quadrupole moment (field-independent basis, Debye-Ang):
   XX=             -9.2897   YY=             -8.1475   ZZ=            -14.7314
   XY=             -4.4195   XZ=              0.0000   YZ=              0.0000

 Normal termination of Gaussian 16 at Sun Aug 28 01:38:53 2022.
