 Gaussian 16, Revision A.03,
 Gaussian 16:  ES64L-G16RevA.03 25-Dec-2016

 ------------------
 #p CCSD(T)/cc-pVTZ
 ------------------

 -----------
 H2O_H2O_259
 -----------
 Symbolic Z-matrix:
 Charge =  0 Multiplicity = 1

                         Standard orientation:
 ---------------------------------------------------------------------
 Center     Atomic      Atomic             Coordinates (Angstroms)
 Number     Number       Type             X           Y           Z
 ---------------------------------------------------------------------
      1          8           0        0.066848    1.208425   -0.000000
      2          1           0        0.064867    0.225826   -0.000000
      3          1           0       -0.862000    1.528965   -0.000000
      4          8           0        0.066848   -1.035457    0.000000
      5          1           0        0.611105   -1.853559    0.000000
      6          1           0       -0.883543   -1.284977    0.000000
 ---------------------------------------------------------------------

 SCF Done:  E(RHF) =  -152.076213104     A.U. after   11 cycles
 E2 =    -0.5345223154D+00 EUMP2 =    -0.15261073541977D+03
 CCSD(T)
 CCSD(T)= -0.15263669259D+03

 The electronic state is 1-A'.
 Alpha  occ. eigenvalues --  -20.61155 -20.47057  -1.41010  -1.26228  -0.78159
 Alpha  occ. eigenvalues --   -0.73262  -0.56875  -0.56744  -0.47567  -0.42992
 Alpha virt. eigenvalues --    0.10765   0.16569   0.20796   0.32926   0.48394
 Alpha virt. eigenvalues --    0.52527   0.60858   0.64099   0.71755   0.72007
 Alpha virt. eigenvalues --    0.77600   0.78739   0.80443   0.83720   0.84554

 Mulliken charges:
               1
     1  O   -0.627096
     2  H    0.297770
     3  H    0.208034
     4  O   -0.361861
     5  H    0.240676
     6  H    0.242477
 Sum of Mulliken charges =  -0.00000

 Dipole moment (field-independent basis, Debye):
    X=             -2.0769    Y=             -4.5119    Z=              0.0000  Tot=              4.9670
 Quadrupole moment (field-independent basis, Debye-Ang):
   XX=             -9.5469   YY=             -9.7709   ZZ=            -14.6087
   XY=             -2.7454   XZ=              0.0000   YZ=              0.0000

 Normal termination of Gaussian 16 at Fri Aug 26 16:58:19 2022.
