 Gaussian 16, Revision A.03,
 Gaussian 16:  ES64L-G16RevA.03 25-Dec-2016

 ------------------
 #p CCSD(T)/cc-pVTZ
 ------------------

 ------------
 H2O_H2O_3149
 ------------
 Symbolic Z-matrix:
 Charge =  0 Multiplicity = 1

                         Standard orientation:
 ---------------------------------------------------------------------
 Center     Atomic      Atomic             Coordinates (Angstroms)
 Number     Number       Type             X           Y           Z
 ---------------------------------------------------------------------
      1          8           0       -0.013519    2.347754    0.000000
      2          1           0       -0.010547    1.365157    0.000000
      3          1           0        0.915006    2.669230    0.000000
      4          8           0       -0.013519   -2.188492    0.000000
      5          1           0       -0.996115   -2.191463    0.000000
      6          1           0        0.307957   -3.117018    0.000000
 ---------------------------------------------------------------------

 SCF Done:  E(RHF) =  -152.109507593     A.U. after   10 cycles
 E2 =    -0.5258940424D+00 EUMP2 =    -0.15263540163498D+03
 CCSD(T)
 CCSD(T)= -0.15266255847D+03

 The electronic state is 1-A'.
 Alpha  occ. eigenvalues --  -20.56555 -20.54740  -1.33847  -1.32057  -0.71256
 Alpha  occ. eigenvalues --   -0.69465  -0.57375  -0.55545  -0.50971  -0.49191
 Alpha virt. eigenvalues --    0.12280   0.15766   0.19206   0.22907   0.53655
 Alpha virt. eigenvalues --    0.55525   0.56444   0.58127   0.67649   0.69320
 Alpha virt. eigenvalues --    0.77923   0.78651   0.79650   0.80758   0.83047

 Mulliken charges:
               1
     1  O   -0.518898
     2  H    0.261969
     3  H    0.255015
     4  O   -0.515332
     5  H    0.258099
     6  H    0.259146
 Sum of Mulliken charges =  -0.00000

 Dipole moment (field-independent basis, Debye):
    X=              0.4659    Y=             -2.8516    Z=              0.0000  Tot=              2.8894
 Quadrupole moment (field-independent basis, Debye-Ang):
   XX=             -9.6480   YY=             -7.9348   ZZ=            -14.7184
   XY=              6.3477   XZ=              0.0000   YZ=              0.0000

 Normal termination of Gaussian 16 at Fri Aug 26 20:04:51 2022.
