 Gaussian 16, Revision A.03,
 Gaussian 16:  ES64L-G16RevA.03 25-Dec-2016

 ------------------
 #p CCSD(T)/cc-pVTZ
 ------------------

 ------------
 H2O_H2O_2197
 ------------
 Symbolic Z-matrix:
 Charge =  0 Multiplicity = 1

                         Standard orientation:
 ---------------------------------------------------------------------
 Center     Atomic      Atomic             Coordinates (Angstroms)
 Number     Number       Type             X           Y           Z
 ---------------------------------------------------------------------
      1          8           0       -0.019907    1.973069    0.000000
      2          1           0       -0.016625    0.990473    0.000000
      3          1           0        0.908516    2.294839    0.000000
      4          8           0       -0.019907   -1.805988    0.000000
      5          1           0       -0.993669   -1.937497    0.000000
      6          1           0        0.420294   -2.684469    0.000000
 ---------------------------------------------------------------------

 SCF Done:  E(RHF) =  -152.111570329     A.U. after   10 cycles
 E2 =    -0.5262401253D+00 EUMP2 =    -0.15263781045390D+03
 CCSD(T)
 CCSD(T)= -0.15266489798D+03

 The electronic state is 1-A'.
 Alpha  occ. eigenvalues --  -20.57137 -20.54076  -1.34407  -1.31420  -0.71818
 Alpha  occ. eigenvalues --   -0.68838  -0.58044  -0.54897  -0.51541  -0.48571
 Alpha virt. eigenvalues --    0.12227   0.16728   0.19232   0.25445   0.53170
 Alpha virt. eigenvalues --    0.54967   0.56146   0.58742   0.68826   0.72163
 Alpha virt. eigenvalues --    0.76764   0.78807   0.80346   0.83042   0.83558

 Mulliken charges:
               1
     1  O   -0.528093
     2  H    0.266516
     3  H    0.253518
     4  O   -0.510594
     5  H    0.260540
     6  H    0.258114
 Sum of Mulliken charges =  -0.00000

 Dipole moment (field-independent basis, Debye):
    X=              0.6802    Y=             -3.1033    Z=              0.0000  Tot=              3.1770
 Quadrupole moment (field-independent basis, Debye-Ang):
   XX=             -9.4479   YY=             -8.0524   ZZ=            -14.7254
   XY=              5.0358   XZ=              0.0000   YZ=              0.0000

 Normal termination of Gaussian 16 at Sun Aug 28 05:21:56 2022.
