 Gaussian 16, Revision A.03,
 Gaussian 16:  ES64L-G16RevA.03 25-Dec-2016

 ------------------
 #p CCSD(T)/cc-pVTZ
 ------------------

 ------------
 H2O_H2O_1470
 ------------
 Symbolic Z-matrix:
 Charge =  0 Multiplicity = 1

                         Standard orientation:
 ---------------------------------------------------------------------
 Center     Atomic      Atomic             Coordinates (Angstroms)
 Number     Number       Type             X           Y           Z
 ---------------------------------------------------------------------
      1          8           0        0.026747    1.687191    0.000000
      2          1           0        0.023232    0.704596    0.000000
      3          1           0       -0.901600    2.009181   -0.000000
      4          8           0        0.026747   -1.514022    0.000000
      5          1           0        0.974953   -1.771732    0.000000
      6          1           0       -0.524545   -2.327400   -0.000000
 ---------------------------------------------------------------------

 SCF Done:  E(RHF) =  -152.113810039     A.U. after   10 cycles
 E2 =    -0.5271498004D+00 EUMP2 =    -0.15264095983925D+03
 CCSD(T)
 CCSD(T)= -0.15266795451D+03

 The electronic state is 1-A'.
 Alpha  occ. eigenvalues --  -20.57959 -20.52986  -1.35267  -1.30438  -0.72657
 Alpha  occ. eigenvalues --   -0.68078  -0.59099  -0.53767  -0.52390  -0.47592
 Alpha virt. eigenvalues --    0.12134   0.17721   0.18953   0.29176   0.50436
 Alpha virt. eigenvalues --    0.54311   0.55904   0.60472   0.68845   0.72997
 Alpha virt. eigenvalues --    0.74146   0.77104   0.81512   0.82925   0.84531

 Mulliken charges:
               1
     1  O   -0.545476
     2  H    0.277325
     3  H    0.250148
     4  O   -0.503319
     5  H    0.264527
     6  H    0.256795
 Sum of Mulliken charges =  -0.00000

 Dipole moment (field-independent basis, Debye):
    X=             -0.9013    Y=             -3.4089    Z=             -0.0000  Tot=              3.5260
 Quadrupole moment (field-independent basis, Debye-Ang):
   XX=             -9.2880   YY=             -8.3793   ZZ=            -14.7336
   XY=             -4.1171   XZ=             -0.0000   YZ=             -0.0000

 Normal termination of Gaussian 16 at Sat Aug 27 00:46:49 2022.
