 Gaussian 16, Revision A.03,
 Gaussian 16:  ES64L-G16RevA.03 25-Dec-2016

 ------------------
 #p CCSD(T)/cc-pVTZ
 ------------------

 ------------
 H2O_H2O_4180
 ------------
 Symbolic Z-matrix:
 Charge =  0 Multiplicity = 1

                         Standard orientation:
 ---------------------------------------------------------------------
 Center     Atomic      Atomic             Coordinates (Angstroms)
 Number     Number       Type             X           Y           Z
 ---------------------------------------------------------------------
      1          8           0        0.079846    2.766462    0.000000
      2          1           0        0.079432    1.783861    0.000000
      3          1           0       -0.849513    3.085520    0.000000
      4          8           0        0.079846   -2.607389    0.000000
      5          1           0        0.395300   -3.537976    0.000000
      6          1           0       -0.902750   -2.603995    0.000000
 ---------------------------------------------------------------------

 SCF Done:  E(RHF) =  -152.108102805     A.U. after   10 cycles
 E2 =    -0.5258578116D+00 EUMP2 =    -0.15263396061650D+03
 CCSD(T)
 CCSD(T)= -0.15266116200D+03

 The electronic state is 1-A'.
 Alpha  occ. eigenvalues --  -20.56263 -20.55076  -1.33564  -1.32382  -0.70975
 Alpha  occ. eigenvalues --   -0.69777  -0.57041  -0.55843  -0.50678  -0.49499
 Alpha virt. eigenvalues --    0.12874   0.14972   0.19308   0.21428   0.53276
 Alpha virt. eigenvalues --    0.54957   0.56549   0.57820   0.66747   0.68813
 Alpha virt. eigenvalues --    0.78215   0.79217   0.79363   0.80809   0.82554

 Mulliken charges:
               1
     1  O   -0.511716
     2  H    0.259562
     3  H    0.251929
     4  O   -0.512733
     5  H    0.258983
     6  H    0.253975
 Sum of Mulliken charges =  -0.00000

 Dipole moment (field-independent basis, Debye):
    X=             -2.7354    Y=             -2.8006    Z=              0.0000  Tot=              3.9148
 Quadrupole moment (field-independent basis, Debye-Ang):
   XX=            -10.0949   YY=             -7.6168   ZZ=            -14.7136
   XY=             -3.3961   XZ=              0.0000   YZ=              0.0000

 Normal termination of Gaussian 16 at Sun Aug 28 00:28:08 2022.
