 Gaussian 16, Revision A.03,
 Gaussian 16:  ES64L-G16RevA.03 25-Dec-2016

 ------------------
 #p CCSD(T)/cc-pVTZ
 ------------------

 -----------
 H2O_H2O_530
 -----------
 Symbolic Z-matrix:
 Charge =  0 Multiplicity = 1

                         Standard orientation:
 ---------------------------------------------------------------------
 Center     Atomic      Atomic             Coordinates (Angstroms)
 Number     Number       Type             X           Y           Z
 ---------------------------------------------------------------------
      1          8           0        0.079885   -1.310521    0.000000
      2          1           0        0.078982   -0.327920    0.000000
      3          1           0       -0.849315   -1.630041    0.000000
      4          8           0        0.079885    1.151527    0.000000
      5          1           0        0.394877    2.082271    0.000000
      6          1           0       -0.902709    1.147645    0.000000
 ---------------------------------------------------------------------

 SCF Done:  E(RHF) =  -152.096984011     A.U. after   11 cycles
 E2 =    -0.5324191754D+00 EUMP2 =    -0.15262940318595D+03
 CCSD(T)
 CCSD(T)= -0.15265587565D+03

 The electronic state is 1-A'.
 Alpha  occ. eigenvalues --  -20.60028 -20.50274  -1.38584  -1.28470  -0.76695
 Alpha  occ. eigenvalues --   -0.69275  -0.59054  -0.55076  -0.50940  -0.45433
 Alpha virt. eigenvalues --    0.11185   0.16648   0.20491   0.32784   0.48494
 Alpha virt. eigenvalues --    0.52936   0.59225   0.63766   0.71468   0.71940
 Alpha virt. eigenvalues --    0.74047   0.78533   0.78785   0.83705   0.84090

 Mulliken charges:
               1
     1  O   -0.582621
     2  H    0.296065
     3  H    0.218181
     4  O   -0.402163
     5  H    0.234067
     6  H    0.236471
 Sum of Mulliken charges =  -0.00000

 Dipole moment (field-independent basis, Debye):
    X=             -2.5581    Y=              3.7791    Z=              0.0000  Tot=              4.5635
 Quadrupole moment (field-independent basis, Debye-Ang):
   XX=            -10.1223   YY=             -9.3117   ZZ=            -14.6541
   XY=              2.6277   XZ=              0.0000   YZ=              0.0000

 Normal termination of Gaussian 16 at Fri Aug 26 18:52:09 2022.
