 Gaussian 16, Revision A.03,
 Gaussian 16:  ES64L-G16RevA.03 25-Dec-2016

 ------------------
 #p CCSD(T)/cc-pVTZ
 ------------------

 ----------
 H2O_H2O_59
 ----------
 Symbolic Z-matrix:
 Charge =  0 Multiplicity = 1

                         Standard orientation:
 ---------------------------------------------------------------------
 Center     Atomic      Atomic             Coordinates (Angstroms)
 Number     Number       Type             X           Y           Z
 ---------------------------------------------------------------------
      1          8           0        0.066862    1.128639    0.000000
      2          1           0        0.064729    0.146040    0.000000
      3          1           0       -0.861937    1.449323    0.000000
      4          8           0        0.066862   -0.955692   -0.000000
      5          1           0        0.610991   -1.773878   -0.000000
      6          1           0       -0.883569   -1.205066   -0.000000
 ---------------------------------------------------------------------

 SCF Done:  E(RHF) =  -152.038333001     A.U. after   11 cycles
 E2 =    -0.5367187515D+00 EUMP2 =    -0.15257505175292D+03
 CCSD(T)
 CCSD(T)= -0.15260058623D+03

 The electronic state is 1-A'.
 Alpha  occ. eigenvalues --  -20.62049 -20.44684  -1.43956  -1.24833  -0.81158
 Alpha  occ. eigenvalues --   -0.75806  -0.58629  -0.54700  -0.44976  -0.41356
 Alpha virt. eigenvalues --    0.10328   0.16033   0.21442   0.32250   0.48626
 Alpha virt. eigenvalues --    0.51679   0.60930   0.64165   0.70603   0.71534
 Alpha virt. eigenvalues --    0.77945   0.79378   0.81705   0.83804   0.88471

 Mulliken charges:
               1
     1  O   -0.655627
     2  H    0.280361
     3  H    0.194148
     4  O   -0.297815
     5  H    0.236067
     6  H    0.242866
 Sum of Mulliken charges =  -0.00000

 Dipole moment (field-independent basis, Debye):
    X=             -2.0218    Y=             -4.9011    Z=             -0.0000  Tot=              5.3018
 Quadrupole moment (field-independent basis, Debye-Ang):
   XX=             -9.5222   YY=            -10.1541   ZZ=            -14.5421
   XY=             -2.6080   XZ=             -0.0000   YZ=             -0.0000

 Normal termination of Gaussian 16 at Fri Aug 26 15:35:13 2022.
