 Gaussian 16, Revision A.03,
 Gaussian 16:  ES64L-G16RevA.03 25-Dec-2016

 ------------------
 #p CCSD(T)/cc-pVTZ
 ------------------

 ------------
 H2O_H2O_2830
 ------------
 Symbolic Z-matrix:
 Charge =  0 Multiplicity = 1

                         Standard orientation:
 ---------------------------------------------------------------------
 Center     Atomic      Atomic             Coordinates (Angstroms)
 Number     Number       Type             X           Y           Z
 ---------------------------------------------------------------------
      1          8           0        0.079854    2.227970    0.000000
      2          1           0        0.079337    1.245368    0.000000
      3          1           0       -0.849471    2.547125    0.000000
      4          8           0        0.079854   -2.068913   -0.000000
      5          1           0        0.395212   -2.999534   -0.000000
      6          1           0       -0.902742   -2.065416   -0.000000
 ---------------------------------------------------------------------

 SCF Done:  E(RHF) =  -152.109154017     A.U. after   10 cycles
 E2 =    -0.5260701738D+00 EUMP2 =    -0.15263522419109D+03
 CCSD(T)
 CCSD(T)= -0.15266237619D+03

 The electronic state is 1-A'.
 Alpha  occ. eigenvalues --  -20.56739 -20.54701  -1.34023  -1.32013  -0.71444
 Alpha  occ. eigenvalues --   -0.69393  -0.57532  -0.55479  -0.51142  -0.49137
 Alpha virt. eigenvalues --    0.11982   0.15856   0.19460   0.23092   0.53954
 Alpha virt. eigenvalues --    0.55109   0.56345   0.58432   0.68513   0.69375
 Alpha virt. eigenvalues --    0.77718   0.78879   0.79722   0.80561   0.82947

 Mulliken charges:
               1
     1  O   -0.515143
     2  H    0.263174
     3  H    0.249031
     4  O   -0.509747
     5  H    0.259733
     6  H    0.252951
 Sum of Mulliken charges =  -0.00000

 Dipole moment (field-independent basis, Debye):
    X=             -2.7175    Y=             -2.8743    Z=             -0.0000  Tot=              3.9556
 Quadrupole moment (field-independent basis, Debye-Ang):
   XX=            -10.1059   YY=             -8.0681   ZZ=            -14.7169
   XY=             -3.1469   XZ=             -0.0000   YZ=              0.0000

 Normal termination of Gaussian 16 at Fri Aug 26 17:37:17 2022.
