 Gaussian 16, Revision A.03,
 Gaussian 16:  ES64L-G16RevA.03 25-Dec-2016

 ------------------
 #p CCSD(T)/cc-pVTZ
 ------------------

 ------------
 H2O_H2O_3428
 ------------
 Symbolic Z-matrix:
 Charge =  0 Multiplicity = 1

                         Standard orientation:
 ---------------------------------------------------------------------
 Center     Atomic      Atomic             Coordinates (Angstroms)
 Number     Number       Type             X           Y           Z
 ---------------------------------------------------------------------
      1          8           0        0.085600   -2.462158    0.000000
      2          1           0        0.085339   -1.479557    0.000000
      3          1           0       -0.843808   -2.781072    0.000000
      4          8           0        0.085600    2.312559    0.000000
      5          1           0        0.277040    3.276331    0.000000
      6          1           0       -0.888167    2.181092    0.000000
 ---------------------------------------------------------------------

 SCF Done:  E(RHF) =  -152.108282921     A.U. after   10 cycles
 E2 =    -0.5259475937D+00 EUMP2 =    -0.15263423051508D+03
 CCSD(T)
 CCSD(T)= -0.15266141741D+03

 The electronic state is 1-A'.
 Alpha  occ. eigenvalues --  -20.56478 -20.55021  -1.33774  -1.32327  -0.71193
 Alpha  occ. eigenvalues --   -0.69715  -0.57253  -0.55787  -0.50887  -0.49444
 Alpha virt. eigenvalues --    0.12078   0.15388   0.19230   0.22326   0.53490
 Alpha virt. eigenvalues --    0.54991   0.56436   0.58085   0.67066   0.69073
 Alpha virt. eigenvalues --    0.78019   0.78620   0.79417   0.81046   0.82639

 Mulliken charges:
               1
     1  O   -0.511671
     2  H    0.260194
     3  H    0.250523
     4  O   -0.511333
     5  H    0.259754
     6  H    0.252533
 Sum of Mulliken charges =  -0.00000

 Dipole moment (field-independent basis, Debye):
    X=             -2.9231    Y=              2.6620    Z=              0.0000  Tot=              3.9535
 Quadrupole moment (field-independent basis, Debye-Ang):
   XX=            -10.4037   YY=             -8.3395   ZZ=            -14.7140
   XY=              2.8283   XZ=              0.0000   YZ=              0.0000

 Normal termination of Gaussian 16 at Fri Aug 26 21:38:43 2022.
