 Gaussian 16, Revision A.03,
 Gaussian 16:  ES64L-G16RevA.03 25-Dec-2016

 ------------------
 #p CCSD(T)/cc-pVTZ
 ------------------

 ------------
 H2O_H2O_2421
 ------------
 Symbolic Z-matrix:
 Charge =  0 Multiplicity = 1

                         Standard orientation:
 ---------------------------------------------------------------------
 Center     Atomic      Atomic             Coordinates (Angstroms)
 Number     Number       Type             X           Y           Z
 ---------------------------------------------------------------------
      1          8           0       -0.023242    2.064601    0.000000
      2          1           0       -0.020252    1.082004    0.000000
      3          1           0        0.905277    2.386094    0.000000
      4          8           0       -0.023242   -1.894232    0.000000
      5          1           0       -0.986376   -2.088860    0.000000
      6          1           0        0.473219   -2.742190    0.000000
 ---------------------------------------------------------------------

 SCF Done:  E(RHF) =  -152.111083716     A.U. after   10 cycles
 E2 =    -0.5261114315D+00 EUMP2 =    -0.15263719514701D+03
 CCSD(T)
 CCSD(T)= -0.15266429830D+03

 The electronic state is 1-A'.
 Alpha  occ. eigenvalues --  -20.56974 -20.54197  -1.34243  -1.31531  -0.71646
 Alpha  occ. eigenvalues --   -0.68940  -0.57847  -0.55019  -0.51377  -0.48679
 Alpha virt. eigenvalues --    0.12274   0.16507   0.19261   0.24565   0.53332
 Alpha virt. eigenvalues --    0.55398   0.56319   0.58619   0.68899   0.71097
 Alpha virt. eigenvalues --    0.77242   0.78969   0.80187   0.81571   0.83683

 Mulliken charges:
               1
     1  O   -0.525494
     2  H    0.265971
     3  H    0.253252
     4  O   -0.511822
     5  H    0.260178
     6  H    0.257914
 Sum of Mulliken charges =   0.00000

 Dipole moment (field-independent basis, Debye):
    X=              0.7929    Y=             -3.1309    Z=              0.0000  Tot=              3.2298
 Quadrupole moment (field-independent basis, Debye-Ang):
   XX=             -9.3617   YY=             -7.8449   ZZ=            -14.7236
   XY=              5.1258   XZ=              0.0000   YZ=              0.0000

 Normal termination of Gaussian 16 at Sun Aug 28 07:11:19 2022.
