 Gaussian 16, Revision A.03,
 Gaussian 16:  ES64L-G16RevA.03 25-Dec-2016

 ------------------
 #p CCSD(T)/cc-pVTZ
 ------------------

 -----------
 H2O_H2O_147
 -----------
 Symbolic Z-matrix:
 Charge =  0 Multiplicity = 1

                         Standard orientation:
 ---------------------------------------------------------------------
 Center     Atomic      Atomic             Coordinates (Angstroms)
 Number     Number       Type             X           Y           Z
 ---------------------------------------------------------------------
      1          8           0        0.020120   -1.155328    0.000000
      2          1           0        0.014334   -0.172744    0.000000
      3          1           0       -0.907480   -1.479462    0.000000
      4          8           0        0.020120    0.988348    0.000000
      5          1           0        0.993544    1.122338    0.000000
      6          1           0       -0.422317    1.865705    0.000000
 ---------------------------------------------------------------------

 SCF Done:  E(RHF) =  -152.055051250     A.U. after   11 cycles
 E2 =    -0.5354580185D+00 EUMP2 =    -0.15259050926860D+03
 CCSD(T)
 CCSD(T)= -0.15261618808D+03

 The electronic state is 1-A'.
 Alpha  occ. eigenvalues --  -20.61504 -20.45513  -1.42644  -1.25271  -0.80668
 Alpha  occ. eigenvalues --   -0.73256  -0.57777  -0.56405  -0.45683  -0.41962
 Alpha virt. eigenvalues --    0.10786   0.17147   0.20648   0.33702   0.47383
 Alpha virt. eigenvalues --    0.52018   0.60200   0.68944   0.71229   0.71618
 Alpha virt. eigenvalues --    0.76490   0.77391   0.80170   0.84953   0.86058

 Mulliken charges:
               1
     1  O   -0.667732
     2  H    0.282741
     3  H    0.224537
     4  O   -0.334673
     5  H    0.263946
     6  H    0.231181
 Sum of Mulliken charges =  -0.00000

 Dipole moment (field-independent basis, Debye):
    X=             -0.6153    Y=              4.6317    Z=              0.0000  Tot=              4.6723
 Quadrupole moment (field-independent basis, Debye-Ang):
   XX=             -9.3348   YY=             -9.9756   ZZ=            -14.5725
   XY=              2.8784   XZ=              0.0000   YZ=              0.0000

 Normal termination of Gaussian 16 at Fri Aug 26 16:11:21 2022.
