 Gaussian 16, Revision A.03,
 Gaussian 16:  ES64L-G16RevA.03 25-Dec-2016

 ------------------
 #p CCSD(T)/cc-pVTZ
 ------------------

 ------------
 H2O_H2O_2278
 ------------
 Symbolic Z-matrix:
 Charge =  0 Multiplicity = 1

                         Standard orientation:
 ---------------------------------------------------------------------
 Center     Atomic      Atomic             Coordinates (Angstroms)
 Number     Number       Type             X           Y           Z
 ---------------------------------------------------------------------
      1          8           0        0.085605   -2.003444    0.000000
      2          1           0        0.085281   -1.020842    0.000000
      3          1           0       -0.843784   -2.322416    0.000000
      4          8           0        0.085605    1.853855    0.000000
      5          1           0        0.276984    2.817639    0.000000
      6          1           0       -0.888154    1.722327    0.000000
 ---------------------------------------------------------------------

 SCF Done:  E(RHF) =  -152.109512297     A.U. after   10 cycles
 E2 =    -0.5263893980D+00 EUMP2 =    -0.15263590169545D+03
 CCSD(T)
 CCSD(T)= -0.15266302936D+03

 The electronic state is 1-A'.
 Alpha  occ. eigenvalues --  -20.57088 -20.54618  -1.34370  -1.31933  -0.71825
 Alpha  occ. eigenvalues --   -0.69294  -0.57892  -0.55381  -0.51481  -0.49055
 Alpha virt. eigenvalues --    0.11696   0.16133   0.19740   0.24618   0.52927
 Alpha virt. eigenvalues --    0.55753   0.56500   0.57807   0.68585   0.72075
 Alpha virt. eigenvalues --    0.76934   0.79386   0.79909   0.80917   0.83422

 Mulliken charges:
               1
     1  O   -0.516413
     2  H    0.264875
     3  H    0.246359
     4  O   -0.504053
     5  H    0.259119
     6  H    0.250113
 Sum of Mulliken charges =  -0.00000

 Dipole moment (field-independent basis, Debye):
    X=             -2.8978    Y=              2.7583    Z=              0.0000  Tot=              4.0007
 Quadrupole moment (field-independent basis, Debye-Ang):
   XX=            -10.4226   YY=             -8.5616   ZZ=            -14.7175
   XY=              2.7044   XZ=              0.0000   YZ=              0.0000

 Normal termination of Gaussian 16 at Sun Aug 28 05:56:57 2022.
