 Gaussian 16, Revision A.03,
 Gaussian 16:  ES64L-G16RevA.03 25-Dec-2016

 ------------------
 #p CCSD(T)/cc-pVTZ
 ------------------

 ------------
 H2O_H2O_3483
 ------------
 Symbolic Z-matrix:
 Charge =  0 Multiplicity = 1

                         Standard orientation:
 ---------------------------------------------------------------------
 Center     Atomic      Atomic             Coordinates (Angstroms)
 Number     Number       Type             X           Y           Z
 ---------------------------------------------------------------------
      1          8           0        0.070194    2.493321   -0.000000
      2          1           0        0.069392    1.510720   -0.000000
      3          1           0       -0.859039    2.812746   -0.000000
      4          8           0        0.070194   -2.323069    0.000000
      5          1           0        0.560800   -3.174428    0.000000
      6          1           0       -0.894258   -2.511055    0.000000
 ---------------------------------------------------------------------

 SCF Done:  E(RHF) =  -152.108809166     A.U. after   10 cycles
 E2 =    -0.5258968808D+00 EUMP2 =    -0.15263470604720D+03
 CCSD(T)
 CCSD(T)= -0.15266188105D+03

 The electronic state is 1-A'.
 Alpha  occ. eigenvalues --  -20.56455 -20.54780  -1.33747  -1.32091  -0.71156
 Alpha  occ. eigenvalues --   -0.69482  -0.57249  -0.55563  -0.50867  -0.49216
 Alpha virt. eigenvalues --    0.12547   0.15462   0.19451   0.21869   0.53383
 Alpha virt. eigenvalues --    0.55090   0.56433   0.58092   0.67013   0.69266
 Alpha virt. eigenvalues --    0.78038   0.78748   0.79631   0.80199   0.82905

 Mulliken charges:
               1
     1  O   -0.514351
     2  H    0.261978
     3  H    0.251179
     4  O   -0.513731
     5  H    0.259912
     6  H    0.255013
 Sum of Mulliken charges =  -0.00000

 Dipole moment (field-independent basis, Debye):
    X=             -2.3983    Y=             -3.0299    Z=              0.0000  Tot=              3.8642
 Quadrupole moment (field-independent basis, Debye-Ang):
   XX=             -9.6825   YY=             -7.3221   ZZ=            -14.7162
   XY=             -3.8733   XZ=              0.0000   YZ=             -0.0000

 Normal termination of Gaussian 16 at Fri Aug 26 21:56:47 2022.
