 Gaussian 16, Revision A.03,
 Gaussian 16:  ES64L-G16RevA.03 25-Dec-2016

 ------------------
 #p CCSD(T)/cc-pVTZ
 ------------------

 -----------
 H2O_H2O_765
 -----------
 Symbolic Z-matrix:
 Charge =  0 Multiplicity = 1

                         Standard orientation:
 ---------------------------------------------------------------------
 Center     Atomic      Atomic             Coordinates (Angstroms)
 Number     Number       Type             X           Y           Z
 ---------------------------------------------------------------------
      1          8           0        0.044976    1.411840    0.000000
      2          1           0        0.041887    0.429244    0.000000
      3          1           0       -0.883511    1.733427    0.000000
      4          8           0        0.044976   -1.231558   -0.000000
      5          1           0        0.860260   -1.780027   -0.000000
      6          1           0       -0.738253   -1.824903   -0.000000
 ---------------------------------------------------------------------

 SCF Done:  E(RHF) =  -152.110139441     A.U. after   10 cycles
 E2 =    -0.5298338555D+00 EUMP2 =    -0.15263997329606D+03
 CCSD(T)
 CCSD(T)= -0.15266664132D+03

 The electronic state is 1-A'.
 Alpha  occ. eigenvalues --  -20.59426 -20.50413  -1.37232  -1.28396  -0.74225
 Alpha  occ. eigenvalues --   -0.69050  -0.59518  -0.54166  -0.51055  -0.45450
 Alpha virt. eigenvalues --    0.11609   0.17985   0.19249   0.33036   0.47851
 Alpha virt. eigenvalues --    0.54260   0.58656   0.62356   0.69484   0.72074
 Alpha virt. eigenvalues --    0.72438   0.77995   0.81930   0.82898   0.84506

 Mulliken charges:
               1
     1  O   -0.589451
     2  H    0.309140
     3  H    0.235345
     4  O   -0.474036
     5  H    0.264272
     6  H    0.254729
 Sum of Mulliken charges =  -0.00000

 Dipole moment (field-independent basis, Debye):
    X=             -1.4656    Y=             -4.0043    Z=             -0.0000  Tot=              4.2641
 Quadrupole moment (field-independent basis, Debye-Ang):
   XX=             -9.1458   YY=             -9.0602   ZZ=            -14.7090
   XY=             -3.2570   XZ=             -0.0000   YZ=             -0.0000

 Normal termination of Gaussian 16 at Fri Aug 26 20:22:19 2022.
