 Gaussian 16, Revision A.03,
 Gaussian 16:  ES64L-G16RevA.03 25-Dec-2016

 ------------------
 #p CCSD(T)/cc-pVTZ
 ------------------

 ------------
 H2O_H2O_4505
 ------------
 Symbolic Z-matrix:
 Charge =  0 Multiplicity = 1

                         Standard orientation:
 ---------------------------------------------------------------------
 Center     Atomic      Atomic             Coordinates (Angstroms)
 Number     Number       Type             X           Y           Z
 ---------------------------------------------------------------------
      1          8           0        0.079844    2.896099    0.000000
      2          1           0        0.079449    1.913498    0.000000
      3          1           0       -0.849521    3.215139    0.000000
      4          8           0        0.079844   -2.737022   -0.000000
      5          1           0        0.395318   -3.667604   -0.000000
      6          1           0       -0.902751   -2.733649   -0.000000
 ---------------------------------------------------------------------

 SCF Done:  E(RHF) =  -152.107988784     A.U. after   10 cycles
 E2 =    -0.5258466290D+00 EUMP2 =    -0.15263383541266D+03
 CCSD(T)
 CCSD(T)= -0.15266104167D+03

 The electronic state is 1-A'.
 Alpha  occ. eigenvalues --  -20.56198 -20.55133  -1.33500  -1.32437  -0.70911
 Alpha  occ. eigenvalues --   -0.69834  -0.56974  -0.55897  -0.50614  -0.49554
 Alpha virt. eigenvalues --    0.13121   0.14808   0.19366   0.21207   0.53407
 Alpha virt. eigenvalues --    0.54863   0.56601   0.57740   0.66884   0.68610
 Alpha virt. eigenvalues --    0.78275   0.79311   0.79500   0.80804   0.82273

 Mulliken charges:
               1
     1  O   -0.511392
     2  H    0.259004
     3  H    0.252293
     4  O   -0.512393
     5  H    0.258466
     6  H    0.254022
 Sum of Mulliken charges =  -0.00000

 Dipole moment (field-independent basis, Debye):
    X=             -2.7380    Y=             -2.7918    Z=             -0.0000  Tot=              3.9104
 Quadrupole moment (field-independent basis, Debye-Ang):
   XX=            -10.0938   YY=             -7.5044   ZZ=            -14.7132
   XY=             -3.4561   XZ=             -0.0000   YZ=             -0.0000

 Normal termination of Gaussian 16 at Sun Aug 28 03:24:56 2022.
