 Gaussian 16, Revision A.03,
 Gaussian 16:  ES64L-G16RevA.03 25-Dec-2016

 ------------------
 #p CCSD(T)/cc-pVTZ
 ------------------

 ------------
 H2O_H2O_4832
 ------------
 Symbolic Z-matrix:
 Charge =  0 Multiplicity = 1

                         Standard orientation:
 ---------------------------------------------------------------------
 Center     Atomic      Atomic             Coordinates (Angstroms)
 Number     Number       Type             X           Y           Z
 ---------------------------------------------------------------------
      1          8           0        0.073521    3.030020    0.000000
      2          1           0        0.072962    2.047419    0.000000
      3          1           0       -0.855790    3.349215    0.000000
      4          8           0        0.073521   -2.863053   -0.000000
      5          1           0        0.507614   -3.744569   -0.000000
      6          1           0       -0.901130   -2.987799   -0.000000
 ---------------------------------------------------------------------

 SCF Done:  E(RHF) =  -152.108010832     A.U. after   10 cycles
 E2 =    -0.5258321751D+00 EUMP2 =    -0.15263384300704D+03
 CCSD(T)
 CCSD(T)= -0.15266105007D+03

 The electronic state is 1-A'.
 Alpha  occ. eigenvalues --  -20.56141 -20.55121  -1.33443  -1.32425  -0.70852
 Alpha  occ. eigenvalues --   -0.69824  -0.56918  -0.55886  -0.50558  -0.49543
 Alpha virt. eigenvalues --    0.13394   0.14711   0.19568   0.20949   0.53601
 Alpha virt. eigenvalues --    0.54787   0.56668   0.57702   0.67037   0.68480
 Alpha virt. eigenvalues --    0.78327   0.79322   0.79669   0.80672   0.82094

 Mulliken charges:
               1
     1  O   -0.511715
     2  H    0.258958
     3  H    0.252716
     4  O   -0.512562
     5  H    0.258016
     6  H    0.254587
 Sum of Mulliken charges =  -0.00000

 Dipole moment (field-independent basis, Debye):
    X=             -2.5232    Y=             -2.9233    Z=             -0.0000  Tot=              3.8617
 Quadrupole moment (field-independent basis, Debye-Ang):
   XX=             -9.8084   YY=             -6.8601   ZZ=            -14.7134
   XY=             -4.0434   XZ=             -0.0000   YZ=              0.0000

 Normal termination of Gaussian 16 at Sun Aug 28 06:15:03 2022.
