 Gaussian 16, Revision A.03,
 Gaussian 16:  ES64L-G16RevA.03 25-Dec-2016

 ------------------
 #p CCSD(T)/cc-pVTZ
 ------------------

 ------------
 H2O_H2O_2527
 ------------
 Symbolic Z-matrix:
 Charge =  0 Multiplicity = 1

                         Standard orientation:
 ---------------------------------------------------------------------
 Center     Atomic      Atomic             Coordinates (Angstroms)
 Number     Number       Type             X           Y           Z
 ---------------------------------------------------------------------
      1          8           0        0.088233   -2.100299    0.000000
      2          1           0        0.088036   -1.117698    0.000000
      3          1           0       -0.841196   -2.419152    0.000000
      4          8           0        0.088233    1.955983    0.000000
      5          1           0        0.216294    2.930204    0.000000
      6          1           0       -0.874863    1.761172    0.000000
 ---------------------------------------------------------------------

 SCF Done:  E(RHF) =  -152.108908627     A.U. after   10 cycles
 E2 =    -0.5262504786D+00 EUMP2 =    -0.15263515910562D+03
 CCSD(T)
 CCSD(T)= -0.15266230916D+03

 The electronic state is 1-A'.
 Alpha  occ. eigenvalues --  -20.56910 -20.54835  -1.34197  -1.32143  -0.71644
 Alpha  occ. eigenvalues --   -0.69509  -0.57692  -0.55594  -0.51307  -0.49261
 Alpha virt. eigenvalues --    0.11628   0.15920   0.19691   0.23934   0.53702
 Alpha virt. eigenvalues --    0.55482   0.56497   0.57973   0.68545   0.70659
 Alpha virt. eigenvalues --    0.77386   0.79081   0.79658   0.80407   0.83117

 Mulliken charges:
               1
     1  O   -0.514013
     2  H    0.263184
     3  H    0.247488
     4  O   -0.505711
     5  H    0.259295
     6  H    0.249757
 Sum of Mulliken charges =  -0.00000

 Dipole moment (field-independent basis, Debye):
    X=             -2.9935    Y=              2.6307    Z=              0.0000  Tot=              3.9851
 Quadrupole moment (field-independent basis, Debye-Ang):
   XX=            -10.5709   YY=             -8.7146   ZZ=            -14.7154
   XY=              2.5421   XZ=              0.0000   YZ=              0.0000

 Normal termination of Gaussian 16 at Fri Aug 26 15:22:38 2022.
