 Gaussian 16, Revision A.03,
 Gaussian 16:  ES64L-G16RevA.03 25-Dec-2016

 ------------------
 #p CCSD(T)/cc-pVTZ
 ------------------

 ------------
 H2O_H2O_2425
 ------------
 Symbolic Z-matrix:
 Charge =  0 Multiplicity = 1

                         Standard orientation:
 ---------------------------------------------------------------------
 Center     Atomic      Atomic             Coordinates (Angstroms)
 Number     Number       Type             X           Y           Z
 ---------------------------------------------------------------------
      1          8           0        0.092949   -2.054149    0.000000
      2          1           0        0.092949   -1.071548    0.000000
      3          1           0       -0.836544   -2.372816    0.000000
      4          8           0        0.092949    1.921362    0.000000
      5          1           0        0.092950    2.903964    0.000000
      6          1           0       -0.836544    1.602696    0.000000
 ---------------------------------------------------------------------

 SCF Done:  E(RHF) =  -152.108461016     A.U. after   10 cycles
 E2 =    -0.5263580066D+00 EUMP2 =    -0.15263481902235D+03
 CCSD(T)
 CCSD(T)= -0.15266197838D+03

 The electronic state is 1-A'.
 Alpha  occ. eigenvalues --  -20.56972 -20.55018  -1.34263  -1.32319  -0.71737
 Alpha  occ. eigenvalues --   -0.69670  -0.57739  -0.55760  -0.51365  -0.49431
 Alpha virt. eigenvalues --    0.11417   0.15871   0.19898   0.24331   0.53404
 Alpha virt. eigenvalues --    0.55793   0.56511   0.57706   0.68260   0.71355
 Alpha virt. eigenvalues --    0.77198   0.79069   0.79541   0.79950   0.83347

 Mulliken charges:
               1
     1  O   -0.512407
     2  H    0.262778
     3  H    0.246891
     4  O   -0.503515
     5  H    0.259269
     6  H    0.246984
 Sum of Mulliken charges =  -0.00000

 Dipole moment (field-independent basis, Debye):
    X=             -3.1488    Y=              2.4264    Z=              0.0000  Tot=              3.9752
 Quadrupole moment (field-independent basis, Debye-Ang):
   XX=            -10.8703   YY=             -9.1787   ZZ=            -14.7132
   XY=              2.1432   XZ=              0.0000   YZ=              0.0000

 15\MP4DQ=-152.6437941\MP4SDQ=-152.646884\CCSD=-152.6462784\CCSD(T)=-15
 Normal termination of Gaussian 16 at Sun Aug 28 07:12:43 2022.
