 Gaussian 16, Revision A.03,
 Gaussian 16:  ES64L-G16RevA.03 25-Dec-2016

 ------------------
 #p CCSD(T)/cc-pVTZ
 ------------------

 ------------
 H2O_H2O_2858
 ------------
 Symbolic Z-matrix:
 Charge =  0 Multiplicity = 1

                         Standard orientation:
 ---------------------------------------------------------------------
 Center     Atomic      Atomic             Coordinates (Angstroms)
 Number     Number       Type             X           Y           Z
 ---------------------------------------------------------------------
      1          8           0        0.070202    2.244016    0.000000
      2          1           0        0.069308    1.261415    0.000000
      3          1           0       -0.859001    2.563529   -0.000000
      4          8           0        0.070202   -2.073778    0.000000
      5          1           0        0.560728   -2.925182    0.000000
      6          1           0       -0.894267   -2.261673   -0.000000
 ---------------------------------------------------------------------

 SCF Done:  E(RHF) =  -152.109571639     A.U. after   10 cycles
 E2 =    -0.5260257681D+00 EUMP2 =    -0.15263559740707D+03
 CCSD(T)
 CCSD(T)= -0.15266274081D+03

 The electronic state is 1-A'.
 Alpha  occ. eigenvalues --  -20.56728 -20.54532  -1.34007  -1.31849  -0.71417
 Alpha  occ. eigenvalues --   -0.69234  -0.57535  -0.55324  -0.51131  -0.48979
 Alpha virt. eigenvalues --    0.12221   0.15944   0.19432   0.22974   0.53523
 Alpha virt. eigenvalues --    0.55359   0.56250   0.58634   0.68556   0.69380
 Alpha virt. eigenvalues --    0.77739   0.78999   0.79864   0.80063   0.83128

 Mulliken charges:
               1
     1  O   -0.517082
     2  H    0.264124
     3  H    0.249650
     4  O   -0.511373
     5  H    0.260009
     6  H    0.254672
 Sum of Mulliken charges =  -0.00000

 Dipole moment (field-independent basis, Debye):
    X=             -2.3903    Y=             -3.0773    Z=             -0.0000  Tot=              3.8966
 Quadrupole moment (field-independent basis, Debye-Ang):
   XX=             -9.6868   YY=             -7.6323   ZZ=            -14.7185
   XY=             -3.6752   XZ=             -0.0000   YZ=             -0.0000

 CCSD(T)=-152.6627408\RMSD=6.927e-09\PG=CS [SG(H4O2)]\\@
 Normal termination of Gaussian 16 at Fri Aug 26 17:48:50 2022.
