 Gaussian 16, Revision A.03,
 Gaussian 16:  ES64L-G16RevA.03 25-Dec-2016

 ------------------
 #p CCSD(T)/cc-pVTZ
 ------------------

 -----------
 H2O_H2O_834
 -----------
 Symbolic Z-matrix:
 Charge =  0 Multiplicity = 1

                         Standard orientation:
 ---------------------------------------------------------------------
 Center     Atomic      Atomic             Coordinates (Angstroms)
 Number     Number       Type             X           Y           Z
 ---------------------------------------------------------------------
      1          8           0        0.066819    1.437802   -0.000000
      2          1           0        0.065174    0.455202   -0.000000
      3          1           0       -0.862140    1.758024   -0.000000
      4          8           0        0.066819   -1.264788    0.000000
      5          1           0        0.611355   -2.082704    0.000000
      6          1           0       -0.883488   -1.514634   -0.000000
 ---------------------------------------------------------------------

 SCF Done:  E(RHF) =  -152.110024542     A.U. after   10 cycles
 E2 =    -0.5297065927D+00 EUMP2 =    -0.15263973113459D+03
 CCSD(T)
 CCSD(T)= -0.15266647953D+03

 The electronic state is 1-A'.
 Alpha  occ. eigenvalues --  -20.59216 -20.51235  -1.36938  -1.29059  -0.74270
 Alpha  occ. eigenvalues --   -0.68553  -0.59627  -0.53883  -0.51909  -0.46120
 Alpha virt. eigenvalues --    0.11548   0.17287   0.19652   0.32446   0.48086
 Alpha virt. eigenvalues --    0.54266   0.59518   0.60129   0.70016   0.72412
 Alpha virt. eigenvalues --    0.73406   0.77254   0.81379   0.83016   0.84317

 Mulliken charges:
               1
     1  O   -0.572059
     2  H    0.302285
     3  H    0.231416
     4  O   -0.463246
     5  H    0.252074
     6  H    0.249530
 Sum of Mulliken charges =  -0.00000

 Dipole moment (field-independent basis, Debye):
    X=             -2.1816    Y=             -3.7708    Z=              0.0000  Tot=              4.3564
 Quadrupole moment (field-independent basis, Debye-Ang):
   XX=             -9.5815   YY=             -8.9548   ZZ=            -14.7066
   XY=             -3.0548   XZ=              0.0000   YZ=             -0.0000

 Normal termination of Gaussian 16 at Fri Aug 26 20:47:57 2022.
