 Gaussian 16, Revision A.03,
 Gaussian 16:  ES64L-G16RevA.03 25-Dec-2016

 ------------------
 #p CCSD(T)/cc-pVTZ
 ------------------

 ------------
 H2O_H2O_2311
 ------------
 Symbolic Z-matrix:
 Charge =  0 Multiplicity = 1

                         Standard orientation:
 ---------------------------------------------------------------------
 Center     Atomic      Atomic             Coordinates (Angstroms)
 Number     Number       Type             X           Y           Z
 ---------------------------------------------------------------------
      1          8           0        0.059660    2.028537   -0.000000
      2          1           0        0.058202    1.045936   -0.000000
      3          1           0       -0.869360    2.348581   -0.000000
      4          8           0        0.059660   -1.851117    0.000000
      5          1           0        0.706437   -2.590836    0.000000
      6          1           0       -0.849835   -2.223039    0.000000
 ---------------------------------------------------------------------

 SCF Done:  E(RHF) =  -152.111096505     A.U. after   10 cycles
 E2 =    -0.5262269086D+00 EUMP2 =    -0.15263732341394D+03
 CCSD(T)
 CCSD(T)= -0.15266442002D+03

 The electronic state is 1-A'.
 Alpha  occ. eigenvalues --  -20.57089 -20.54049  -1.34348  -1.31385  -0.71746
 Alpha  occ. eigenvalues --   -0.68779  -0.57956  -0.54859  -0.51482  -0.48527
 Alpha virt. eigenvalues --    0.12206   0.16551   0.19315   0.24768   0.52396
 Alpha virt. eigenvalues --    0.55623   0.56129   0.58917   0.68938   0.71465
 Alpha virt. eigenvalues --    0.77046   0.78422   0.80345   0.82304   0.83585

 Mulliken charges:
               1
     1  O   -0.523414
     2  H    0.267295
     3  H    0.248547
     4  O   -0.508663
     5  H    0.260605
     6  H    0.255630
 Sum of Mulliken charges =  -0.00000

 Dipole moment (field-independent basis, Debye):
    X=             -2.0231    Y=             -3.2803    Z=              0.0000  Tot=              3.8540
 Quadrupole moment (field-independent basis, Debye-Ang):
   XX=             -9.3694   YY=             -7.7194   ZZ=            -14.7238
   XY=             -3.8853   XZ=              0.0000   YZ=             -0.0000

 Normal termination of Gaussian 16 at Sun Aug 28 06:13:33 2022.
