 Gaussian 16, Revision A.03,
 Gaussian 16:  ES64L-G16RevA.03 25-Dec-2016

 ------------------
 #p CCSD(T)/cc-pVTZ
 ------------------

 -----------
 H2O_H2O_821
 -----------
 Symbolic Z-matrix:
 Charge =  0 Multiplicity = 1

                         Standard orientation:
 ---------------------------------------------------------------------
 Center     Atomic      Atomic             Coordinates (Angstroms)
 Number     Number       Type             X           Y           Z
 ---------------------------------------------------------------------
      1          8           0       -0.023365    1.426368    0.000000
      2          1           0       -0.018952    0.443776    0.000000
      3          1           0        0.904687    1.749205    0.000000
      4          8           0       -0.023365   -1.256067    0.000000
      5          1           0       -0.986216   -1.452088    0.000000
      6          1           0        0.474323   -2.103304    0.000000
 ---------------------------------------------------------------------

 SCF Done:  E(RHF) =  -152.110385884     A.U. after   10 cycles
 E2 =    -0.5295396542D+00 EUMP2 =    -0.15263992553830D+03
 CCSD(T)
 CCSD(T)= -0.15266665155D+03

 The electronic state is 1-A'.
 Alpha  occ. eigenvalues --  -20.59194 -20.50984  -1.36974  -1.28866  -0.74425
 Alpha  occ. eigenvalues --   -0.68301  -0.59888  -0.53908  -0.51603  -0.45949
 Alpha virt. eigenvalues --    0.11805   0.18362   0.18920   0.32974   0.48250
 Alpha virt. eigenvalues --    0.54352   0.57037   0.64968   0.68218   0.72389
 Alpha virt. eigenvalues --    0.73369   0.77081   0.81085   0.83255   0.84199

 Mulliken charges:
               1
     1  O   -0.586669
     2  H    0.298552
     3  H    0.244588
     4  O   -0.462360
     5  H    0.262154
     6  H    0.243735
 Sum of Mulliken charges =  -0.00000

 Dipole moment (field-independent basis, Debye):
    X=              0.7736    Y=             -3.7450    Z=              0.0000  Tot=              3.8241
 Quadrupole moment (field-independent basis, Debye-Ang):
   XX=             -9.3414   YY=             -8.9973   ZZ=            -14.7073
   XY=              3.5567   XZ=              0.0000   YZ=              0.0000

 Normal termination of Gaussian 16 at Fri Aug 26 20:43:21 2022.
