 Gaussian 16, Revision A.03,
 Gaussian 16:  ES64L-G16RevA.03 25-Dec-2016

 ------------------
 #p CCSD(T)/cc-pVTZ
 ------------------

 ------------
 H2O_H2O_3785
 ------------
 Symbolic Z-matrix:
 Charge =  0 Multiplicity = 1

                         Standard orientation:
 ---------------------------------------------------------------------
 Center     Atomic      Atomic             Coordinates (Angstroms)
 Number     Number       Type             X           Y           Z
 ---------------------------------------------------------------------
      1          8           0        0.063226    2.615848   -0.000000
      2          1           0        0.062228    1.633247   -0.000000
      3          1           0       -0.865943    2.935458   -0.000000
      4          8           0        0.063226   -2.440325    0.000000
      5          1           0        0.660604   -3.220482    0.000000
      6          1           0       -0.868501   -2.752403    0.000000
 ---------------------------------------------------------------------

 SCF Done:  E(RHF) =  -152.108704952     A.U. after   10 cycles
 E2 =    -0.5258528486D+00 EUMP2 =    -0.15263455780021D+03
 CCSD(T)
 CCSD(T)= -0.15266174056D+03

 The electronic state is 1-A'.
 Alpha  occ. eigenvalues --  -20.56356 -20.54811  -1.33651  -1.32122  -0.71058
 Alpha  occ. eigenvalues --   -0.69516  -0.57153  -0.55594  -0.50772  -0.49246
 Alpha virt. eigenvalues --    0.12854   0.15288   0.19543   0.21500   0.53415
 Alpha virt. eigenvalues --    0.54992   0.56516   0.57910   0.66739   0.69184
 Alpha virt. eigenvalues --    0.78128   0.79003   0.79602   0.80003   0.82885

 Mulliken charges:
               1
     1  O   -0.514407
     2  H    0.261736
     3  H    0.251969
     4  O   -0.514657
     5  H    0.259585
     6  H    0.255774
 Sum of Mulliken charges =   0.00000

 Dipole moment (field-independent basis, Debye):
    X=             -2.1631    Y=             -3.1078    Z=              0.0000  Tot=              3.7865
 Quadrupole moment (field-independent basis, Debye-Ang):
   XX=             -9.4551   YY=             -6.9138   ZZ=            -14.7158
   XY=             -4.3723   XZ=              0.0000   YZ=             -0.0000

 Normal termination of Gaussian 16 at Fri Aug 26 23:39:37 2022.
