 Gaussian 16, Revision A.03,
 Gaussian 16:  ES64L-G16RevA.03 25-Dec-2016

 ------------------
 #p CCSD(T)/cc-pVTZ
 ------------------

 ------------
 H2O_H2O_4361
 ------------
 Symbolic Z-matrix:
 Charge =  0 Multiplicity = 1

                         Standard orientation:
 ---------------------------------------------------------------------
 Center     Atomic      Atomic             Coordinates (Angstroms)
 Number     Number       Type             X           Y           Z
 ---------------------------------------------------------------------
      1          8           0        0.059621    2.846261    0.000000
      2          1           0        0.058595    1.863660    0.000000
      3          1           0       -0.869539    3.165897    0.000000
      4          8           0        0.059621   -2.668789   -0.000000
      5          1           0        0.706724   -3.408223   -0.000000
      6          1           0       -0.849711   -3.041110   -0.000000
 ---------------------------------------------------------------------

 SCF Done:  E(RHF) =  -152.108385229     A.U. after   10 cycles
 E2 =    -0.5258210614D+00 EUMP2 =    -0.15263420629071D+03
 CCSD(T)
 CCSD(T)= -0.15266140292D+03

 The electronic state is 1-A'.
 Alpha  occ. eigenvalues --  -20.56216 -20.54941  -1.33516  -1.32248  -0.70922
 Alpha  occ. eigenvalues --   -0.69647  -0.57008  -0.55717  -0.50634  -0.49370
 Alpha virt. eigenvalues --    0.13256   0.14972   0.19643   0.21106   0.53582
 Alpha virt. eigenvalues --    0.54873   0.56628   0.57798   0.66776   0.68834
 Alpha virt. eigenvalues --    0.78255   0.79486   0.79503   0.80169   0.82718

 Mulliken charges:
               1
     1  O   -0.513491
     2  H    0.260579
     3  H    0.252728
     4  O   -0.514334
     5  H    0.258693
     6  H    0.255825
 Sum of Mulliken charges =  -0.00000

 Dipole moment (field-independent basis, Debye):
    X=             -2.0437    Y=             -3.1196    Z=             -0.0000  Tot=              3.7294
 Quadrupole moment (field-independent basis, Debye-Ang):
   XX=             -9.3618   YY=             -6.4726   ZZ=            -14.7147
   XY=             -4.8326   XZ=             -0.0000   YZ=              0.0000

 Normal termination of Gaussian 16 at Sun Aug 28 02:15:25 2022.
