 Gaussian 16, Revision A.03,
 Gaussian 16:  ES64L-G16RevA.03 25-Dec-2016

 ------------------
 #p CCSD(T)/cc-pVTZ
 ------------------

 ------------
 H2O_H2O_3178
 ------------
 Symbolic Z-matrix:
 Charge =  0 Multiplicity = 1

                         Standard orientation:
 ---------------------------------------------------------------------
 Center     Atomic      Atomic             Coordinates (Angstroms)
 Number     Number       Type             X           Y           Z
 ---------------------------------------------------------------------
      1          8           0        0.085601   -2.362438    0.000000
      2          1           0        0.085328   -1.379836    0.000000
      3          1           0       -0.843804   -2.681362    0.000000
      4          8           0        0.085601    2.212840    0.000000
      5          1           0        0.277030    3.176615    0.000000
      6          1           0       -0.888164    2.081362    0.000000
 ---------------------------------------------------------------------

 SCF Done:  E(RHF) =  -152.108461987     A.U. after   10 cycles
 E2 =    -0.5259965389D+00 EUMP2 =    -0.15263445852640D+03
 CCSD(T)
 CCSD(T)= -0.15266163597D+03

 The electronic state is 1-A'.
 Alpha  occ. eigenvalues --  -20.56574 -20.54959  -1.33867  -1.32265  -0.71289
 Alpha  occ. eigenvalues --   -0.69649  -0.57350  -0.55725  -0.50980  -0.49383
 Alpha virt. eigenvalues --    0.11929   0.15548   0.19328   0.22634   0.53878
 Alpha virt. eigenvalues --    0.54889   0.56421   0.58196   0.67540   0.69110
 Alpha virt. eigenvalues --    0.77922   0.78569   0.79478   0.80973   0.82699

 Mulliken charges:
               1
     1  O   -0.512263
     2  H    0.260906
     3  H    0.249897
     4  O   -0.510521
     5  H    0.259815
     6  H    0.252167
 Sum of Mulliken charges =   0.00000

 Dipole moment (field-independent basis, Debye):
    X=             -2.9189    Y=              2.6759    Z=              0.0000  Tot=              3.9599
 Quadrupole moment (field-independent basis, Debye-Ang):
   XX=            -10.4065   YY=             -8.3876   ZZ=            -14.7146
   XY=              2.8019   XZ=              0.0000   YZ=              0.0000

 Normal termination of Gaussian 16 at Fri Aug 26 20:14:24 2022.
