 Gaussian 16, Revision A.03,
 Gaussian 16:  ES64L-G16RevA.03 25-Dec-2016

 ------------------
 #p CCSD(T)/cc-pVTZ
 ------------------

 ------------
 H2O_H2O_4095
 ------------
 Symbolic Z-matrix:
 Charge =  0 Multiplicity = 1

                         Standard orientation:
 ---------------------------------------------------------------------
 Center     Atomic      Atomic             Coordinates (Angstroms)
 Number     Number       Type             X           Y           Z
 ---------------------------------------------------------------------
      1          8           0        0.026625    2.734278   -0.000000
      2          1           0        0.024500    1.751679   -0.000000
      3          1           0       -0.902177    3.054954   -0.000000
      4          8           0        0.026625   -2.561033    0.000000
      5          1           0        0.975194   -2.817401    0.000000
      6          1           0       -0.523516   -3.375190    0.000000
 ---------------------------------------------------------------------

 SCF Done:  E(RHF) =  -152.108723725     A.U. after   10 cycles
 E2 =    -0.5258064216D+00 EUMP2 =    -0.15263453014613D+03
 CCSD(T)
 CCSD(T)= -0.15266171788D+03

 The electronic state is 1-A'.
 Alpha  occ. eigenvalues --  -20.56263 -20.54892  -1.33563  -1.32202  -0.70966
 Alpha  occ. eigenvalues --   -0.69606  -0.57067  -0.55680  -0.50684  -0.49328
 Alpha virt. eigenvalues --    0.13078   0.15141   0.19534   0.21377   0.53432
 Alpha virt. eigenvalues --    0.55000   0.56621   0.57830   0.66685   0.68989
 Alpha virt. eigenvalues --    0.78207   0.79207   0.79522   0.80281   0.82803

 Mulliken charges:
               1
     1  O   -0.515417
     2  H    0.260912
     3  H    0.254156
     4  O   -0.515796
     5  H    0.258122
     6  H    0.258023
 Sum of Mulliken charges =  -0.00000

 Dipole moment (field-independent basis, Debye):
    X=             -0.9130    Y=             -3.0532    Z=              0.0000  Tot=              3.1868
 Quadrupole moment (field-independent basis, Debye-Ang):
   XX=             -9.2888   YY=             -6.8462   ZZ=            -14.7159
   XY=             -6.5255   XZ=              0.0000   YZ=             -0.0000

 Normal termination of Gaussian 16 at Sat Aug 27 23:27:30 2022.
