 Gaussian 16, Revision A.03,
 Gaussian 16:  ES64L-G16RevA.03 25-Dec-2016

 ------------------
 #p CCSD(T)/cc-pVTZ
 ------------------

 ------------
 H2O_H2O_1379
 ------------
 Symbolic Z-matrix:
 Charge =  0 Multiplicity = 1

                         Standard orientation:
 ---------------------------------------------------------------------
 Center     Atomic      Atomic             Coordinates (Angstroms)
 Number     Number       Type             X           Y           Z
 ---------------------------------------------------------------------
      1          8           0        0.082817   -1.647117    0.000000
      2          1           0        0.082268   -0.664516    0.000000
      3          1           0       -0.846498   -1.966302    0.000000
      4          8           0        0.082817    1.492628    0.000000
      5          1           0        0.336603    2.441890    0.000000
      6          1           0       -0.897444    1.424844    0.000000
 ---------------------------------------------------------------------

 SCF Done:  E(RHF) =  -152.110973202     A.U. after   10 cycles
 E2 =    -0.5277371522D+00 EUMP2 =    -0.15263871035384D+03
 CCSD(T)
 CCSD(T)= -0.15266573623D+03

 The electronic state is 1-A'.
 Alpha  occ. eigenvalues --  -20.58073 -20.53601  -1.35440  -1.31019  -0.73040
 Alpha  occ. eigenvalues --   -0.68469  -0.59034  -0.54334  -0.52508  -0.48129
 Alpha virt. eigenvalues --    0.11655   0.16664   0.19918   0.28883   0.49349
 Alpha virt. eigenvalues --    0.54830   0.57976   0.58240   0.69053   0.73600
 Alpha virt. eigenvalues --    0.74701   0.77164   0.81175   0.82206   0.83767

 Mulliken charges:
               1
     1  O   -0.531819
     2  H    0.277870
     3  H    0.238862
     4  O   -0.481515
     5  H    0.248649
     6  H    0.247953
 Sum of Mulliken charges =  -0.00000

 Dipole moment (field-independent basis, Debye):
    X=             -2.7604    Y=              3.0606    Z=              0.0000  Tot=              4.1215
 Quadrupole moment (field-independent basis, Debye-Ang):
   XX=            -10.2901   YY=             -8.7046   ZZ=            -14.7186
   XY=              2.7325   XZ=              0.0000   YZ=              0.0000

 CCSD(T)=-152.6657362\RMSD=7.247e-09\PG=CS [SG(H4O2)]\\@
 Normal termination of Gaussian 16 at Sat Aug 27 00:13:35 2022.
