 Gaussian 16, Revision A.03,
 Gaussian 16:  ES64L-G16RevA.03 25-Dec-2016

 ------------------
 #p CCSD(T)/cc-pVTZ
 ------------------

 -----------
 H2O_H2O_130
 -----------
 Symbolic Z-matrix:
 Charge =  0 Multiplicity = 1

                         Standard orientation:
 ---------------------------------------------------------------------
 Center     Atomic      Atomic             Coordinates (Angstroms)
 Number     Number       Type             X           Y           Z
 ---------------------------------------------------------------------
      1          8           0        0.079896   -1.150959    0.000000
      2          1           0        0.078859   -0.168358    0.000000
      3          1           0       -0.849260   -1.470606    0.000000
      4          8           0        0.079896    0.991986    0.000000
      5          1           0        0.394760    1.922775    0.000000
      6          1           0       -0.902698    0.987970    0.000000
 ---------------------------------------------------------------------

 SCF Done:  E(RHF) =  -152.049830337     A.U. after   11 cycles
 E2 =    -0.5370014393D+00 EUMP2 =    -0.15258683177625D+03
 CCSD(T)
 CCSD(T)= -0.15261253263D+03

 The electronic state is 1-A'.
 Alpha  occ. eigenvalues --  -20.61586 -20.46612  -1.42941  -1.26080  -0.81492
 Alpha  occ. eigenvalues --   -0.72629  -0.57821  -0.56088  -0.47135  -0.42797
 Alpha virt. eigenvalues --    0.10572   0.16014   0.21421   0.32110   0.49354
 Alpha virt. eigenvalues --    0.51589   0.59994   0.65010   0.71180   0.72299
 Alpha virt. eigenvalues --    0.76472   0.78629   0.80874   0.85572   0.86165

 Mulliken charges:
               1
     1  O   -0.623080
     2  H    0.275518
     3  H    0.195010
     4  O   -0.315833
     5  H    0.230050
     6  H    0.238335
 Sum of Mulliken charges =   0.00000

 Dipole moment (field-independent basis, Debye):
    X=             -2.4594    Y=              4.4128    Z=              0.0000  Tot=              5.0519
 Quadrupole moment (field-independent basis, Debye-Ang):
   XX=            -10.0675   YY=             -9.9033   ZZ=            -14.5506
   XY=              2.4519   XZ=              0.0000   YZ=              0.0000

 Normal termination of Gaussian 16 at Fri Aug 26 16:04:43 2022.
