 Gaussian 16, Revision A.03,
 Gaussian 16:  ES64L-G16RevA.03 25-Dec-2016

 ------------------
 #p CCSD(T)/cc-pVTZ
 ------------------

 ------------
 H2O_H2O_1201
 ------------
 Symbolic Z-matrix:
 Charge =  0 Multiplicity = 1

                         Standard orientation:
 ---------------------------------------------------------------------
 Center     Atomic      Atomic             Coordinates (Angstroms)
 Number     Number       Type             X           Y           Z
 ---------------------------------------------------------------------
      1          8           0        0.090688   -1.568737    0.000000
      2          1           0        0.090559   -0.586135    0.000000
      3          1           0       -0.838764   -1.887524    0.000000
      4          8           0        0.090688    1.430036    0.000000
      5          1           0        0.154826    2.410542    0.000000
      6          1           0       -0.857623    1.172719    0.000000
 ---------------------------------------------------------------------

 SCF Done:  E(RHF) =  -152.108505000     A.U. after   10 cycles
 E2 =    -0.5285861667D+00 EUMP2 =    -0.15263709116640D+03
 CCSD(T)
 CCSD(T)= -0.15266411911D+03

 The electronic state is 1-A'.
 Alpha  occ. eigenvalues --  -20.58323 -20.53828  -1.35811  -1.31267  -0.73776
 Alpha  occ. eigenvalues --   -0.68506  -0.59218  -0.54540  -0.52801  -0.48347
 Alpha virt. eigenvalues --    0.11498   0.16426   0.20486   0.29532   0.48819
 Alpha virt. eigenvalues --    0.53730   0.58001   0.59390   0.68124   0.72491
 Alpha virt. eigenvalues --    0.74213   0.77951   0.80867   0.81403   0.83265

 Mulliken charges:
               1
     1  O   -0.529347
     2  H    0.279072
     3  H    0.235077
     4  O   -0.462927
     5  H    0.240599
     6  H    0.237527
 Sum of Mulliken charges =   0.00000

 Dipole moment (field-independent basis, Debye):
    X=             -3.0051    Y=              2.8166    Z=              0.0000  Tot=              4.1187
 Quadrupole moment (field-independent basis, Debye-Ang):
   XX=            -10.7572   YY=             -9.0590   ZZ=            -14.7038
   XY=              2.2629   XZ=              0.0000   YZ=              0.0000

 Normal termination of Gaussian 16 at Fri Aug 26 23:05:31 2022.
