 Gaussian 16, Revision A.03,
 Gaussian 16:  ES64L-G16RevA.03 25-Dec-2016

 ------------------
 #p CCSD(T)/cc-pVTZ
 ------------------

 ------------
 H2O_H2O_3367
 ------------
 Symbolic Z-matrix:
 Charge =  0 Multiplicity = 1

                         Standard orientation:
 ---------------------------------------------------------------------
 Center     Atomic      Atomic             Coordinates (Angstroms)
 Number     Number       Type             X           Y           Z
 ---------------------------------------------------------------------
      1          8           0        0.037439    2.448201   -0.000000
      2          1           0        0.035441    1.465602   -0.000000
      3          1           0       -0.891405    2.768756   -0.000000
      4          8           0        0.037439   -2.269231    0.000000
      5          1           0        0.917822   -2.705615    0.000000
      6          1           0       -0.660876   -2.960508    0.000000
 ---------------------------------------------------------------------

 SCF Done:  E(RHF) =  -152.109430704     A.U. after   10 cycles
 E2 =    -0.5258660769D+00 EUMP2 =    -0.15263529678082D+03
 CCSD(T)
 CCSD(T)= -0.15266245671D+03

 The electronic state is 1-A'.
 Alpha  occ. eigenvalues --  -20.56487 -20.54603  -1.33775  -1.31920  -0.71176
 Alpha  occ. eigenvalues --   -0.69319  -0.57304  -0.55406  -0.50901  -0.49052
 Alpha virt. eigenvalues --    0.12686   0.15650   0.19511   0.22041   0.53354
 Alpha virt. eigenvalues --    0.55231   0.56479   0.58119   0.67271   0.69350
 Alpha virt. eigenvalues --    0.78004   0.78938   0.79617   0.79781   0.83096

 Mulliken charges:
               1
     1  O   -0.517797
     2  H    0.263185
     3  H    0.252957
     4  O   -0.515738
     5  H    0.259545
     6  H    0.257848
 Sum of Mulliken charges =  -0.00000

 Dipole moment (field-independent basis, Debye):
    X=             -1.2793    Y=             -3.1939    Z=              0.0000  Tot=              3.4406
 Quadrupole moment (field-independent basis, Debye-Ang):
   XX=             -9.1590   YY=             -7.0032   ZZ=            -14.7184
   XY=             -5.3596   XZ=              0.0000   YZ=             -0.0000

 Normal termination of Gaussian 16 at Fri Aug 26 21:18:37 2022.
