 Gaussian 16, Revision A.03,
 Gaussian 16:  ES64L-G16RevA.03 25-Dec-2016

 ------------------
 #p CCSD(T)/cc-pVTZ
 ------------------

 ------------
 H2O_H2O_3733
 ------------
 Symbolic Z-matrix:
 Charge =  0 Multiplicity = 1

                         Standard orientation:
 ---------------------------------------------------------------------
 Center     Atomic      Atomic             Coordinates (Angstroms)
 Number     Number       Type             X           Y           Z
 ---------------------------------------------------------------------
      1          8           0        0.070191    2.593043    0.000000
      2          1           0        0.069421    1.610441    0.000000
      3          1           0       -0.859052    2.912437    0.000000
      4          8           0        0.070191   -2.422786    0.000000
      5          1           0        0.560825   -3.274128    0.000000
      6          1           0       -0.894255   -2.610804    0.000000
 ---------------------------------------------------------------------

 SCF Done:  E(RHF) =  -152.108599235     A.U. after   10 cycles
 E2 =    -0.5258690942D+00 EUMP2 =    -0.15263446832940D+03
 CCSD(T)
 CCSD(T)= -0.15266165259D+03

 The electronic state is 1-A'.
 Alpha  occ. eigenvalues --  -20.56374 -20.54856  -1.33669  -1.32166  -0.71078
 Alpha  occ. eigenvalues --   -0.69559  -0.57165  -0.55635  -0.50788  -0.49288
 Alpha virt. eigenvalues --    0.12722   0.15291   0.19463   0.21601   0.53339
 Alpha virt. eigenvalues --    0.55034   0.56490   0.57950   0.66767   0.69167
 Alpha virt. eigenvalues --    0.78113   0.78863   0.79562   0.80280   0.82835

 Mulliken charges:
               1
     1  O   -0.513720
     2  H    0.261383
     3  H    0.251605
     4  O   -0.513996
     5  H    0.259667
     6  H    0.255061
 Sum of Mulliken charges =  -0.00000

 Dipole moment (field-independent basis, Debye):
    X=             -2.4008    Y=             -3.0165    Z=             -0.0000  Tot=              3.8553
 Quadrupole moment (field-independent basis, Debye-Ang):
   XX=             -9.6813   YY=             -7.1985   ZZ=            -14.7154
   XY=             -3.9526   XZ=             -0.0000   YZ=             -0.0000

 Normal termination of Gaussian 16 at Fri Aug 26 23:22:19 2022.
