 Gaussian 16, Revision A.03,
 Gaussian 16:  ES64L-G16RevA.03 25-Dec-2016

 ------------------
 #p CCSD(T)/cc-pVTZ
 ------------------

 ------------
 H2O_H2O_1920
 ------------
 Symbolic Z-matrix:
 Charge =  0 Multiplicity = 1

                         Standard orientation:
 ---------------------------------------------------------------------
 Center     Atomic      Atomic             Coordinates (Angstroms)
 Number     Number       Type             X           Y           Z
 ---------------------------------------------------------------------
      1          8           0        0.026716    1.866695    0.000000
      2          1           0        0.023556    0.884098    0.000000
      3          1           0       -0.901747    2.188349    0.000000
      4          8           0        0.026716   -1.693506    0.000000
      5          1           0        0.975014   -1.950874    0.000000
      6          1           0       -0.524282   -2.507082    0.000000
 ---------------------------------------------------------------------

 SCF Done:  E(RHF) =  -152.112577046     A.U. after   10 cycles
 E2 =    -0.5264689813D+00 EUMP2 =    -0.15263904602750D+03
 CCSD(T)
 CCSD(T)= -0.15266610269D+03

 The electronic state is 1-A'.
 Alpha  occ. eigenvalues --  -20.57411 -20.53680  -1.34674  -1.31048  -0.72070
 Alpha  occ. eigenvalues --   -0.68498  -0.58390  -0.54498  -0.51811  -0.48205
 Alpha virt. eigenvalues --    0.12228   0.17112   0.19139   0.26674   0.52042
 Alpha virt. eigenvalues --    0.54579   0.56176   0.59108   0.69024   0.72747
 Alpha virt. eigenvalues --    0.75937   0.77878   0.80764   0.83382   0.84326

 Mulliken charges:
               1
     1  O   -0.532716
     2  H    0.269195
     3  H    0.251797
     4  O   -0.508914
     5  H    0.262167
     6  H    0.258470
 Sum of Mulliken charges =  -0.00000

 Dipole moment (field-independent basis, Debye):
    X=             -0.9062    Y=             -3.2752    Z=             -0.0000  Tot=              3.3983
 Quadrupole moment (field-independent basis, Debye-Ang):
   XX=             -9.2897   YY=             -8.0659   ZZ=            -14.7298
   XY=             -4.5352   XZ=              0.0000   YZ=             -0.0000

 Normal termination of Gaussian 16 at Sun Aug 28 02:48:19 2022.
