 Gaussian 16, Revision A.03,
 Gaussian 16:  ES64L-G16RevA.03 25-Dec-2016

 ------------------
 #p CCSD(T)/cc-pVTZ
 ------------------

 ------------
 H2O_H2O_1660
 ------------
 Symbolic Z-matrix:
 Charge =  0 Multiplicity = 1

                         Standard orientation:
 ---------------------------------------------------------------------
 Center     Atomic      Atomic             Coordinates (Angstroms)
 Number     Number       Type             X           Y           Z
 ---------------------------------------------------------------------
      1          8           0        0.063271    1.768201    0.000000
      2          1           0        0.061770    0.785601    0.000000
      3          1           0       -0.865735    2.088287    0.000000
      4          8           0        0.063271   -1.592743   -0.000000
      5          1           0        0.660249   -2.373207   -0.000000
      6          1           0       -0.868615   -1.904345   -0.000000
 ---------------------------------------------------------------------

 SCF Done:  E(RHF) =  -152.112764869     A.U. after   10 cycles
 E2 =    -0.5269168117D+00 EUMP2 =    -0.15263968168029D+03
 CCSD(T)
 CCSD(T)= -0.15266671406D+03

 The electronic state is 1-A'.
 Alpha  occ. eigenvalues --  -20.57736 -20.53381  -1.35008  -1.30777  -0.72397
 Alpha  occ. eigenvalues --   -0.68278  -0.58744  -0.54168  -0.52135  -0.47920
 Alpha virt. eigenvalues --    0.11993   0.17113   0.19243   0.27859   0.50172
 Alpha virt. eigenvalues --    0.55133   0.56397   0.58894   0.69345   0.72745
 Alpha virt. eigenvalues --    0.74962   0.77025   0.81121   0.83114   0.84356

 Mulliken charges:
               1
     1  O   -0.532772
     2  H    0.273672
     3  H    0.244451
     4  O   -0.503876
     5  H    0.262622
     6  H    0.255903
 Sum of Mulliken charges =  -0.00000

 Dipole moment (field-independent basis, Debye):
    X=             -2.1260    Y=             -3.3846    Z=             -0.0000  Tot=              3.9969
 Quadrupole moment (field-independent basis, Debye-Ang):
   XX=             -9.4714   YY=             -8.2011   ZZ=            -14.7309
   XY=             -3.4906   XZ=             -0.0000   YZ=             -0.0000

 Normal termination of Gaussian 16 at Sun Aug 28 00:24:27 2022.
