 Gaussian 16, Revision A.03,
 Gaussian 16:  ES64L-G16RevA.03 25-Dec-2016

 ------------------
 #p CCSD(T)/cc-pVTZ
 ------------------

 ------------
 H2O_H2O_1730
 ------------
 Symbolic Z-matrix:
 Charge =  0 Multiplicity = 1

                         Standard orientation:
 ---------------------------------------------------------------------
 Center     Atomic      Atomic             Coordinates (Angstroms)
 Number     Number       Type             X           Y           Z
 ---------------------------------------------------------------------
      1          8           0        0.079865   -1.789194    0.000000
      2          1           0        0.079215   -0.806593    0.000000
      3          1           0       -0.849417   -2.108475    0.000000
      4          8           0        0.079865    1.630158    0.000000
      5          1           0        0.395095    2.560822    0.000000
      6          1           0       -0.902730    1.626529    0.000000
 ---------------------------------------------------------------------

 SCF Done:  E(RHF) =  -152.111124031     A.U. after   10 cycles
 E2 =    -0.5269344104D+00 EUMP2 =    -0.15263805844129D+03
 CCSD(T)
 CCSD(T)= -0.15266512613D+03

 The electronic state is 1-A'.
 Alpha  occ. eigenvalues --  -20.57618 -20.53954  -1.34910  -1.31313  -0.72389
 Alpha  occ. eigenvalues --   -0.68707  -0.58531  -0.54715  -0.52016  -0.48440
 Alpha virt. eigenvalues --    0.11776   0.16616   0.19693   0.27032   0.50572
 Alpha virt. eigenvalues --    0.55397   0.56851   0.58136   0.69104   0.73954
 Alpha virt. eigenvalues --    0.75156   0.77816   0.80681   0.82963   0.83698

 Mulliken charges:
               1
     1  O   -0.525016
     2  H    0.270840
     3  H    0.243020
     4  O   -0.498302
     5  H    0.257942
     6  H    0.251517
 Sum of Mulliken charges =  -0.00000

 Dipole moment (field-independent basis, Debye):
    X=             -2.6842    Y=              3.0414    Z=              0.0000  Tot=              4.0565
 Quadrupole moment (field-independent basis, Debye-Ang):
   XX=            -10.1280   YY=             -8.4646   ZZ=            -14.7233
   XY=              2.9372   XZ=              0.0000   YZ=              0.0000

 Normal termination of Gaussian 16 at Sun Aug 28 01:00:50 2022.
