 Gaussian 16, Revision A.03,
 Gaussian 16:  ES64L-G16RevA.03 25-Dec-2016

 ------------------
 #p CCSD(T)/cc-pVTZ
 ------------------

 ------------
 H2O_H2O_4879
 ------------
 Symbolic Z-matrix:
 Charge =  0 Multiplicity = 1

                         Standard orientation:
 ---------------------------------------------------------------------
 Center     Atomic      Atomic             Coordinates (Angstroms)
 Number     Number       Type             X           Y           Z
 ---------------------------------------------------------------------
      1          8           0        0.082797    3.043210    0.000000
      2          1           0        0.082506    2.060608    0.000000
      3          1           0       -0.846602    3.362151    0.000000
      4          8           0        0.082797   -2.888677   -0.000000
      5          1           0        0.336833   -3.837872   -0.000000
      6          1           0       -0.897481   -2.821150   -0.000000
 ---------------------------------------------------------------------

 SCF Done:  E(RHF) =  -152.107835990     A.U. after   10 cycles
 E2 =    -0.5258460404D+00 EUMP2 =    -0.15263368202987D+03
 CCSD(T)
 CCSD(T)= -0.15266089304D+03

 The electronic state is 1-A'.
 Alpha  occ. eigenvalues --  -20.56140 -20.55222  -1.33442  -1.32525  -0.70853
 Alpha  occ. eigenvalues --   -0.69924  -0.56910  -0.55982  -0.50555  -0.49641
 Alpha virt. eigenvalues --    0.13307   0.14634   0.19390   0.21029   0.53535
 Alpha virt. eigenvalues --    0.54745   0.56646   0.57640   0.67072   0.68383
 Alpha virt. eigenvalues --    0.78331   0.79228   0.79710   0.80810   0.81833

 Mulliken charges:
               1
     1  O   -0.510766
     2  H    0.258148
     3  H    0.252589
     4  O   -0.511616
     5  H    0.257866
     6  H    0.253780
 Sum of Mulliken charges =  -0.00000

 Dipole moment (field-independent basis, Debye):
    X=             -2.8419    Y=             -2.7045    Z=             -0.0000  Tot=              3.9231
 Quadrupole moment (field-independent basis, Debye-Ang):
   XX=            -10.2433   YY=             -7.6900   ZZ=            -14.7127
   XY=             -3.2548   XZ=             -0.0000   YZ=              0.0000

 555\MP4DQ=-152.6428062\MP4SDQ=-152.6458576\CCSD=-152.6452719\CCSD(T)=-
 Normal termination of Gaussian 16 at Sun Aug 28 06:37:30 2022.
