 Gaussian 16, Revision A.03,
 Gaussian 16:  ES64L-G16RevA.03 25-Dec-2016

 ------------------
 #p CCSD(T)/cc-pVTZ
 ------------------

 ------------
 H2O_H2O_3155
 ------------
 Symbolic Z-matrix:
 Charge =  0 Multiplicity = 1

                         Standard orientation:
 ---------------------------------------------------------------------
 Center     Atomic      Atomic             Coordinates (Angstroms)
 Number     Number       Type             X           Y           Z
 ---------------------------------------------------------------------
      1          8           0        0.079852    2.357607    0.000000
      2          1           0        0.079364    1.375006    0.000000
      3          1           0       -0.849483    2.676735   -0.000000
      4          8           0        0.079852   -2.198545    0.000000
      5          1           0        0.395236   -3.129157    0.000000
      6          1           0       -0.902744   -2.195078   -0.000000
 ---------------------------------------------------------------------

 SCF Done:  E(RHF) =  -152.108780260     A.U. after   10 cycles
 E2 =    -0.5259799436D+00 EUMP2 =    -0.15263476020374D+03
 CCSD(T)
 CCSD(T)= -0.15266192907D+03

 The electronic state is 1-A'.
 Alpha  occ. eigenvalues --  -20.56584 -20.54820  -1.33873  -1.32130  -0.71291
 Alpha  occ. eigenvalues --   -0.69515  -0.57370  -0.55596  -0.50991  -0.49252
 Alpha virt. eigenvalues --    0.12119   0.15624   0.19385   0.22483   0.53741
 Alpha virt. eigenvalues --    0.55034   0.56381   0.58291   0.67611   0.69225
 Alpha virt. eigenvalues --    0.77912   0.78655   0.79601   0.80642   0.82836

 Mulliken charges:
               1
     1  O   -0.513695
     2  H    0.261876
     3  H    0.250025
     4  O   -0.511476
     5  H    0.259913
     6  H    0.253356
 Sum of Mulliken charges =  -0.00000

 Dipole moment (field-independent basis, Debye):
    X=             -2.7231    Y=             -2.8489    Z=             -0.0000  Tot=              3.9410
 Quadrupole moment (field-independent basis, Debye-Ang):
   XX=            -10.1020   YY=             -7.9600   ZZ=            -14.7158
   XY=             -3.2069   XZ=              0.0000   YZ=             -0.0000

 Normal termination of Gaussian 16 at Fri Aug 26 20:06:52 2022.
