 Gaussian 16, Revision A.03,
 Gaussian 16:  ES64L-G16RevA.03 25-Dec-2016

 ------------------
 #p CCSD(T)/cc-pVTZ
 ------------------

 ------------
 H2O_H2O_1260
 ------------
 Symbolic Z-matrix:
 Charge =  0 Multiplicity = 1

                         Standard orientation:
 ---------------------------------------------------------------------
 Center     Atomic      Atomic             Coordinates (Angstroms)
 Number     Number       Type             X           Y           Z
 ---------------------------------------------------------------------
      1          8           0        0.063285    1.608641    0.000000
      2          1           0        0.061626    0.626041    0.000000
      3          1           0       -0.865669    1.928875    0.000000
      4          8           0        0.063285   -1.433203    0.000000
      5          1           0        0.660139   -2.213762    0.000000
      6          1           0       -0.868651   -1.744655    0.000000
 ---------------------------------------------------------------------

 SCF Done:  E(RHF) =  -152.113335975     A.U. after   10 cycles
 E2 =    -0.5278324704D+00 EUMP2 =    -0.15264116844528D+03
 CCSD(T)
 CCSD(T)= -0.15266812072D+03

 The electronic state is 1-A'.
 Alpha  occ. eigenvalues --  -20.58328 -20.52595  -1.35689  -1.30108  -0.73045
 Alpha  occ. eigenvalues --   -0.68015  -0.59391  -0.53340  -0.52785  -0.47236
 Alpha virt. eigenvalues --    0.11846   0.17388   0.19264   0.30264   0.48846
 Alpha virt. eigenvalues --    0.54899   0.57107   0.59322   0.69777   0.72651
 Alpha virt. eigenvalues --    0.73397   0.76632   0.81902   0.82618   0.84652

 Mulliken charges:
               1
     1  O   -0.546991
     2  H    0.285754
     3  H    0.240227
     4  O   -0.495141
     5  H    0.260605
     6  H    0.255547
 Sum of Mulliken charges =  -0.00000

 Dipole moment (field-independent basis, Debye):
    X=             -2.1051    Y=             -3.5392    Z=             -0.0000  Tot=              4.1179
 Quadrupole moment (field-independent basis, Debye-Ang):
   XX=             -9.4738   YY=             -8.5212   ZZ=            -14.7298
   XY=             -3.3151   XZ=             -0.0000   YZ=             -0.0000

 Normal termination of Gaussian 16 at Fri Aug 26 23:27:11 2022.
