 Gaussian 16, Revision A.03,
 Gaussian 16:  ES64L-G16RevA.03 25-Dec-2016

 ------------------
 #p CCSD(T)/cc-pVTZ
 ------------------

 ------------
 H2O_H2O_4704
 ------------
 Symbolic Z-matrix:
 Charge =  0 Multiplicity = 1

                         Standard orientation:
 ---------------------------------------------------------------------
 Center     Atomic      Atomic             Coordinates (Angstroms)
 Number     Number       Type             X           Y           Z
 ---------------------------------------------------------------------
      1          8           0        0.082797    2.973406    0.000000
      2          1           0        0.082500    1.990804    0.000000
      3          1           0       -0.846599    3.292353    0.000000
      4          8           0        0.082797   -2.818874   -0.000000
      5          1           0        0.336827   -3.768070   -0.000000
      6          1           0       -0.897481   -2.751339   -0.000000
 ---------------------------------------------------------------------

 SCF Done:  E(RHF) =  -152.107871938     A.U. after   10 cycles
 E2 =    -0.5258482640D+00 EUMP2 =    -0.15263372020156D+03
 CCSD(T)
 CCSD(T)= -0.15266092993D+03

 The electronic state is 1-A'.
 Alpha  occ. eigenvalues --  -20.56167 -20.55200  -1.33469  -1.32503  -0.70880
 Alpha  occ. eigenvalues --   -0.69901  -0.56938  -0.55960  -0.50582  -0.49619
 Alpha virt. eigenvalues --    0.13200   0.14703   0.19336   0.21141   0.53459
 Alpha virt. eigenvalues --    0.54796   0.56620   0.57680   0.66989   0.68469
 Alpha virt. eigenvalues --    0.78306   0.79249   0.79643   0.80860   0.81941

 Mulliken charges:
               1
     1  O   -0.510880
     2  H    0.258394
     3  H    0.252436
     4  O   -0.511811
     5  H    0.258118
     6  H    0.253743
 Sum of Mulliken charges =  -0.00000

 Dipole moment (field-independent basis, Debye):
    X=             -2.8408    Y=             -2.7077    Z=             -0.0000  Tot=              3.9245
 Quadrupole moment (field-independent basis, Debye-Ang):
   XX=            -10.2437   YY=             -7.7405   ZZ=            -14.7128
   XY=             -3.2296   XZ=             -0.0000   YZ=             -0.0000

 Normal termination of Gaussian 16 at Sun Aug 28 05:13:15 2022.
