 Gaussian 16, Revision A.03,
 Gaussian 16:  ES64L-G16RevA.03 25-Dec-2016

 ------------------
 #p CCSD(T)/cc-pVTZ
 ------------------

 ------------
 H2O_H2O_3148
 ------------
 Symbolic Z-matrix:
 Charge =  0 Multiplicity = 1

                         Standard orientation:
 ---------------------------------------------------------------------
 Center     Atomic      Atomic             Coordinates (Angstroms)
 Number     Number       Type             X           Y           Z
 ---------------------------------------------------------------------
      1          8           0       -0.016626    2.349996    0.000000
      2          1           0       -0.013771    1.367398    0.000000
      3          1           0        0.911937    2.671361    0.000000
      4          8           0       -0.016626   -2.186605    0.000000
      5          1           0       -0.996934   -2.253719    0.000000
      6          1           0        0.364783   -3.092162    0.000000
 ---------------------------------------------------------------------

 SCF Done:  E(RHF) =  -152.109579185     A.U. after   10 cycles
 E2 =    -0.5258931444D+00 EUMP2 =    -0.15263547232931D+03
 CCSD(T)
 CCSD(T)= -0.15266262677D+03

 The electronic state is 1-A'.
 Alpha  occ. eigenvalues --  -20.56559 -20.54689  -1.33849  -1.32006  -0.71256
 Alpha  occ. eigenvalues --   -0.69413  -0.57380  -0.55495  -0.50975  -0.49141
 Alpha virt. eigenvalues --    0.12348   0.15784   0.19259   0.22787   0.53585
 Alpha virt. eigenvalues --    0.55509   0.56460   0.58160   0.67681   0.69333
 Alpha virt. eigenvalues --    0.77921   0.78703   0.79697   0.80576   0.83069

 Mulliken charges:
               1
     1  O   -0.519063
     2  H    0.262377
     3  H    0.254666
     4  O   -0.515425
     5  H    0.258471
     6  H    0.258974
 Sum of Mulliken charges =  -0.00000

 Dipole moment (field-independent basis, Debye):
    X=              0.5710    Y=             -2.9268    Z=              0.0000  Tot=              2.9820
 Quadrupole moment (field-independent basis, Debye-Ang):
   XX=             -9.5429   YY=             -7.7587   ZZ=            -14.7187
   XY=              6.1672   XZ=              0.0000   YZ=              0.0000

 CCSD(T)=-152.6626268\RMSD=6.898e-09\PG=CS [SG(H4O2)]\\@
 Normal termination of Gaussian 16 at Fri Aug 26 20:04:30 2022.
