 Gaussian 16, Revision A.03,
 Gaussian 16:  ES64L-G16RevA.03 25-Dec-2016

 ------------------
 #p CCSD(T)/cc-pVTZ
 ------------------

 ------------
 H2O_H2O_2874
 ------------
 Symbolic Z-matrix:
 Charge =  0 Multiplicity = 1

                         Standard orientation:
 ---------------------------------------------------------------------
 Center     Atomic      Atomic             Coordinates (Angstroms)
 Number     Number       Type             X           Y           Z
 ---------------------------------------------------------------------
      1          8           0       -0.013531    2.238061    0.000000
      2          1           0       -0.010408    1.255465    0.000000
      3          1           0        0.914945    2.559680    0.000000
      4          8           0       -0.013531   -2.078804    0.000000
      5          1           0       -0.996127   -2.081926    0.000000
      6          1           0        0.308087   -3.007279    0.000000
 ---------------------------------------------------------------------

 SCF Done:  E(RHF) =  -152.109910020     A.U. after   10 cycles
 E2 =    -0.5259530368D+00 EUMP2 =    -0.15263586305646D+03
 CCSD(T)
 CCSD(T)= -0.15266300501D+03

 The electronic state is 1-A'.
 Alpha  occ. eigenvalues --  -20.56682 -20.54627  -1.33969  -1.31947  -0.71380
 Alpha  occ. eigenvalues --   -0.69355  -0.57512  -0.55437  -0.51095  -0.49085
 Alpha virt. eigenvalues --    0.12200   0.15997   0.19229   0.23471   0.53938
 Alpha virt. eigenvalues --    0.55579   0.56322   0.58318   0.68390   0.69461
 Alpha virt. eigenvalues --    0.77763   0.78828   0.79759   0.80703   0.83222

 Mulliken charges:
               1
     1  O   -0.520853
     2  H    0.262984
     3  H    0.254945
     4  O   -0.514386
     5  H    0.258413
     6  H    0.258897
 Sum of Mulliken charges =  -0.00000

 Dipole moment (field-independent basis, Debye):
    X=              0.4666    Y=             -2.8731    Z=              0.0000  Tot=              2.9108
 Quadrupole moment (field-independent basis, Debye-Ang):
   XX=             -9.6483   YY=             -8.0289   ZZ=            -14.7196
   XY=              6.0475   XZ=              0.0000   YZ=              0.0000

 Normal termination of Gaussian 16 at Fri Aug 26 17:55:23 2022.
