 Gaussian 16, Revision A.03,
 Gaussian 16:  ES64L-G16RevA.03 25-Dec-2016

 ------------------
 #p CCSD(T)/cc-pVTZ
 ------------------

 ------------
 H2O_H2O_3754
 ------------
 Symbolic Z-matrix:
 Charge =  0 Multiplicity = 1

                         Standard orientation:
 ---------------------------------------------------------------------
 Center     Atomic      Atomic             Coordinates (Angstroms)
 Number     Number       Type             X           Y           Z
 ---------------------------------------------------------------------
      1          8           0        0.082801    2.594468    0.000000
      2          1           0        0.082459    1.611867    0.000000
      3          1           0       -0.846581    2.913458   -0.000000
      4          8           0        0.082801   -2.439944    0.000000
      5          1           0        0.336786   -3.389153    0.000000
      6          1           0       -0.897474   -2.372365   -0.000000
 ---------------------------------------------------------------------

 SCF Done:  E(RHF) =  -152.108210990     A.U. after   10 cycles
 E2 =    -0.5258957552D+00 EUMP2 =    -0.15263410674539D+03
 CCSD(T)
 CCSD(T)= -0.15266130063D+03

 The electronic state is 1-A'.
 Alpha  occ. eigenvalues --  -20.56373 -20.55037  -1.33671  -1.32343  -0.71086
 Alpha  occ. eigenvalues --   -0.69735  -0.57150  -0.55804  -0.50785  -0.49461
 Alpha virt. eigenvalues --    0.12432   0.15204   0.19222   0.21872   0.53223
 Alpha virt. eigenvalues --    0.55040   0.56475   0.57958   0.66767   0.69014
 Alpha virt. eigenvalues --    0.78116   0.78830   0.79400   0.80940   0.82632

 Mulliken charges:
               1
     1  O   -0.511739
     2  H    0.259949
     3  H    0.251237
     4  O   -0.512347
     5  H    0.259528
     6  H    0.253372
 Sum of Mulliken charges =  -0.00000

 Dipole moment (field-independent basis, Debye):
    X=             -2.8320    Y=             -2.7351    Z=             -0.0000  Tot=              3.9372
 Quadrupole moment (field-independent basis, Debye-Ang):
   XX=            -10.2478   YY=             -8.0047   ZZ=            -14.7139
   XY=             -3.0925   XZ=             -0.0000   YZ=             -0.0000

 Normal termination of Gaussian 16 at Fri Aug 26 23:29:19 2022.
