 Gaussian 16, Revision A.03,
 Gaussian 16:  ES64L-G16RevA.03 25-Dec-2016

 ------------------
 #p CCSD(T)/cc-pVTZ
 ------------------

 -----------
 H2O_H2O_313
 -----------
 Symbolic Z-matrix:
 Charge =  0 Multiplicity = 1

                         Standard orientation:
 ---------------------------------------------------------------------
 Center     Atomic      Atomic             Coordinates (Angstroms)
 Number     Number       Type             X           Y           Z
 ---------------------------------------------------------------------
      1          8           0        0.052435    1.232047    0.000000
      2          1           0        0.049414    0.249450    0.000000
      3          1           0       -0.876073    1.553570    0.000000
      4          8           0        0.052435   -1.052316    0.000000
      5          1           0        0.789199   -1.702458    0.000000
      6          1           0       -0.801508   -1.538411    0.000000
 ---------------------------------------------------------------------

 SCF Done:  E(RHF) =  -152.084351592     A.U. after   11 cycles
 E2 =    -0.5334548613D+00 EUMP2 =    -0.15261780645337D+03
 CCSD(T)
 CCSD(T)= -0.15264385105D+03

 The electronic state is 1-A'.
 Alpha  occ. eigenvalues --  -20.60979 -20.47038  -1.40387  -1.26144  -0.76448
 Alpha  occ. eigenvalues --   -0.73970  -0.57003  -0.56543  -0.47524  -0.42933
 Alpha virt. eigenvalues --    0.10881   0.17032   0.20449   0.33387   0.47369
 Alpha virt. eigenvalues --    0.52925   0.62511   0.63878   0.71004   0.71931
 Alpha virt. eigenvalues --    0.77231   0.79840   0.80441   0.82254   0.84008

 Mulliken charges:
               1
     1  O   -0.634579
     2  H    0.308323
     3  H    0.215559
     4  O   -0.389754
     5  H    0.253920
     6  H    0.246531
 Sum of Mulliken charges =  -0.00000

 Dipole moment (field-independent basis, Debye):
    X=             -1.6382    Y=             -4.5935    Z=              0.0000  Tot=              4.8768
 Quadrupole moment (field-independent basis, Debye-Ang):
   XX=             -9.1976   YY=             -9.7528   ZZ=            -14.6328
   XY=             -2.8701   XZ=              0.0000   YZ=              0.0000

 Normal termination of Gaussian 16 at Fri Aug 26 17:21:45 2022.
