 Gaussian 16, Revision A.03,
 Gaussian 16:  ES64L-G16RevA.03 25-Dec-2016

 ------------------
 #p CCSD(T)/cc-pVTZ
 ------------------

 ------------
 H2O_H2O_3046
 ------------
 Symbolic Z-matrix:
 Charge =  0 Multiplicity = 1

                         Standard orientation:
 ---------------------------------------------------------------------
 Center     Atomic      Atomic             Coordinates (Angstroms)
 Number     Number       Type             X           Y           Z
 ---------------------------------------------------------------------
      1          8           0       -0.023213    2.313906    0.000000
      2          1           0       -0.020557    1.331308    0.000000
      3          1           0        0.905415    2.635083    0.000000
      4          8           0       -0.023213   -2.143521    0.000000
      5          1           0       -0.986412   -2.337821    0.000000
      6          1           0        0.472960   -2.991648    0.000000
 ---------------------------------------------------------------------

 SCF Done:  E(RHF) =  -152.109835562     A.U. after   10 cycles
 E2 =    -0.5259115710D+00 EUMP2 =    -0.15263574713315D+03
 CCSD(T)
 CCSD(T)= -0.15266289254D+03

 The electronic state is 1-A'.
 Alpha  occ. eigenvalues --  -20.56612 -20.54559  -1.33896  -1.31878  -0.71300
 Alpha  occ. eigenvalues --   -0.69282  -0.57438  -0.55369  -0.51024  -0.49016
 Alpha virt. eigenvalues --    0.12417   0.15898   0.19342   0.22812   0.53489
 Alpha virt. eigenvalues --    0.55519   0.56447   0.58314   0.68040   0.69352
 Alpha virt. eigenvalues --    0.77867   0.78851   0.79817   0.80185   0.83165

 Mulliken charges:
               1
     1  O   -0.519896
     2  H    0.263420
     3  H    0.253903
     4  O   -0.515173
     5  H    0.259190
     6  H    0.258556
 Sum of Mulliken charges =  -0.00000

 Dipole moment (field-independent basis, Debye):
    X=              0.7940    Y=             -3.0624    Z=              0.0000  Tot=              3.1637
 Quadrupole moment (field-independent basis, Debye-Ang):
   XX=             -9.3612   YY=             -7.5226   ZZ=            -14.7196
   XY=              5.7265   XZ=              0.0000   YZ=              0.0000

 Normal termination of Gaussian 16 at Fri Aug 26 19:28:13 2022.
