 Gaussian 16, Revision A.03,
 Gaussian 16:  ES64L-G16RevA.03 25-Dec-2016

 ------------------
 #p CCSD(T)/cc-pVTZ
 ------------------

 ------------
 H2O_H2O_2326
 ------------
 Symbolic Z-matrix:
 Charge =  0 Multiplicity = 1

                         Standard orientation:
 ---------------------------------------------------------------------
 Center     Atomic      Atomic             Coordinates (Angstroms)
 Number     Number       Type             X           Y           Z
 ---------------------------------------------------------------------
      1          8           0        0.090686   -2.017477    0.000000
      2          1           0        0.090587   -1.034875    0.000000
      3          1           0       -0.838775   -2.336236    0.000000
      4          8           0        0.090686    1.878771    0.000000
      5          1           0        0.154853    2.859275    0.000000
      6          1           0       -0.857633    1.621482    0.000000
 ---------------------------------------------------------------------

 SCF Done:  E(RHF) =  -152.108860187     A.U. after   10 cycles
 E2 =    -0.5264026354D+00 EUMP2 =    -0.15263526282213D+03
 CCSD(T)
 CCSD(T)= -0.15266240834D+03

 The electronic state is 1-A'.
 Alpha  occ. eigenvalues --  -20.57044 -20.54865  -1.34333  -1.32171  -0.71806
 Alpha  occ. eigenvalues --   -0.69522  -0.57825  -0.55613  -0.51437  -0.49287
 Alpha virt. eigenvalues --    0.11516   0.15981   0.19893   0.24508   0.53133
 Alpha virt. eigenvalues --    0.55805   0.56594   0.57647   0.68355   0.71975
 Alpha virt. eigenvalues --    0.77013   0.79613   0.79698   0.79847   0.83359

 Mulliken charges:
               1
     1  O   -0.513955
     2  H    0.263780
     3  H    0.246419
     4  O   -0.503154
     5  H    0.259075
     6  H    0.247835
 Sum of Mulliken charges =  -0.00000

 Dipole moment (field-independent basis, Debye):
    X=             -3.0696    Y=              2.5477    Z=              0.0000  Tot=              3.9891
 Quadrupole moment (field-independent basis, Debye-Ang):
   XX=            -10.7269   YY=             -8.9441   ZZ=            -14.7147
   XY=              2.3370   XZ=              0.0000   YZ=              0.0000

 Normal termination of Gaussian 16 at Sun Aug 28 06:20:05 2022.
