 Gaussian 16, Revision A.03,
 Gaussian 16:  ES64L-G16RevA.03 25-Dec-2016

 ------------------
 #p CCSD(T)/cc-pVTZ
 ------------------

 -----------
 H2O_H2O_172
 -----------
 Symbolic Z-matrix:
 Charge =  0 Multiplicity = 1

                         Standard orientation:
 ---------------------------------------------------------------------
 Center     Atomic      Atomic             Coordinates (Angstroms)
 Number     Number       Type             X           Y           Z
 ---------------------------------------------------------------------
      1          8           0        0.020116   -1.165301    0.000000
      2          1           0        0.014383   -0.182716    0.000000
      3          1           0       -0.907502   -1.489385    0.000000
      4          8           0        0.020116    0.998319    0.000000
      5          1           0        0.993546    1.132256    0.000000
      6          1           0       -0.422275    1.875700    0.000000
 ---------------------------------------------------------------------

 SCF Done:  E(RHF) =  -152.059967069     A.U. after   11 cycles
 E2 =    -0.5351885627D+00 EUMP2 =    -0.15259515563151D+03
 CCSD(T)
 CCSD(T)= -0.15262089053D+03

 The electronic state is 1-A'.
 Alpha  occ. eigenvalues --  -20.61397 -20.45822  -1.42267  -1.25454  -0.80275
 Alpha  occ. eigenvalues --   -0.72962  -0.57558  -0.56653  -0.46025  -0.42174
 Alpha virt. eigenvalues --    0.10843   0.17219   0.20567   0.33769   0.47387
 Alpha virt. eigenvalues --    0.52128   0.60130   0.68894   0.71376   0.71655
 Alpha virt. eigenvalues --    0.76529   0.77486   0.79869   0.84916   0.85602

 Mulliken charges:
               1
     1  O   -0.663451
     2  H    0.284774
     3  H    0.225808
     4  O   -0.341941
     5  H    0.263347
     6  H    0.231463
 Sum of Mulliken charges =  -0.00000

 Dipole moment (field-independent basis, Debye):
    X=             -0.6188    Y=              4.5821    Z=              0.0000  Tot=              4.6237
 Quadrupole moment (field-independent basis, Debye-Ang):
   XX=             -9.3403   YY=             -9.9289   ZZ=            -14.5809
   XY=              2.9072   XZ=              0.0000   YZ=              0.0000

 Normal termination of Gaussian 16 at Fri Aug 26 16:21:51 2022.
