 Gaussian 16, Revision A.03,
 Gaussian 16:  ES64L-G16RevA.03 25-Dec-2016

 ------------------
 #p CCSD(T)/cc-pVTZ
 ------------------

 ------------
 H2O_H2O_4140
 ------------
 Symbolic Z-matrix:
 Charge =  0 Multiplicity = 1

                         Standard orientation:
 ---------------------------------------------------------------------
 Center     Atomic      Atomic             Coordinates (Angstroms)
 Number     Number       Type             X           Y           Z
 ---------------------------------------------------------------------
      1          8           0        0.044833    2.758119    0.000000
      2          1           0        0.043303    1.775519    0.000000
      3          1           0       -0.884163    3.078232   -0.000000
      4          8           0        0.044833   -2.577694    0.000000
      5          1           0        0.860985   -3.124870    0.000000
      6          1           0       -0.737455   -3.172281   -0.000000
 ---------------------------------------------------------------------

 SCF Done:  E(RHF) =  -152.108656089     A.U. after   10 cycles
 E2 =    -0.5258135231D+00 EUMP2 =    -0.15263446961220D+03
 CCSD(T)
 CCSD(T)= -0.15266165856D+03

 The electronic state is 1-A'.
 Alpha  occ. eigenvalues --  -20.56258 -20.54851  -1.33557  -1.32160  -0.70960
 Alpha  occ. eigenvalues --   -0.69560  -0.57059  -0.55635  -0.50677  -0.49286
 Alpha virt. eigenvalues --    0.13175   0.15121   0.19660   0.21229   0.53590
 Alpha virt. eigenvalues --    0.54893   0.56613   0.57820   0.66689   0.69009
 Alpha virt. eigenvalues --    0.78214   0.79564   0.79589   0.79723   0.82842

 Mulliken charges:
               1
     1  O   -0.514846
     2  H    0.261332
     3  H    0.253178
     4  O   -0.515412
     5  H    0.258767
     6  H    0.256980
 Sum of Mulliken charges =  -0.00000

 Dipole moment (field-independent basis, Debye):
    X=             -1.5360    Y=             -3.1792    Z=             -0.0000  Tot=              3.5308
 Quadrupole moment (field-independent basis, Debye-Ang):
   XX=             -9.1568   YY=             -6.4494   ZZ=            -14.7157
   XY=             -5.5487   XZ=              0.0000   YZ=             -0.0000

 Normal termination of Gaussian 16 at Sun Aug 28 00:04:37 2022.
