 Gaussian 16, Revision A.03,
 Gaussian 16:  ES64L-G16RevA.03 25-Dec-2016

 ------------------
 #p CCSD(T)/cc-pVTZ
 ------------------

 ------------
 H2O_H2O_4519
 ------------
 Symbolic Z-matrix:
 Charge =  0 Multiplicity = 1

                         Standard orientation:
 ---------------------------------------------------------------------
 Center     Atomic      Atomic             Coordinates (Angstroms)
 Number     Number       Type             X           Y           Z
 ---------------------------------------------------------------------
      1          8           0        0.030148    2.905098    0.000000
      2          1           0        0.028257    1.922499    0.000000
      3          1           0       -0.898731    3.225553    0.000000
      4          8           0        0.030148   -2.729463    0.000000
      5          1           0        0.959993   -3.047099    0.000000
      6          1           0       -0.571879   -3.506039    0.000000
 ---------------------------------------------------------------------

 SCF Done:  E(RHF) =  -152.108472557     A.U. after   10 cycles
 E2 =    -0.5257998349D+00 EUMP2 =    -0.15263427239218D+03
 CCSD(T)
 CCSD(T)= -0.15266146886D+03

 The electronic state is 1-A'.
 Alpha  occ. eigenvalues --  -20.56178 -20.54973  -1.33480  -1.32281  -0.70884
 Alpha  occ. eigenvalues --   -0.69685  -0.56975  -0.55754  -0.50599  -0.49405
 Alpha virt. eigenvalues --    0.13350   0.14928   0.19649   0.21085   0.53601
 Alpha virt. eigenvalues --    0.54874   0.56676   0.57796   0.66844   0.68721
 Alpha virt. eigenvalues --    0.78287   0.79451   0.79566   0.80356   0.82616

 Mulliken charges:
               1
     1  O   -0.514361
     2  H    0.260160
     3  H    0.254081
     4  O   -0.514964
     5  H    0.257731
     6  H    0.257353
 Sum of Mulliken charges =  -0.00000

 Dipole moment (field-independent basis, Debye):
    X=             -1.0345    Y=             -3.0821    Z=             -0.0000  Tot=              3.2511
 Quadrupole moment (field-independent basis, Debye-Ang):
   XX=             -9.2304   YY=             -6.4746   ZZ=            -14.7150
   XY=             -6.6867   XZ=             -0.0000   YZ=             -0.0000

 Normal termination of Gaussian 16 at Sun Aug 28 03:33:49 2022.
