 Gaussian 16, Revision A.03,
 Gaussian 16:  ES64L-G16RevA.03 25-Dec-2016

 ------------------
 #p CCSD(T)/cc-pVTZ
 ------------------

 -----------
 H2O_H2O_312
 -----------
 Symbolic Z-matrix:
 Charge =  0 Multiplicity = 1

                         Standard orientation:
 ---------------------------------------------------------------------
 Center     Atomic      Atomic             Coordinates (Angstroms)
 Number     Number       Type             X           Y           Z
 ---------------------------------------------------------------------
      1          8           0        0.056114    1.231514   -0.000000
      2          1           0        0.053367    0.248917   -0.000000
      3          1           0       -0.872485    1.552778   -0.000000
      4          8           0        0.056114   -1.052761    0.000000
      5          1           0        0.748973   -1.749505    0.000000
      6          1           0       -0.827673   -1.482212    0.000000
 ---------------------------------------------------------------------

 SCF Done:  E(RHF) =  -152.084040134     A.U. after   11 cycles
 E2 =    -0.5335578447D+00 EUMP2 =    -0.15261759797898D+03
 CCSD(T)
 CCSD(T)= -0.15264364376D+03

 The electronic state is 1-A'.
 Alpha  occ. eigenvalues --  -20.60977 -20.47131  -1.40398  -1.26215  -0.76673
 Alpha  occ. eigenvalues --   -0.73733  -0.57015  -0.56540  -0.47629  -0.43005
 Alpha virt. eigenvalues --    0.10872   0.16945   0.20495   0.33302   0.47588
 Alpha virt. eigenvalues --    0.52892   0.62287   0.63623   0.71314   0.71926
 Alpha virt. eigenvalues --    0.77135   0.79915   0.80130   0.82557   0.84061

 Mulliken charges:
               1
     1  O   -0.631878
     2  H    0.307150
     3  H    0.214296
     4  O   -0.386930
     5  H    0.251286
     6  H    0.246075
 Sum of Mulliken charges =  -0.00000

 Dipole moment (field-independent basis, Debye):
    X=             -1.7526    Y=             -4.5677    Z=              0.0000  Tot=              4.8924
 Quadrupole moment (field-independent basis, Debye-Ang):
   XX=             -9.2629   YY=             -9.7408   ZZ=            -14.6309
   XY=             -2.8555   XZ=              0.0000   YZ=             -0.0000

 Normal termination of Gaussian 16 at Fri Aug 26 17:21:22 2022.
