 Gaussian 16, Revision A.03,
 Gaussian 16:  ES64L-G16RevA.03 25-Dec-2016

 ------------------
 #p CCSD(T)/cc-pVTZ
 ------------------

 ------------
 H2O_H2O_3407
 ------------
 Symbolic Z-matrix:
 Charge =  0 Multiplicity = 1

                         Standard orientation:
 ---------------------------------------------------------------------
 Center     Atomic      Atomic             Coordinates (Angstroms)
 Number     Number       Type             X           Y           Z
 ---------------------------------------------------------------------
      1          8           0        0.073533    2.461610   -0.000000
      2          1           0        0.072840    1.479008   -0.000000
      3          1           0       -0.855735    2.780931   -0.000000
      4          8           0        0.073533   -2.294663    0.000000
      5          1           0        0.507505   -3.176237    0.000000
      6          1           0       -0.901135   -2.419277    0.000000
 ---------------------------------------------------------------------

 SCF Done:  E(RHF) =  -152.108780960     A.U. after   10 cycles
 E2 =    -0.5259151782D+00 EUMP2 =    -0.15263469613846D+03
 CCSD(T)
 CCSD(T)= -0.15266187028D+03

 The electronic state is 1-A'.
 Alpha  occ. eigenvalues --  -20.56483 -20.54797  -1.33775  -1.32108  -0.71186
 Alpha  occ. eigenvalues --   -0.69498  -0.57274  -0.55578  -0.50894  -0.49231
 Alpha virt. eigenvalues --    0.12431   0.15495   0.19415   0.22005   0.53421
 Alpha virt. eigenvalues --    0.55099   0.56413   0.58148   0.67117   0.69259
 Alpha virt. eigenvalues --    0.78012   0.78697   0.79616   0.80347   0.82881

 Mulliken charges:
               1
     1  O   -0.514059
     2  H    0.261863
     3  H    0.250884
     4  O   -0.513184
     5  H    0.259942
     6  H    0.254554
 Sum of Mulliken charges =  -0.00000

 Dipole moment (field-independent basis, Debye):
    X=             -2.5114    Y=             -2.9750    Z=              0.0000  Tot=              3.8933
 Quadrupole moment (field-independent basis, Debye-Ang):
   XX=             -9.8135   YY=             -7.5084   ZZ=            -14.7160
   XY=             -3.6569   XZ=              0.0000   YZ=             -0.0000

 Normal termination of Gaussian 16 at Fri Aug 26 21:31:40 2022.
