 Gaussian 16, Revision A.03,
 Gaussian 16:  ES64L-G16RevA.03 25-Dec-2016

 ------------------
 #p CCSD(T)/cc-pVTZ
 ------------------

 ------------
 H2O_H2O_3975
 ------------
 Symbolic Z-matrix:
 Charge =  0 Multiplicity = 1

                         Standard orientation:
 ---------------------------------------------------------------------
 Center     Atomic      Atomic             Coordinates (Angstroms)
 Number     Number       Type             X           Y           Z
 ---------------------------------------------------------------------
      1          8           0        0.092949   -2.672409    0.000000
      2          1           0        0.092949   -1.689808    0.000000
      3          1           0       -0.836544   -2.991076    0.000000
      4          8           0        0.092949    2.539622    0.000000
      5          1           0        0.092949    3.522223    0.000000
      6          1           0       -0.836544    2.220955    0.000000
 ---------------------------------------------------------------------

 SCF Done:  E(RHF) =  -152.107696270     A.U. after   10 cycles
 E2 =    -0.5259092084D+00 EUMP2 =    -0.15263360547847D+03
 CCSD(T)
 CCSD(T)= -0.15266081524D+03

 The electronic state is 1-A'.
 Alpha  occ. eigenvalues --  -20.56323 -20.55300  -1.33623  -1.32602  -0.71042
 Alpha  occ. eigenvalues --   -0.69995  -0.57084  -0.56053  -0.50733  -0.49714
 Alpha virt. eigenvalues --    0.12175   0.15006   0.18834   0.22297   0.53131
 Alpha virt. eigenvalues --    0.54920   0.56495   0.57819   0.66785   0.68684
 Alpha virt. eigenvalues --    0.78166   0.79160   0.79230   0.81492   0.82235

 Mulliken charges:
               1
     1  O   -0.509459
     2  H    0.257772
     3  H    0.251476
     4  O   -0.510469
     5  H    0.258958
     6  H    0.251723
 Sum of Mulliken charges =  -0.00000

 Dipole moment (field-independent basis, Debye):
    X=             -3.1819    Y=              2.3416    Z=              0.0000  Tot=              3.9507
 Quadrupole moment (field-independent basis, Debye-Ang):
   XX=            -10.8479   YY=             -9.2680   ZZ=            -14.7118
   XY=              2.1546   XZ=              0.0000   YZ=              0.0000

 Normal termination of Gaussian 16 at Sat Aug 27 00:47:06 2022.
