 Gaussian 16, Revision A.03,
 Gaussian 16:  ES64L-G16RevA.03 25-Dec-2016

 ------------------
 #p CCSD(T)/cc-pVTZ
 ------------------

 ------------
 H2O_H2O_4734
 ------------
 Symbolic Z-matrix:
 Charge =  0 Multiplicity = 1

                         Standard orientation:
 ---------------------------------------------------------------------
 Center     Atomic      Atomic             Coordinates (Angstroms)
 Number     Number       Type             X           Y           Z
 ---------------------------------------------------------------------
      1          8           0        0.066741    2.993482    0.000000
      2          1           0        0.065976    2.010881    0.000000
      3          1           0       -0.862504    3.312872    0.000000
      4          8           0        0.066741   -2.820349    0.000000
      5          1           0        0.612009   -3.637777    0.000000
      6          1           0       -0.883342   -3.071046    0.000000
 ---------------------------------------------------------------------

 SCF Done:  E(RHF) =  -152.108137094     A.U. after   10 cycles
 E2 =    -0.5258243219D+00 EUMP2 =    -0.15263396141592D+03
 CCSD(T)
 CCSD(T)= -0.15266116545D+03

 The electronic state is 1-A'.
 Alpha  occ. eigenvalues --  -20.56153 -20.55055  -1.33455  -1.32360  -0.70862
 Alpha  occ. eigenvalues --   -0.69760  -0.56936  -0.55824  -0.50571  -0.49480
 Alpha virt. eigenvalues --    0.13401   0.14783   0.19634   0.20960   0.53624
 Alpha virt. eigenvalues --    0.54817   0.56669   0.57744   0.66977   0.68570
 Alpha virt. eigenvalues --    0.78315   0.79382   0.79639   0.80533   0.82330

 Mulliken charges:
               1
     1  O   -0.512377
     2  H    0.259511
     3  H    0.252805
     4  O   -0.513223
     5  H    0.258161
     6  H    0.255123
 Sum of Mulliken charges =   0.00000

 Dipole moment (field-independent basis, Debye):
    X=             -2.2900    Y=             -3.0335    Z=             -0.0000  Tot=              3.8008
 Quadrupole moment (field-independent basis, Debye-Ang):
   XX=             -9.5598   YY=             -6.5136   ZZ=            -14.7138
   XY=             -4.5187   XZ=             -0.0000   YZ=             -0.0000

 Normal termination of Gaussian 16 at Sun Aug 28 05:28:16 2022.
