 Gaussian 16, Revision A.03,
 Gaussian 16:  ES64L-G16RevA.03 25-Dec-2016

 ------------------
 #p CCSD(T)/cc-pVTZ
 ------------------

 ------------
 H2O_H2O_2339
 ------------
 Symbolic Z-matrix:
 Charge =  0 Multiplicity = 1

                         Standard orientation:
 ---------------------------------------------------------------------
 Center     Atomic      Atomic             Coordinates (Angstroms)
 Number     Number       Type             X           Y           Z
 ---------------------------------------------------------------------
      1          8           0        0.048607    2.040109    0.000000
      2          1           0        0.046676    1.057509    0.000000
      3          1           0       -0.880258    2.360602    0.000000
      4          8           0        0.048607   -1.859746    0.000000
      5          1           0        0.826980   -2.459447    0.000000
      6          1           0       -0.771115   -2.401561    0.000000
 ---------------------------------------------------------------------

 SCF Done:  E(RHF) =  -152.111317208     A.U. after   10 cycles
 E2 =    -0.5261785567D+00 EUMP2 =    -0.15263749576423D+03
 CCSD(T)
 CCSD(T)= -0.15266458995D+03

 The electronic state is 1-A'.
 Alpha  occ. eigenvalues --  -20.57066 -20.53995  -1.34323  -1.31334  -0.71715
 Alpha  occ. eigenvalues --   -0.68734  -0.57944  -0.54815  -0.51460  -0.48480
 Alpha virt. eigenvalues --    0.12295   0.16610   0.19280   0.24742   0.52361
 Alpha virt. eigenvalues --    0.55474   0.56336   0.59008   0.69025   0.71422
 Alpha virt. eigenvalues --    0.77102   0.78344   0.80379   0.82048   0.83621

 Mulliken charges:
               1
     1  O   -0.524835
     2  H    0.267428
     3  H    0.249822
     4  O   -0.509902
     5  H    0.260843
     6  H    0.256644
 Sum of Mulliken charges =   0.00000

 Dipole moment (field-independent basis, Debye):
    X=             -1.6492    Y=             -3.3319    Z=             -0.0000  Tot=              3.7177
 Quadrupole moment (field-independent basis, Debye-Ang):
   XX=             -9.1849   YY=             -7.6248   ZZ=            -14.7246
   XY=             -4.2412   XZ=             -0.0000   YZ=             -0.0000

 Normal termination of Gaussian 16 at Sun Aug 28 06:25:25 2022.
