 Gaussian 16, Revision A.03,
 Gaussian 16:  ES64L-G16RevA.03 25-Dec-2016

 ------------------
 #p CCSD(T)/cc-pVTZ
 ------------------

 ------------
 H2O_H2O_4962
 ------------
 Symbolic Z-matrix:
 Charge =  0 Multiplicity = 1

                         Standard orientation:
 ---------------------------------------------------------------------
 Center     Atomic      Atomic             Coordinates (Angstroms)
 Number     Number       Type             X           Y           Z
 ---------------------------------------------------------------------
      1          8           0        0.055959    3.086388   -0.000000
      2          1           0        0.054912    2.103787   -0.000000
      3          1           0       -0.873194    3.406044    0.000000
      4          8           0        0.055959   -2.907441   -0.000000
      5          1           0        0.750022   -3.602985   -0.000000
      6          1           0       -0.827083   -3.338420    0.000000
 ---------------------------------------------------------------------

 SCF Done:  E(RHF) =  -152.108171904     A.U. after   10 cycles
 E2 =    -0.5258139629D+00 EUMP2 =    -0.15263398586721D+03
 CCSD(T)
 CCSD(T)= -0.15266118995D+03

 The electronic state is 1-A'.
 Alpha  occ. eigenvalues --  -20.56115 -20.55048  -1.33417  -1.32353  -0.70823
 Alpha  occ. eigenvalues --   -0.69755  -0.56900  -0.55819  -0.50534  -0.49474
 Alpha virt. eigenvalues --    0.13530   0.14746   0.19729   0.20878   0.53720
 Alpha virt. eigenvalues --    0.54793   0.56714   0.57748   0.67080   0.68492
 Alpha virt. eigenvalues --    0.78349   0.79388   0.79748   0.80542   0.82175

 Mulliken charges:
               1
     1  O   -0.512724
     2  H    0.259426
     3  H    0.253265
     4  O   -0.513411
     5  H    0.257763
     6  H    0.255681
 Sum of Mulliken charges =   0.00000

 Dipole moment (field-independent basis, Debye):
    X=             -1.9211    Y=             -3.1307    Z=              0.0000  Tot=              3.6731
 Quadrupole moment (field-independent basis, Debye-Ang):
   XX=             -9.2849   YY=             -6.0089   ZZ=            -14.7140
   XY=             -5.3592   XZ=             -0.0000   YZ=              0.0000

 Normal termination of Gaussian 16 at Sun Aug 28 07:15:41 2022.
