 Gaussian 16, Revision A.03,
 Gaussian 16:  ES64L-G16RevA.03 25-Dec-2016

 ------------------
 #p CCSD(T)/cc-pVTZ
 ------------------

 ------------
 H2O_H2O_3860
 ------------
 Symbolic Z-matrix:
 Charge =  0 Multiplicity = 1

                         Standard orientation:
 ---------------------------------------------------------------------
 Center     Atomic      Atomic             Coordinates (Angstroms)
 Number     Number       Type             X           Y           Z
 ---------------------------------------------------------------------
      1          8           0        0.063225    2.645764    0.000000
      2          1           0        0.062239    1.663163    0.000000
      3          1           0       -0.865948    2.965363    0.000000
      4          8           0        0.063225   -2.470240   -0.000000
      5          1           0        0.660613   -3.250390   -0.000000
      6          1           0       -0.868497   -2.782329   -0.000000
 ---------------------------------------------------------------------

 SCF Done:  E(RHF) =  -152.108646859     A.U. after   10 cycles
 E2 =    -0.5258472457D+00 EUMP2 =    -0.15263449410424D+03
 CCSD(T)
 CCSD(T)= -0.15266167931D+03

 The electronic state is 1-A'.
 Alpha  occ. eigenvalues --  -20.56335 -20.54833  -1.33631  -1.32143  -0.71037
 Alpha  occ. eigenvalues --   -0.69538  -0.57131  -0.55615  -0.50751  -0.49267
 Alpha virt. eigenvalues --    0.12906   0.15240   0.19552   0.21436   0.53427
 Alpha virt. eigenvalues --    0.54974   0.56531   0.57884   0.66708   0.69143
 Alpha virt. eigenvalues --    0.78147   0.79058   0.79583   0.80034   0.82863

 Mulliken charges:
               1
     1  O   -0.514227
     2  H    0.261562
     3  H    0.252067
     4  O   -0.514646
     5  H    0.259487
     6  H    0.255757
 Sum of Mulliken charges =  -0.00000

 Dipole moment (field-independent basis, Debye):
    X=             -2.1637    Y=             -3.1043    Z=             -0.0000  Tot=              3.7839
 Quadrupole moment (field-independent basis, Debye-Ang):
   XX=             -9.4549   YY=             -6.8709   ZZ=            -14.7156
   XY=             -4.4032   XZ=             -0.0000   YZ=              0.0000

 CCSD(T)=-152.6616793\RMSD=7.118e-09\PG=CS [SG(H4O2)]\\@
 Normal termination of Gaussian 16 at Sat Aug 27 00:08:05 2022.
