 Gaussian 16, Revision A.03,
 Gaussian 16:  ES64L-G16RevA.03 25-Dec-2016

 ------------------
 #p CCSD(T)/cc-pVTZ
 ------------------

 ------------
 H2O_H2O_1770
 ------------
 Symbolic Z-matrix:
 Charge =  0 Multiplicity = 1

                         Standard orientation:
 ---------------------------------------------------------------------
 Center     Atomic      Atomic             Coordinates (Angstroms)
 Number     Number       Type             X           Y           Z
 ---------------------------------------------------------------------
      1          8           0        0.026726    1.806861    0.000000
      2          1           0        0.023455    0.824265    0.000000
      3          1           0       -0.901701    2.128619    0.000000
      4          8           0        0.026726   -1.633678   -0.000000
      5          1           0        0.974994   -1.891152   -0.000000
      6          1           0       -0.524364   -2.447193   -0.000000
 ---------------------------------------------------------------------

 SCF Done:  E(RHF) =  -152.113037575     A.U. after   10 cycles
 E2 =    -0.5266435920D+00 EUMP2 =    -0.15263968116651D+03
 CCSD(T)
 CCSD(T)= -0.15266672104D+03

 The electronic state is 1-A'.
 Alpha  occ. eigenvalues --  -20.57573 -20.53487  -1.34842  -1.30875  -0.72237
 Alpha  occ. eigenvalues --   -0.68359  -0.58602  -0.54298  -0.51977  -0.48032
 Alpha virt. eigenvalues --    0.12203   0.17304   0.19088   0.27448   0.51539
 Alpha virt. eigenvalues --    0.54380   0.56087   0.59462   0.69022   0.72927
 Alpha virt. eigenvalues --    0.75372   0.77550   0.80982   0.83257   0.84433

 Mulliken charges:
               1
     1  O   -0.536013
     2  H    0.271020
     3  H    0.251381
     4  O   -0.507888
     5  H    0.262983
     6  H    0.258518
 Sum of Mulliken charges =  -0.00000

 Dipole moment (field-independent basis, Debye):
    X=             -0.9049    Y=             -3.3124    Z=             -0.0000  Tot=              3.4338
 Quadrupole moment (field-independent basis, Debye-Ang):
   XX=             -9.2896   YY=             -8.1643   ZZ=            -14.7317
   XY=             -4.3964   XZ=             -0.0000   YZ=              0.0000

 Normal termination of Gaussian 16 at Sun Aug 28 01:26:28 2022.
