 Gaussian 16, Revision A.03,
 Gaussian 16:  ES64L-G16RevA.03 25-Dec-2016

 ------------------
 #p CCSD(T)/cc-pVTZ
 ------------------

 ------------
 H2O_H2O_1349
 ------------
 Symbolic Z-matrix:
 Charge =  0 Multiplicity = 1

                         Standard orientation:
 ---------------------------------------------------------------------
 Center     Atomic      Atomic             Coordinates (Angstroms)
 Number     Number       Type             X           Y           Z
 ---------------------------------------------------------------------
      1          8           0        0.013630   -1.629761    0.000000
      2          1           0        0.009283   -0.647169    0.000000
      3          1           0       -0.914444   -1.952537    0.000000
      4          8           0        0.013630    1.470537    0.000000
      5          1           0        0.996223    1.474884    0.000000
      6          1           0       -0.309146    2.398611    0.000000
 ---------------------------------------------------------------------

 SCF Done:  E(RHF) =  -152.112986530     A.U. after   10 cycles
 E2 =    -0.5274658652D+00 EUMP2 =    -0.15264045239554D+03
 CCSD(T)
 CCSD(T)= -0.15266744299D+03

 The electronic state is 1-A'.
 Alpha  occ. eigenvalues --  -20.58077 -20.53105  -1.35457  -1.30580  -0.73016
 Alpha  occ. eigenvalues --   -0.68158  -0.59268  -0.53851  -0.52545  -0.47727
 Alpha virt. eigenvalues --    0.12128   0.17658   0.19164   0.29853   0.50299
 Alpha virt. eigenvalues --    0.54594   0.55509   0.61372   0.68685   0.73527
 Alpha virt. eigenvalues --    0.74397   0.76840   0.81520   0.82370   0.84277

 Mulliken charges:
               1
     1  O   -0.550070
     2  H    0.277683
     3  H    0.253496
     4  O   -0.490751
     5  H    0.262415
     6  H    0.247229
 Sum of Mulliken charges =  -0.00000

 Dipole moment (field-independent basis, Debye):
    X=             -0.4697    Y=              3.1795    Z=              0.0000  Tot=              3.2140
 Quadrupole moment (field-independent basis, Debye-Ang):
   XX=             -9.6462   YY=             -8.6532   ZZ=            -14.7266
   XY=              4.3780   XZ=              0.0000   YZ=              0.0000

 Normal termination of Gaussian 16 at Sat Aug 27 00:01:46 2022.
