 Gaussian 16, Revision A.03,
 Gaussian 16:  ES64L-G16RevA.03 25-Dec-2016

 ------------------
 #p CCSD(T)/cc-pVTZ
 ------------------

 ------------
 H2O_H2O_1133
 ------------
 Symbolic Z-matrix:
 Charge =  0 Multiplicity = 1

                         Standard orientation:
 ---------------------------------------------------------------------
 Center     Atomic      Atomic             Coordinates (Angstroms)
 Number     Number       Type             X           Y           Z
 ---------------------------------------------------------------------
      1          8           0        0.070238    1.555923    0.000000
      2          1           0        0.068925    0.573323    0.000000
      3          1           0       -0.858828    1.875831    0.000000
      4          8           0        0.070238   -1.385744   -0.000000
      5          1           0        0.560401   -2.237358   -0.000000
      6          1           0       -0.894311   -1.573229   -0.000000
 ---------------------------------------------------------------------

 SCF Done:  E(RHF) =  -152.112378247     A.U. after   10 cycles
 E2 =    -0.5283417717D+00 EUMP2 =    -0.15264072001891D+03
 CCSD(T)
 CCSD(T)= -0.15266764046D+03

 The electronic state is 1-A'.
 Alpha  occ. eigenvalues --  -20.58542 -20.52465  -1.35981  -1.30025  -0.73412
 Alpha  occ. eigenvalues --   -0.68085  -0.59527  -0.53186  -0.53039  -0.47134
 Alpha virt. eigenvalues --    0.11721   0.17179   0.19516   0.30836   0.48517
 Alpha virt. eigenvalues --    0.54743   0.58178   0.59140   0.69770   0.72956
 Alpha virt. eigenvalues --    0.73779   0.76563   0.81991   0.82268   0.84354

 Mulliken charges:
               1
     1  O   -0.550037
     2  H    0.289332
     3  H    0.237021
     4  O   -0.481028
     5  H    0.252896
     6  H    0.251815
 Sum of Mulliken charges =   0.00000

 Dipole moment (field-independent basis, Debye):
    X=             -2.3251    Y=             -3.4974    Z=             -0.0000  Tot=              4.1997
 Quadrupole moment (field-independent basis, Debye-Ang):
   XX=             -9.7092   YY=             -8.6710   ZZ=            -14.7222
   XY=             -3.1059   XZ=             -0.0000   YZ=              0.0000

 Normal termination of Gaussian 16 at Fri Aug 26 22:39:34 2022.
