 Gaussian 16, Revision A.03,
 Gaussian 16:  ES64L-G16RevA.03 25-Dec-2016

 ------------------
 #p CCSD(T)/cc-pVTZ
 ------------------

 ------------
 H2O_H2O_1131
 ------------
 Symbolic Z-matrix:
 Charge =  0 Multiplicity = 1

                         Standard orientation:
 ---------------------------------------------------------------------
 Center     Atomic      Atomic             Coordinates (Angstroms)
 Number     Number       Type             X           Y           Z
 ---------------------------------------------------------------------
      1          8           0        0.076785    1.552108    0.000000
      2          1           0        0.075851    0.569507    0.000000
      3          1           0       -0.852404    1.871658   -0.000000
      4          8           0        0.076785   -1.388950    0.000000
      5          1           0        0.451947   -2.297114    0.000000
      6          1           0       -0.903961   -1.449310   -0.000000
 ---------------------------------------------------------------------

 SCF Done:  E(RHF) =  -152.111443976     A.U. after   10 cycles
 E2 =    -0.5284590957D+00 EUMP2 =    -0.15263990307196D+03
 CCSD(T)
 CCSD(T)= -0.15266683944D+03

 The electronic state is 1-A'.
 Alpha  occ. eigenvalues --  -20.58521 -20.52742  -1.35983  -1.30279  -0.73542
 Alpha  occ. eigenvalues --   -0.68155  -0.59485  -0.53458  -0.53021  -0.47380
 Alpha virt. eigenvalues --    0.11652   0.16934   0.19750   0.30614   0.48562
 Alpha virt. eigenvalues --    0.54615   0.58563   0.58923   0.69545   0.72853
 Alpha virt. eigenvalues --    0.74499   0.76704   0.81728   0.82077   0.84044

 Mulliken charges:
               1
     1  O   -0.545790
     2  H    0.287089
     3  H    0.235864
     4  O   -0.471307
     5  H    0.245875
     6  H    0.248269
 Sum of Mulliken charges =  -0.00000

 Dipole moment (field-independent basis, Debye):
    X=             -2.5405    Y=             -3.3525    Z=             -0.0000  Tot=              4.2063
 Quadrupole moment (field-independent basis, Debye-Ang):
   XX=             -9.9886   YY=             -8.7329   ZZ=            -14.7168
   XY=             -2.9162   XZ=              0.0000   YZ=             -0.0000

 Normal termination of Gaussian 16 at Fri Aug 26 22:38:51 2022.
