 Gaussian 16, Revision A.03,
 Gaussian 16:  ES64L-G16RevA.03 25-Dec-2016

 ------------------
 #p CCSD(T)/cc-pVTZ
 ------------------

 ------------
 H2O_H2O_1426
 ------------
 Symbolic Z-matrix:
 Charge =  0 Multiplicity = 1

                         Standard orientation:
 ---------------------------------------------------------------------
 Center     Atomic      Atomic             Coordinates (Angstroms)
 Number     Number       Type             X           Y           Z
 ---------------------------------------------------------------------
      1          8           0        0.090687   -1.658485    0.000000
      2          1           0        0.090566   -0.675883    0.000000
      3          1           0       -0.838767   -1.977265    0.000000
      4          8           0        0.090687    1.519783    0.000000
      5          1           0        0.154832    2.500289    0.000000
      6          1           0       -0.857626    1.262474    0.000000
 ---------------------------------------------------------------------

 SCF Done:  E(RHF) =  -152.109297432     A.U. after   10 cycles
 E2 =    -0.5278098617D+00 EUMP2 =    -0.15263710729388D+03
 CCSD(T)
 CCSD(T)= -0.15266418084D+03

 The electronic state is 1-A'.
 Alpha  occ. eigenvalues --  -20.57969 -20.54194  -1.35351  -1.31570  -0.73118
 Alpha  occ. eigenvalues --   -0.68814  -0.58849  -0.54914  -0.52396  -0.48666
 Alpha virt. eigenvalues --    0.11516   0.16377   0.20384   0.28258   0.49599
 Alpha virt. eigenvalues --    0.54316   0.57738   0.58387   0.68044   0.73487
 Alpha virt. eigenvalues --    0.74417   0.77836   0.80726   0.81771   0.83376

 Mulliken charges:
               1
     1  O   -0.523765
     2  H    0.274302
     3  H    0.238651
     4  O   -0.478571
     5  H    0.247732
     6  H    0.241651
 Sum of Mulliken charges =  -0.00000

 Dipole moment (field-independent basis, Debye):
    X=             -3.0237    Y=              2.7278    Z=              0.0000  Tot=              4.0723
 Quadrupole moment (field-independent basis, Debye-Ang):
   XX=            -10.7527   YY=             -9.0093   ZZ=            -14.7109
   XY=              2.2833   XZ=              0.0000   YZ=              0.0000

 Normal termination of Gaussian 16 at Sat Aug 27 00:30:46 2022.
