 Gaussian 16, Revision A.03,
 Gaussian 16:  ES64L-G16RevA.03 25-Dec-2016

 ------------------
 #p CCSD(T)/cc-pVTZ
 ------------------

 -----------
 H2O_H2O_903
 -----------
 Symbolic Z-matrix:
 Charge =  0 Multiplicity = 1

                         Standard orientation:
 ---------------------------------------------------------------------
 Center     Atomic      Atomic             Coordinates (Angstroms)
 Number     Number       Type             X           Y           Z
 ---------------------------------------------------------------------
      1          8           0        0.085614   -1.454977    0.000000
      2          1           0        0.085163   -0.472375    0.000000
      3          1           0       -0.843732   -1.774070    0.000000
      4          8           0        0.085614    1.305411    0.000000
      5          1           0        0.276868    2.269220    0.000000
      6          1           0       -0.888127    1.173754    0.000000
 ---------------------------------------------------------------------

 SCF Done:  E(RHF) =  -152.107217937     A.U. after   10 cycles
 E2 =    -0.5298425707D+00 EUMP2 =    -0.15263706050745D+03
 CCSD(T)
 CCSD(T)= -0.15266392858D+03

 The electronic state is 1-A'.
 Alpha  occ. eigenvalues --  -20.58952 -20.52600  -1.36687  -1.30240  -0.74730
 Alpha  occ. eigenvalues --   -0.68133  -0.59685  -0.53571  -0.53301  -0.47295
 Alpha virt. eigenvalues --    0.11461   0.16622   0.20320   0.31429   0.48292
 Alpha virt. eigenvalues --    0.53487   0.58492   0.61050   0.68917   0.71979
 Alpha virt. eigenvalues --    0.74298   0.77744   0.80283   0.82383   0.83416

 Mulliken charges:
               1
     1  O   -0.548470
     2  H    0.288971
     3  H    0.229381
     4  O   -0.442030
     5  H    0.235342
     6  H    0.236806
 Sum of Mulliken charges =  -0.00000

 Dipole moment (field-independent basis, Debye):
    X=             -2.8056    Y=              3.2151    Z=              0.0000  Tot=              4.2671
 Quadrupole moment (field-independent basis, Debye-Ang):
   XX=            -10.4499   YY=             -9.0301   ZZ=            -14.6930
   XY=              2.5090   XZ=              0.0000   YZ=              0.0000

 Normal termination of Gaussian 16 at Fri Aug 26 21:14:36 2022.
