 Gaussian 16, Revision A.03,
 Gaussian 16:  ES64L-G16RevA.03 25-Dec-2016

 ------------------
 #p CCSD(T)/cc-pVTZ
 ------------------

 ------------
 H2O_H2O_2660
 ------------
 Symbolic Z-matrix:
 Charge =  0 Multiplicity = 1

                         Standard orientation:
 ---------------------------------------------------------------------
 Center     Atomic      Atomic             Coordinates (Angstroms)
 Number     Number       Type             X           Y           Z
 ---------------------------------------------------------------------
      1          8           0        0.063245    2.167097    0.000000
      2          1           0        0.062032    1.184496    0.000000
      3          1           0       -0.865854    2.486910    0.000000
      4          8           0        0.063245   -1.991602    0.000000
      5          1           0        0.660453   -2.771890    0.000000
      6          1           0       -0.868549   -2.303477    0.000000
 ---------------------------------------------------------------------

 SCF Done:  E(RHF) =  -152.110175905     A.U. after   10 cycles
 E2 =    -0.5260714015D+00 EUMP2 =    -0.15263624730631D+03
 CCSD(T)
 CCSD(T)= -0.15266337264D+03

 The electronic state is 1-A'.
 Alpha  occ. eigenvalues --  -20.56844 -20.54333  -1.34114  -1.31657  -0.71519
 Alpha  occ. eigenvalues --   -0.69043  -0.57670  -0.55137  -0.51243  -0.48793
 Alpha virt. eigenvalues --    0.12262   0.16181   0.19398   0.23526   0.53117
 Alpha virt. eigenvalues --    0.55615   0.56138   0.58857   0.68946   0.69886
 Alpha virt. eigenvalues --    0.77566   0.78987   0.80049   0.80211   0.83366

 Mulliken charges:
               1
     1  O   -0.519667
     2  H    0.265497
     3  H    0.249502
     4  O   -0.510888
     5  H    0.260145
     6  H    0.255411
 Sum of Mulliken charges =  -0.00000

 Dipole moment (field-independent basis, Debye):
    X=             -2.1509    Y=             -3.1958    Z=              0.0000  Tot=              3.8522
 Quadrupole moment (field-independent basis, Debye-Ang):
   XX=             -9.4603   YY=             -7.5602   ZZ=            -14.7205
   XY=             -3.9081   XZ=             -0.0000   YZ=              0.0000

 Normal termination of Gaussian 16 at Fri Aug 26 16:22:30 2022.
