 Gaussian 16, Revision A.03,
 Gaussian 16:  ES64L-G16RevA.03 25-Dec-2016

 ------------------
 #p CCSD(T)/cc-pVTZ
 ------------------

 ------------
 H2O_H2O_1025
 ------------
 Symbolic Z-matrix:
 Charge =  0 Multiplicity = 1

                         Standard orientation:
 ---------------------------------------------------------------------
 Center     Atomic      Atomic             Coordinates (Angstroms)
 Number     Number       Type             X           Y           Z
 ---------------------------------------------------------------------
      1          8           0        0.092949   -1.495721    0.000000
      2          1           0        0.092949   -0.513120    0.000000
      3          1           0       -0.836544   -1.814387    0.000000
      4          8           0        0.092949    1.362934    0.000000
      5          1           0        0.092949    2.345535    0.000000
      6          1           0       -0.836544    1.044267    0.000000
 ---------------------------------------------------------------------

 SCF Done:  E(RHF) =  -152.105945012     A.U. after   10 cycles
 E2 =    -0.5295343669D+00 EUMP2 =    -0.15263547937929D+03
 CCSD(T)
 CCSD(T)= -0.15266246537D+03

 The electronic state is 1-A'.
 Alpha  occ. eigenvalues --  -20.58637 -20.53659  -1.36298  -1.31162  -0.74635
 Alpha  occ. eigenvalues --   -0.68269  -0.59476  -0.54371  -0.53185  -0.48217
 Alpha virt. eigenvalues --    0.11453   0.16376   0.20775   0.30365   0.48297
 Alpha virt. eigenvalues --    0.53018   0.58235   0.60643   0.68147   0.71637
 Alpha virt. eigenvalues --    0.73834   0.78340   0.80071   0.81622   0.82949

 Mulliken charges:
               1
     1  O   -0.532098
     2  H    0.281962
     3  H    0.231093
     4  O   -0.448890
     5  H    0.237345
     6  H    0.230587
 Sum of Mulliken charges =  -0.00000

 Dipole moment (field-independent basis, Debye):
    X=             -3.0626    Y=              2.7877    Z=              0.0000  Tot=              4.1414
 Quadrupole moment (field-independent basis, Debye-Ang):
   XX=            -10.9040   YY=             -9.2226   ZZ=            -14.6903
   XY=              2.0839   XZ=              0.0000   YZ=              0.0000

 Normal termination of Gaussian 16 at Fri Aug 26 21:58:43 2022.
