 Gaussian 16, Revision A.03,
 Gaussian 16:  ES64L-G16RevA.03 25-Dec-2016

 ------------------
 #p CCSD(T)/cc-pVTZ
 ------------------

 -----------
 H2O_H2O_381
 -----------
 Symbolic Z-matrix:
 Charge =  0 Multiplicity = 1

                         Standard orientation:
 ---------------------------------------------------------------------
 Center     Atomic      Atomic             Coordinates (Angstroms)
 Number     Number       Type             X           Y           Z
 ---------------------------------------------------------------------
      1          8           0        0.076805   -1.252931    0.000000
      2          1           0        0.075632   -0.270331    0.000000
      3          1           0       -0.852307   -1.572707    0.000000
      4          8           0        0.076805    1.089811    0.000000
      5          1           0        0.451747    1.998066    0.000000
      6          1           0       -0.903955    1.149933    0.000000
 ---------------------------------------------------------------------

 SCF Done:  E(RHF) =  -152.087162783     A.U. after   11 cycles
 E2 =    -0.5337571964D+00 EUMP2 =    -0.15262091997909D+03
 CCSD(T)
 CCSD(T)= -0.15264713885D+03

 The electronic state is 1-A'.
 Alpha  occ. eigenvalues --  -20.60585 -20.48891  -1.39781  -1.27494  -0.77794
 Alpha  occ. eigenvalues --   -0.70671  -0.58093  -0.55948  -0.49516  -0.44380
 Alpha virt. eigenvalues --    0.10988   0.16557   0.20685   0.32860   0.48728
 Alpha virt. eigenvalues --    0.52646   0.59655   0.64350   0.71940   0.72593
 Alpha virt. eigenvalues --    0.75075   0.78201   0.79334   0.83945   0.84656

 Mulliken charges:
               1
     1  O   -0.600505
     2  H    0.294413
     3  H    0.212004
     4  O   -0.377697
     5  H    0.234023
     6  H    0.237763
 Sum of Mulliken charges =  -0.00000

 Dipole moment (field-independent basis, Debye):
    X=             -2.4256    Y=              4.0770    Z=              0.0000  Tot=              4.7440
 Quadrupole moment (field-independent basis, Debye-Ang):
   XX=             -9.9588   YY=             -9.5123   ZZ=            -14.6281
   XY=              2.6499   XZ=              0.0000   YZ=              0.0000

 Normal termination of Gaussian 16 at Fri Aug 26 17:50:07 2022.
