 Gaussian 16, Revision A.03,
 Gaussian 16:  ES64L-G16RevA.03 25-Dec-2016

 ------------------
 #p CCSD(T)/cc-pVTZ
 ------------------

 -----------
 H2O_H2O_650
 -----------
 Symbolic Z-matrix:
 Charge =  0 Multiplicity = 1

                         Standard orientation:
 ---------------------------------------------------------------------
 Center     Atomic      Atomic             Coordinates (Angstroms)
 Number     Number       Type             X           Y           Z
 ---------------------------------------------------------------------
      1          8           0        0.092949   -1.346142    0.000000
      2          1           0        0.092949   -0.363540    0.000000
      3          1           0       -0.836544   -1.664808    0.000000
      4          8           0        0.092949    1.213355    0.000000
      5          1           0        0.092950    2.195957    0.000000
      6          1           0       -0.836544    0.894688    0.000000
 ---------------------------------------------------------------------

 SCF Done:  E(RHF) =  -152.095888799     A.U. after   11 cycles
 E2 =    -0.5322083789D+00 EUMP2 =    -0.15262809717834D+03
 CCSD(T)
 CCSD(T)= -0.15265480596D+03

 The electronic state is 1-A'.
 Alpha  occ. eigenvalues --  -20.59529 -20.52295  -1.37951  -1.30131  -0.77054
 Alpha  occ. eigenvalues --   -0.67739  -0.59827  -0.54410  -0.53037  -0.47126
 Alpha virt. eigenvalues --    0.11342   0.16368   0.21059   0.31924   0.48246
 Alpha virt. eigenvalues --    0.52002   0.58802   0.64085   0.69436   0.71029
 Alpha virt. eigenvalues --    0.73741   0.78280   0.78616   0.82573   0.82927

 Mulliken charges:
               1
     1  O   -0.550087
     2  H    0.285618
     3  H    0.219426
     4  O   -0.414685
     5  H    0.233300
     6  H    0.226427
 Sum of Mulliken charges =  -0.00000

 Dipole moment (field-independent basis, Debye):
    X=             -3.0146    Y=              3.0781    Z=              0.0000  Tot=              4.3085
 Quadrupole moment (field-independent basis, Debye-Ang):
   XX=            -10.8904   YY=             -9.3971   ZZ=            -14.6510
   XY=              2.0356   XZ=              0.0000   YZ=              0.0000

 Normal termination of Gaussian 16 at Fri Aug 26 19:37:46 2022.
