 Gaussian 16, Revision A.03,
 Gaussian 16:  ES64L-G16RevA.03 25-Dec-2016

 ------------------
 #p CCSD(T)/cc-pVTZ
 ------------------

 ------------
 H2O_H2O_3536
 ------------
 Symbolic Z-matrix:
 Charge =  0 Multiplicity = 1

                         Standard orientation:
 ---------------------------------------------------------------------
 Center     Atomic      Atomic             Coordinates (Angstroms)
 Number     Number       Type             X           Y           Z
 ---------------------------------------------------------------------
      1          8           0        0.059633    2.517179   -0.000000
      2          1           0        0.058469    1.534578   -0.000000
      3          1           0       -0.869482    2.836946   -0.000000
      4          8           0        0.059633   -2.339723    0.000000
      5          1           0        0.706632   -3.079249    0.000000
      6          1           0       -0.849750   -2.711917    0.000000
 ---------------------------------------------------------------------

 SCF Done:  E(RHF) =  -152.108995413     A.U. after   10 cycles
 E2 =    -0.5258711667D+00 EUMP2 =    -0.15263486657954D+03
 CCSD(T)
 CCSD(T)= -0.15266203856D+03

 The electronic state is 1-A'.
 Alpha  occ. eigenvalues --  -20.56434 -20.54707  -1.33725  -1.32019  -0.71130
 Alpha  occ. eigenvalues --   -0.69413  -0.57236  -0.55496  -0.50847  -0.49146
 Alpha virt. eigenvalues --    0.12724   0.15474   0.19536   0.21749   0.53407
 Alpha virt. eigenvalues --    0.55061   0.56465   0.58034   0.66966   0.69303
 Alpha virt. eigenvalues --    0.78057   0.78936   0.79695   0.79759   0.82987

 Mulliken charges:
               1
     1  O   -0.515496
     2  H    0.262532
     3  H    0.251780
     4  O   -0.514794
     5  H    0.259843
     6  H    0.256134
 Sum of Mulliken charges =   0.00000

 Dipole moment (field-independent basis, Debye):
    X=             -2.0382    Y=             -3.1560    Z=              0.0000  Tot=              3.7569
 Quadrupole moment (field-independent basis, Debye-Ang):
   XX=             -9.3632   YY=             -6.9695   ZZ=            -14.7169
   XY=             -4.4517   XZ=              0.0000   YZ=             -0.0000

 Normal termination of Gaussian 16 at Fri Aug 26 22:15:39 2022.
