 Gaussian 16, Revision A.03,
 Gaussian 16:  ES64L-G16RevA.03 25-Dec-2016

 ------------------
 #p CCSD(T)/cc-pVTZ
 ------------------

 -----------
 H2O_H2O_897
 -----------
 Symbolic Z-matrix:
 Charge =  0 Multiplicity = 1

                         Standard orientation:
 ---------------------------------------------------------------------
 Center     Atomic      Atomic             Coordinates (Angstroms)
 Number     Number       Type             X           Y           Z
 ---------------------------------------------------------------------
      1          8           0       -0.020013    1.454508    0.000000
      2          1           0       -0.015489    0.471917    0.000000
      3          1           0        0.908003    1.777450    0.000000
      4          8           0       -0.020013   -1.287476    0.000000
      5          1           0       -0.993608   -1.420215    0.000000
      6          1           0        0.421297   -2.165401    0.000000
 ---------------------------------------------------------------------

 SCF Done:  E(RHF) =  -152.111269413     A.U. after   10 cycles
 E2 =    -0.5291538808D+00 EUMP2 =    -0.15264042329332D+03
 CCSD(T)
 CCSD(T)= -0.15266721099D+03

 The electronic state is 1-A'.
 Alpha  occ. eigenvalues --  -20.58987 -20.51451  -1.36675  -1.29233  -0.74227
 Alpha  occ. eigenvalues --   -0.68031  -0.59956  -0.53643  -0.52089  -0.46335
 Alpha virt. eigenvalues --    0.11892   0.18330   0.18890   0.32613   0.48546
 Alpha virt. eigenvalues --    0.54433   0.56545   0.64405   0.68280   0.72431
 Alpha virt. eigenvalues --    0.73737   0.76763   0.81179   0.82999   0.84217

 Mulliken charges:
               1
     1  O   -0.579670
     2  H    0.294282
     3  H    0.247274
     4  O   -0.464997
     5  H    0.261546
     6  H    0.241566
 Sum of Mulliken charges =  -0.00000

 Dipole moment (field-independent basis, Debye):
    X=              0.6687    Y=             -3.6108    Z=              0.0000  Tot=              3.6722
 Quadrupole moment (field-independent basis, Debye-Ang):
   XX=             -9.4302   YY=             -8.9282   ZZ=            -14.7114
   XY=              3.7042   XZ=              0.0000   YZ=              0.0000

 Normal termination of Gaussian 16 at Fri Aug 26 21:12:23 2022.
