 Gaussian 16, Revision A.03,
 Gaussian 16:  ES64L-G16RevA.03 25-Dec-2016

 ------------------
 #p CCSD(T)/cc-pVTZ
 ------------------

 ------------
 H2O_H2O_1459
 ------------
 Symbolic Z-matrix:
 Charge =  0 Multiplicity = 1

                         Standard orientation:
 ---------------------------------------------------------------------
 Center     Atomic      Atomic             Coordinates (Angstroms)
 Number     Number       Type             X           Y           Z
 ---------------------------------------------------------------------
      1          8           0        0.066796    1.687117    0.000000
      2          1           0        0.065407    0.704517    0.000000
      3          1           0       -0.862246    2.007097    0.000000
      4          8           0        0.066796   -1.514068   -0.000000
      5          1           0        0.611545   -2.331842   -0.000000
      6          1           0       -0.883445   -1.764163   -0.000000
 ---------------------------------------------------------------------

 SCF Done:  E(RHF) =  -152.112932095     A.U. after   10 cycles
 E2 =    -0.5273314340D+00 EUMP2 =    -0.15264026352920D+03
 CCSD(T)
 CCSD(T)= -0.15266726748D+03

 The electronic state is 1-A'.
 Alpha  occ. eigenvalues --  -20.58003 -20.53120  -1.35310  -1.30556  -0.72708
 Alpha  occ. eigenvalues --   -0.68166  -0.59047  -0.53885  -0.52422  -0.47691
 Alpha virt. eigenvalues --    0.11892   0.17165   0.19321   0.28957   0.49430
 Alpha virt. eigenvalues --    0.55067   0.56809   0.58944   0.69678   0.73098
 Alpha virt. eigenvalues --    0.74123   0.76669   0.81428   0.82850   0.84437

 Mulliken charges:
               1
     1  O   -0.537417
     2  H    0.278415
     3  H    0.242051
     4  O   -0.498821
     5  H    0.260665
     6  H    0.255108
 Sum of Mulliken charges =  -0.00000

 Dipole moment (field-independent basis, Debye):
    X=             -2.2340    Y=             -3.4040    Z=             -0.0000  Tot=              4.0716
 Quadrupole moment (field-independent basis, Debye-Ang):
   XX=             -9.5834   YY=             -8.3823   ZZ=            -14.7303
   XY=             -3.3170   XZ=             -0.0000   YZ=              0.0000

 CCSD(T)=-152.6672675\RMSD=6.896e-09\PG=CS [SG(H4O2)]\\@
 Normal termination of Gaussian 16 at Sat Aug 27 00:42:46 2022.
