 Gaussian 16, Revision A.03,
 Gaussian 16:  ES64L-G16RevA.03 25-Dec-2016

 ------------------
 #p CCSD(T)/cc-pVTZ
 ------------------

 -----------
 H2O_H2O_790
 -----------
 Symbolic Z-matrix:
 Charge =  0 Multiplicity = 1

                         Standard orientation:
 ---------------------------------------------------------------------
 Center     Atomic      Atomic             Coordinates (Angstroms)
 Number     Number       Type             X           Y           Z
 ---------------------------------------------------------------------
      1          8           0        0.044974    1.421813    0.000000
      2          1           0        0.041908    0.439217    0.000000
      3          1           0       -0.883520    1.743378   -0.000000
      4          8           0        0.044974   -1.241529    0.000000
      5          1           0        0.860270   -1.789979    0.000000
      6          1           0       -0.738242   -1.834891   -0.000000
 ---------------------------------------------------------------------

 SCF Done:  E(RHF) =  -152.110666817     A.U. after   10 cycles
 E2 =    -0.5296875830D+00 EUMP2 =    -0.15264035440048D+03
 CCSD(T)
 CCSD(T)= -0.15266704450D+03

 The electronic state is 1-A'.
 Alpha  occ. eigenvalues --  -20.59359 -20.50547  -1.37122  -1.28495  -0.74142
 Alpha  occ. eigenvalues --   -0.68907  -0.59571  -0.54074  -0.51197  -0.45556
 Alpha virt. eigenvalues --    0.11636   0.18009   0.19204   0.32949   0.47907
 Alpha virt. eigenvalues --    0.54313   0.58434   0.62216   0.69439   0.71984
 Alpha virt. eigenvalues --    0.72460   0.77937   0.81985   0.82904   0.84547

 Mulliken charges:
               1
     1  O   -0.587102
     2  H    0.308162
     3  H    0.235975
     4  O   -0.476664
     5  H    0.264532
     6  H    0.255096
 Sum of Mulliken charges =  -0.00000

 Dipole moment (field-independent basis, Debye):
    X=             -1.4678    Y=             -3.9798    Z=             -0.0000  Tot=              4.2418
 Quadrupole moment (field-independent basis, Debye-Ang):
   XX=             -9.1468   YY=             -9.0271   ZZ=            -14.7113
   XY=             -3.2760   XZ=             -0.0000   YZ=             -0.0000

 Normal termination of Gaussian 16 at Fri Aug 26 20:31:39 2022.
