 Gaussian 16, Revision A.03,
 Gaussian 16:  ES64L-G16RevA.03 25-Dec-2016

 ------------------
 #p CCSD(T)/cc-pVTZ
 ------------------

 -----------
 H2O_H2O_569
 -----------
 Symbolic Z-matrix:
 Charge =  0 Multiplicity = 1

                         Standard orientation:
 ---------------------------------------------------------------------
 Center     Atomic      Atomic             Coordinates (Angstroms)
 Number     Number       Type             X           Y           Z
 ---------------------------------------------------------------------
      1          8           0        0.030362    1.329466    0.000000
      2          1           0        0.026072    0.346874    0.000000
      3          1           0       -0.897731    1.652187   -0.000000
      4          8           0        0.030362   -1.153978    0.000000
      5          1           0        0.959429   -1.473884    0.000000
      6          1           0       -0.573559   -1.929081   -0.000000
 ---------------------------------------------------------------------

 SCF Done:  E(RHF) =  -152.103060346     A.U. after   11 cycles
 E2 =    -0.5311786499D+00 EUMP2 =    -0.15263423899597D+03
 CCSD(T)
 CCSD(T)= -0.15266069219D+03

 The electronic state is 1-A'.
 Alpha  occ. eigenvalues --  -20.59963 -20.49274  -1.38282  -1.27615  -0.75389
 Alpha  occ. eigenvalues --   -0.70074  -0.59056  -0.54982  -0.49815  -0.44602
 Alpha virt. eigenvalues --    0.11459   0.17974   0.19509   0.33720   0.47482
 Alpha virt. eigenvalues --    0.53806   0.59084   0.66746   0.68740   0.72283
 Alpha virt. eigenvalues --    0.73634   0.77945   0.80493   0.83563   0.83943

 Mulliken charges:
               1
     1  O   -0.612196
     2  H    0.307179
     3  H    0.235322
     4  O   -0.437648
     5  H    0.262149
     6  H    0.245194
 Sum of Mulliken charges =   0.00000

 Dipole moment (field-independent basis, Debye):
    X=             -0.9814    Y=             -4.1298    Z=             -0.0000  Tot=              4.2448
 Quadrupole moment (field-independent basis, Debye-Ang):
   XX=             -9.1955   YY=             -9.3236   ZZ=            -14.6809
   XY=             -3.2077   XZ=              0.0000   YZ=             -0.0000

 Normal termination of Gaussian 16 at Fri Aug 26 19:07:58 2022.
