 Gaussian 16, Revision A.03,
 Gaussian 16:  ES64L-G16RevA.03 25-Dec-2016

 ------------------
 #p CCSD(T)/cc-pVTZ
 ------------------

 ------------
 H2O_H2O_2224
 ------------
 Symbolic Z-matrix:
 Charge =  0 Multiplicity = 1

                         Standard orientation:
 ---------------------------------------------------------------------
 Center     Atomic      Atomic             Coordinates (Angstroms)
 Number     Number       Type             X           Y           Z
 ---------------------------------------------------------------------
      1          8           0       -0.013566    1.978786    0.000000
      2          1           0       -0.010017    0.996191    0.000000
      3          1           0        0.914771    2.300808    0.000000
      4          8           0       -0.013566   -1.819541    0.000000
      5          1           0       -0.996161   -1.823089    0.000000
      6          1           0        0.308456   -2.747877    0.000000
 ---------------------------------------------------------------------

 SCF Done:  E(RHF) =  -152.111230038     A.U. after   10 cycles
 E2 =    -0.5262288724D+00 EUMP2 =    -0.15263745891007D+03
 CCSD(T)
 CCSD(T)= -0.15266455624D+03

 The electronic state is 1-A'.
 Alpha  occ. eigenvalues --  -20.57097 -20.54243  -1.34375  -1.31582  -0.71802
 Alpha  occ. eigenvalues --   -0.68996  -0.57991  -0.55059  -0.51504  -0.48731
 Alpha virt. eigenvalues --    0.12164   0.16628   0.19267   0.25422   0.53621
 Alpha virt. eigenvalues --    0.54855   0.56021   0.58775   0.68626   0.72261
 Alpha virt. eigenvalues --    0.76814   0.79177   0.80204   0.82227   0.83551

 Mulliken charges:
               1
     1  O   -0.527308
     2  H    0.265477
     3  H    0.254709
     4  O   -0.510794
     5  H    0.259645
     6  H    0.258271
 Sum of Mulliken charges =  -0.00000

 Dipole moment (field-independent basis, Debye):
    X=              0.4686    Y=             -2.9498    Z=              0.0000  Tot=              2.9868
 Quadrupole moment (field-independent basis, Debye-Ang):
   XX=             -9.6498   YY=             -8.2603   ZZ=            -14.7239
   XY=              5.3383   XZ=              0.0000   YZ=              0.0000

 Normal termination of Gaussian 16 at Sun Aug 28 05:32:22 2022.
