 Gaussian 16, Revision A.03,
 Gaussian 16:  ES64L-G16RevA.03 25-Dec-2016

 ------------------
 #p CCSD(T)/cc-pVTZ
 ------------------

 -----------
 H2O_H2O_358
 -----------
 Symbolic Z-matrix:
 Charge =  0 Multiplicity = 1

                         Standard orientation:
 ---------------------------------------------------------------------
 Center     Atomic      Atomic             Coordinates (Angstroms)
 Number     Number       Type             X           Y           Z
 ---------------------------------------------------------------------
      1          8           0        0.070269    1.246769    0.000000
      2          1           0        0.068606    0.264169    0.000000
      3          1           0       -0.858684    1.567007    0.000000
      4          8           0        0.070269   -1.076640   -0.000000
      5          1           0        0.560129   -1.928427   -0.000000
      6          1           0       -0.894348   -1.263782    0.000000
 ---------------------------------------------------------------------

 SCF Done:  E(RHF) =  -152.086817723     A.U. after   11 cycles
 E2 =    -0.5336535992D+00 EUMP2 =    -0.15262047132196D+03
 CCSD(T)
 CCSD(T)= -0.15264662682D+03

 The electronic state is 1-A'.
 Alpha  occ. eigenvalues --  -20.60725 -20.48235  -1.39962  -1.27002  -0.77414
 Alpha  occ. eigenvalues --   -0.71698  -0.57679  -0.56146  -0.48813  -0.43856
 Alpha virt. eigenvalues --    0.10947   0.16685   0.20589   0.33020   0.48481
 Alpha virt. eigenvalues --    0.52809   0.60261   0.63999   0.71986   0.72317
 Alpha virt. eigenvalues --    0.75735   0.78828   0.79552   0.84100   0.84112

 Mulliken charges:
               1
     1  O   -0.611791
     2  H    0.299447
     3  H    0.212664
     4  O   -0.381131
     5  H    0.239415
     6  H    0.241395
 Sum of Mulliken charges =  -0.00000

 Dipole moment (field-independent basis, Debye):
    X=             -2.2096    Y=             -4.2765    Z=              0.0000  Tot=              4.8136
 Quadrupole moment (field-independent basis, Debye-Ang):
   XX=             -9.6799   YY=             -9.5811   ZZ=            -14.6305
   XY=             -2.7617   XZ=             -0.0000   YZ=              0.0000

 Normal termination of Gaussian 16 at Fri Aug 26 17:40:41 2022.
