 Gaussian 16, Revision A.03,
 Gaussian 16:  ES64L-G16RevA.03 25-Dec-2016

 ------------------
 #p CCSD(T)/cc-pVTZ
 ------------------

 -----------
 H2O_H2O_551
 -----------
 Symbolic Z-matrix:
 Charge =  0 Multiplicity = 1

                         Standard orientation:
 ---------------------------------------------------------------------
 Center     Atomic      Atomic             Coordinates (Angstroms)
 Number     Number       Type             X           Y           Z
 ---------------------------------------------------------------------
      1          8           0        0.090690   -1.309464    0.000000
      2          1           0        0.090535   -0.326863    0.000000
      3          1           0       -0.838753   -1.628277    0.000000
      4          8           0        0.090690    1.170769    0.000000
      5          1           0        0.154801    2.151276    0.000000
      6          1           0       -0.857615    0.913426    0.000000
 ---------------------------------------------------------------------

 SCF Done:  E(RHF) =  -152.092496232     A.U. after   11 cycles
 E2 =    -0.5329423100D+00 EUMP2 =    -0.15262543854191D+03
 CCSD(T)
 CCSD(T)= -0.15265200623D+03

 The electronic state is 1-A'.
 Alpha  occ. eigenvalues --  -20.59851 -20.51464  -1.38563  -1.29480  -0.77635
 Alpha  occ. eigenvalues --   -0.68033  -0.59597  -0.54880  -0.52206  -0.46454
 Alpha virt. eigenvalues --    0.11253   0.16384   0.20991   0.32260   0.48508
 Alpha virt. eigenvalues --    0.51970   0.58969   0.64768   0.70428   0.71281
 Alpha virt. eigenvalues --    0.73921   0.77859   0.78630   0.82742   0.83561

 Mulliken charges:
               1
     1  O   -0.561443
     2  H    0.286167
     3  H    0.215907
     4  O   -0.400150
     5  H    0.231066
     6  H    0.228453
 Sum of Mulliken charges =   0.00000

 Dipole moment (field-independent basis, Debye):
    X=             -2.9215    Y=              3.3113    Z=              0.0000  Tot=              4.4159
 Quadrupole moment (field-independent basis, Debye-Ang):
   XX=            -10.7372   YY=             -9.4034   ZZ=            -14.6400
   XY=              2.1641   XZ=              0.0000   YZ=              0.0000

 Normal termination of Gaussian 16 at Fri Aug 26 18:59:56 2022.
