 Gaussian 16, Revision A.03,
 Gaussian 16:  ES64L-G16RevA.03 25-Dec-2016

 ------------------
 #p CCSD(T)/cc-pVTZ
 ------------------

 ------------
 H2O_H2O_2904
 ------------
 Symbolic Z-matrix:
 Charge =  0 Multiplicity = 1

                         Standard orientation:
 ---------------------------------------------------------------------
 Center     Atomic      Atomic             Coordinates (Angstroms)
 Number     Number       Type             X           Y           Z
 ---------------------------------------------------------------------
      1          8           0        0.082805   -2.255418    0.000000
      2          1           0        0.082410   -1.272817    0.000000
      3          1           0       -0.846560   -2.574458    0.000000
      4          8           0        0.082805    2.100903    0.000000
      5          1           0        0.336740    3.050126    0.000000
      6          1           0       -0.897466    2.033270    0.000000
 ---------------------------------------------------------------------

 SCF Done:  E(RHF) =  -152.108890114     A.U. after   10 cycles
 E2 =    -0.5260586915D+00 EUMP2 =    -0.15263494880573D+03
 CCSD(T)
 CCSD(T)= -0.15266210911D+03

 The electronic state is 1-A'.
 Alpha  occ. eigenvalues --  -20.56700 -20.54801  -1.33987  -1.32111  -0.71411
 Alpha  occ. eigenvalues --   -0.69491  -0.57485  -0.55574  -0.51103  -0.49233
 Alpha virt. eigenvalues --    0.11915   0.15765   0.19449   0.22989   0.54099
 Alpha virt. eigenvalues --    0.54951   0.56389   0.58343   0.68302   0.69250
 Alpha virt. eigenvalues --    0.77771   0.78742   0.79629   0.80723   0.82854

 Mulliken charges:
               1
     1  O   -0.514014
     2  H    0.262416
     3  H    0.249156
     4  O   -0.509682
     5  H    0.259735
     6  H    0.252389
 Sum of Mulliken charges =  -0.00000

 Dipole moment (field-independent basis, Debye):
    X=             -2.8189    Y=              2.7848    Z=              0.0000  Tot=              3.9625
 Quadrupole moment (field-independent basis, Debye-Ang):
   XX=            -10.2565   YY=             -8.2304   ZZ=            -14.7159
   XY=              2.9700   XZ=              0.0000   YZ=              0.0000

 CCSD(T)=-152.6621091\RMSD=7.068e-09\PG=CS [SG(H4O2)]\\@
 Normal termination of Gaussian 16 at Fri Aug 26 18:14:17 2022.
