 Gaussian 16, Revision A.03,
 Gaussian 16:  ES64L-G16RevA.03 25-Dec-2016

 ------------------
 #p CCSD(T)/cc-pVTZ
 ------------------

 ------------
 H2O_H2O_4213
 ------------
 Symbolic Z-matrix:
 Charge =  0 Multiplicity = 1

                         Standard orientation:
 ---------------------------------------------------------------------
 Center     Atomic      Atomic             Coordinates (Angstroms)
 Number     Number       Type             X           Y           Z
 ---------------------------------------------------------------------
      1          8           0        0.052276    2.787758   -0.000000
      2          1           0        0.050997    1.805157   -0.000000
      3          1           0       -0.876801    3.107634   -0.000000
      4          8           0        0.052276   -2.607841    0.000000
      5          1           0        0.790191   -3.256677    0.000000
      6          1           0       -0.800803   -3.095450    0.000000
 ---------------------------------------------------------------------

 SCF Done:  E(RHF) =  -152.108548986     A.U. after   10 cycles
 E2 =    -0.5258174057D+00 EUMP2 =    -0.15263436639130D+03
 CCSD(T)
 CCSD(T)= -0.15266155826D+03

 The electronic state is 1-A'.
 Alpha  occ. eigenvalues --  -20.56244 -20.54879  -1.33543  -1.32188  -0.70948
 Alpha  occ. eigenvalues --   -0.69587  -0.57042  -0.55661  -0.50663  -0.49312
 Alpha virt. eigenvalues --    0.13204   0.15069   0.19661   0.21178   0.53595
 Alpha virt. eigenvalues --    0.54880   0.56615   0.57813   0.66711   0.68954
 Alpha virt. eigenvalues --    0.78228   0.79540   0.79549   0.79870   0.82806

 Mulliken charges:
               1
     1  O   -0.514279
     2  H    0.261107
     3  H    0.252894
     4  O   -0.514983
     5  H    0.258821
     6  H    0.256440
 Sum of Mulliken charges =  -0.00000

 Dipole moment (field-independent basis, Debye):
    X=             -1.7913    Y=             -3.1676    Z=              0.0000  Tot=              3.6390
 Quadrupole moment (field-independent basis, Debye-Ang):
   XX=             -9.2251   YY=             -6.4308   ZZ=            -14.7153
   XY=             -5.1850   XZ=              0.0000   YZ=              0.0000

 Normal termination of Gaussian 16 at Sun Aug 28 00:52:02 2022.
