 Gaussian 16, Revision A.03,
 Gaussian 16:  ES64L-G16RevA.03 25-Dec-2016

 ------------------
 #p CCSD(T)/cc-pVTZ
 ------------------

 ------------
 H2O_H2O_1600
 ------------
 Symbolic Z-matrix:
 Charge =  0 Multiplicity = 1

                         Standard orientation:
 ---------------------------------------------------------------------
 Center     Atomic      Atomic             Coordinates (Angstroms)
 Number     Number       Type             X           Y           Z
 ---------------------------------------------------------------------
      1          8           0        0.092949   -1.725075    0.000000
      2          1           0        0.092949   -0.742474    0.000000
      3          1           0       -0.836544   -2.043742    0.000000
      4          8           0        0.092949    1.592289    0.000000
      5          1           0        0.092949    2.574890    0.000000
      6          1           0       -0.836544    1.273621    0.000000
 ---------------------------------------------------------------------

 SCF Done:  E(RHF) =  -152.108885638     A.U. after   10 cycles
 E2 =    -0.5274364429D+00 EUMP2 =    -0.15263632208129D+03
 CCSD(T)
 CCSD(T)= -0.15266343113D+03

 The electronic state is 1-A'.
 Alpha  occ. eigenvalues --  -20.57728 -20.54573  -1.35073  -1.31911  -0.72791
 Alpha  occ. eigenvalues --   -0.69129  -0.58558  -0.55292  -0.52134  -0.49010
 Alpha virt. eigenvalues --    0.11461   0.16246   0.20479   0.27252   0.50289
 Alpha virt. eigenvalues --    0.54488   0.57484   0.57990   0.67776   0.74188
 Alpha virt. eigenvalues --    0.74205   0.78045   0.80335   0.81982   0.83333

 Mulliken charges:
               1
     1  O   -0.518581
     2  H    0.270485
     3  H    0.240659
     4  O   -0.486337
     5  H    0.252523
     6  H    0.241250
 Sum of Mulliken charges =  -0.00000

 Dipole moment (field-independent basis, Debye):
    X=             -3.1105    Y=              2.5596    Z=              0.0000  Tot=              4.0283
 Quadrupole moment (field-independent basis, Debye-Ang):
   XX=            -10.8942   YY=             -9.1442   ZZ=            -14.7109
   XY=              2.1215   XZ=              0.0000   YZ=              0.0000

 Normal termination of Gaussian 16 at Sat Aug 27 23:47:40 2022.
