 Gaussian 16, Revision A.03,
 Gaussian 16:  ES64L-G16RevA.03 25-Dec-2016

 ------------------
 #p CCSD(T)/cc-pVTZ
 ------------------

 ------------
 H2O_H2O_3514
 ------------
 Symbolic Z-matrix:
 Charge =  0 Multiplicity = 1

                         Standard orientation:
 ---------------------------------------------------------------------
 Center     Atomic      Atomic             Coordinates (Angstroms)
 Number     Number       Type             X           Y           Z
 ---------------------------------------------------------------------
      1          8           0        0.048573    2.508807    0.000000
      2          1           0        0.047016    1.526207    0.000000
      3          1           0       -0.880414    2.828946    0.000000
      4          8           0        0.048573   -2.328408   -0.000000
      5          1           0        0.827175   -2.927813   -0.000000
      6          1           0       -0.770943   -2.870535   -0.000000
 ---------------------------------------------------------------------

 SCF Done:  E(RHF) =  -152.109177112     A.U. after   10 cycles
 E2 =    -0.5258589852D+00 EUMP2 =    -0.15263503609722D+03
 CCSD(T)
 CCSD(T)= -0.15266220398D+03

 The electronic state is 1-A'.
 Alpha  occ. eigenvalues --  -20.56438 -20.54655  -1.33728  -1.31969  -0.71130
 Alpha  occ. eigenvalues --   -0.69366  -0.57247  -0.55451  -0.50853  -0.49099
 Alpha virt. eigenvalues --    0.12776   0.15524   0.19564   0.21783   0.53419
 Alpha virt. eigenvalues --    0.55079   0.56484   0.58026   0.67013   0.69328
 Alpha virt. eigenvalues --    0.78051   0.79121   0.79449   0.79739   0.83042

 Mulliken charges:
               1
     1  O   -0.516546
     2  H    0.262889
     3  H    0.252377
     4  O   -0.515480
     5  H    0.259701
     6  H    0.257059
 Sum of Mulliken charges =  -0.00000

 Dipole moment (field-independent basis, Debye):
    X=             -1.6602    Y=             -3.2101    Z=             -0.0000  Tot=              3.6140
 Quadrupole moment (field-independent basis, Debye-Ang):
   XX=             -9.1824   YY=             -6.8534   ZZ=            -14.7176
   XY=             -4.9631   XZ=             -0.0000   YZ=             -0.0000

 Normal termination of Gaussian 16 at Fri Aug 26 22:08:20 2022.
