 Gaussian 16, Revision A.03,
 Gaussian 16:  ES64L-G16RevA.03 25-Dec-2016

 ------------------
 #p CCSD(T)/cc-pVTZ
 ------------------

 ------------
 H2O_H2O_2529
 ------------
 Symbolic Z-matrix:
 Charge =  0 Multiplicity = 1

                         Standard orientation:
 ---------------------------------------------------------------------
 Center     Atomic      Atomic             Coordinates (Angstroms)
 Number     Number       Type             X           Y           Z
 ---------------------------------------------------------------------
      1          8           0        0.082807   -2.105837    0.000000
      2          1           0        0.082383   -1.123236    0.000000
      3          1           0       -0.846548   -2.424905    0.000000
      4          8           0        0.082807    1.951327    0.000000
      5          1           0        0.336714    2.900556    0.000000
      6          1           0       -0.897462    1.883665    0.000000
 ---------------------------------------------------------------------

 SCF Done:  E(RHF) =  -152.109381490     A.U. after   10 cycles
 E2 =    -0.5262126730D+00 EUMP2 =    -0.15263559416266D+03
 CCSD(T)
 CCSD(T)= -0.15266273245D+03

 The electronic state is 1-A'.
 Alpha  occ. eigenvalues --  -20.56915 -20.54647  -1.34196  -1.31961  -0.71629
 Alpha  occ. eigenvalues --   -0.69333  -0.57712  -0.55420  -0.51312  -0.49085
 Alpha virt. eigenvalues --    0.11817   0.16025   0.19577   0.23861   0.53656
 Alpha virt. eigenvalues --    0.55430   0.56386   0.58196   0.68686   0.70552
 Alpha virt. eigenvalues --    0.77398   0.79190   0.79811   0.80649   0.83103

 Mulliken charges:
               1
     1  O   -0.515942
     2  H    0.264101
     3  H    0.247720
     4  O   -0.506915
     5  H    0.259370
     6  H    0.251667
 Sum of Mulliken charges =  -0.00000

 Dipole moment (field-independent basis, Debye):
    X=             -2.8107    Y=              2.8201    Z=              0.0000  Tot=              3.9816
 Quadrupole moment (field-independent basis, Debye-Ang):
   XX=            -10.2627   YY=             -8.3307   ZZ=            -14.7173
   XY=              2.9155   XZ=              0.0000   YZ=              0.0000

 Normal termination of Gaussian 16 at Fri Aug 26 15:23:28 2022.
