 Gaussian 16, Revision A.03,
 Gaussian 16:  ES64L-G16RevA.03 25-Dec-2016

 ------------------
 #p CCSD(T)/cc-pVTZ
 ------------------

 ------------
 H2O_H2O_2522
 ------------
 Symbolic Z-matrix:
 Charge =  0 Multiplicity = 1

                         Standard orientation:
 ---------------------------------------------------------------------
 Center     Atomic      Atomic             Coordinates (Angstroms)
 Number     Number       Type             X           Y           Z
 ---------------------------------------------------------------------
      1          8           0       -0.019889    2.102708    0.000000
      2          1           0       -0.016818    1.120112    0.000000
      3          1           0        0.908603    2.424279    0.000000
      4          8           0       -0.019889   -1.935618    0.000000
      5          1           0       -0.993679   -2.066918    0.000000
      6          1           0        0.420123   -2.814194    0.000000
 ---------------------------------------------------------------------

 SCF Done:  E(RHF) =  -152.110767981     A.U. after   10 cycles
 E2 =    -0.5260671363D+00 EUMP2 =    -0.15263683511729D+03
 CCSD(T)
 CCSD(T)= -0.15266394813D+03

 The electronic state is 1-A'.
 Alpha  occ. eigenvalues --  -20.56897 -20.54319  -1.34172  -1.31649  -0.71579
 Alpha  occ. eigenvalues --   -0.69057  -0.57758  -0.55139  -0.51304  -0.48794
 Alpha virt. eigenvalues --    0.12252   0.16379   0.19268   0.24268   0.53629
 Alpha virt. eigenvalues --    0.55474   0.56284   0.58557   0.68837   0.70633
 Alpha virt. eigenvalues --    0.77398   0.79152   0.80065   0.81002   0.83611

 Mulliken charges:
               1
     1  O   -0.524360
     2  H    0.265221
     3  H    0.253851
     4  O   -0.512515
     5  H    0.259701
     6  H    0.258103
 Sum of Mulliken charges =  -0.00000

 Dipole moment (field-independent basis, Debye):
    X=              0.6805    Y=             -3.0558    Z=              0.0000  Tot=              3.1307
 Quadrupole moment (field-independent basis, Debye-Ang):
   XX=             -9.4472   YY=             -7.8941   ZZ=            -14.7225
   XY=              5.3634   XZ=              0.0000   YZ=              0.0000

 Normal termination of Gaussian 16 at Fri Aug 26 15:20:38 2022.
