 Gaussian 16, Revision A.03,
 Gaussian 16:  ES64L-G16RevA.03 25-Dec-2016

 ------------------
 #p CCSD(T)/cc-pVTZ
 ------------------

 -----------
 H2O_H2O_618
 -----------
 Symbolic Z-matrix:
 Charge =  0 Multiplicity = 1

                         Standard orientation:
 ---------------------------------------------------------------------
 Center     Atomic      Atomic             Coordinates (Angstroms)
 Number     Number       Type             X           Y           Z
 ---------------------------------------------------------------------
      1          8           0        0.033949    1.350448   -0.000000
      2          1           0        0.029970    0.367854   -0.000000
      3          1           0       -0.894245    1.672876   -0.000000
      4          8           0        0.033949   -1.173046    0.000000
      5          1           0        0.940225   -1.552745    0.000000
      6          1           0       -0.619141   -1.907199    0.000000
 ---------------------------------------------------------------------

 SCF Done:  E(RHF) =  -152.105465161     A.U. after   11 cycles
 E2 =    -0.5307862887D+00 EUMP2 =    -0.15263625144977D+03
 CCSD(T)
 CCSD(T)= -0.15266276501D+03

 The electronic state is 1-A'.
 Alpha  occ. eigenvalues --  -20.59825 -20.49557  -1.37981  -1.27800  -0.74988
 Alpha  occ. eigenvalues --   -0.69853  -0.59185  -0.54761  -0.50128  -0.44806
 Alpha virt. eigenvalues --    0.11500   0.18012   0.19416   0.33572   0.47544
 Alpha virt. eigenvalues --    0.53952   0.59025   0.65510   0.68842   0.72326
 Alpha virt. eigenvalues --    0.73181   0.78107   0.80967   0.83318   0.84070

 Mulliken charges:
               1
     1  O   -0.606688
     2  H    0.309187
     3  H    0.235236
     4  O   -0.449279
     5  H    0.262924
     6  H    0.248620
 Sum of Mulliken charges =  -0.00000

 Dipole moment (field-independent basis, Debye):
    X=             -1.0993    Y=             -4.1094    Z=              0.0000  Tot=              4.2539
 Quadrupole moment (field-independent basis, Debye-Ang):
   XX=             -9.1585   YY=             -9.2594   ZZ=            -14.6897
   XY=             -3.2206   XZ=              0.0000   YZ=             -0.0000

 Normal termination of Gaussian 16 at Fri Aug 26 19:26:05 2022.
