 Gaussian 16, Revision A.03,
 Gaussian 16:  ES64L-G16RevA.03 25-Dec-2016

 ------------------
 #p CCSD(T)/cc-pVTZ
 ------------------

 -----------
 H2O_H2O_721
 -----------
 Symbolic Z-matrix:
 Charge =  0 Multiplicity = 1

                         Standard orientation:
 ---------------------------------------------------------------------
 Center     Atomic      Atomic             Coordinates (Angstroms)
 Number     Number       Type             X           Y           Z
 ---------------------------------------------------------------------
      1          8           0       -0.023377    1.386477    0.000000
      2          1           0       -0.018829    0.403886    0.000000
      3          1           0        0.904631    1.709442    0.000000
      4          8           0       -0.023377   -1.216182    0.000000
      5          1           0       -0.986201   -1.412337    0.000000
      6          1           0        0.474428   -2.063352    0.000000
 ---------------------------------------------------------------------

 SCF Done:  E(RHF) =  -152.108042829     A.U. after   10 cycles
 E2 =    -0.5301587000D+00 EUMP2 =    -0.15263820152910D+03
 CCSD(T)
 CCSD(T)= -0.15266483808D+03

 The electronic state is 1-A'.
 Alpha  occ. eigenvalues --  -20.59460 -20.50451  -1.37426  -1.28475  -0.74885
 Alpha  occ. eigenvalues --   -0.68676  -0.59756  -0.54277  -0.51034  -0.45531
 Alpha virt. eigenvalues --    0.11706   0.18259   0.19115   0.33385   0.47978
 Alpha virt. eigenvalues --    0.54125   0.57608   0.66157   0.68197   0.72308
 Alpha virt. eigenvalues --    0.73487   0.77146   0.80649   0.83556   0.84083

 Mulliken charges:
               1
     1  O   -0.596117
     2  H    0.300983
     3  H    0.242603
     4  O   -0.451171
     5  H    0.261501
     6  H    0.242201
 Sum of Mulliken charges =  -0.00000

 Dipole moment (field-independent basis, Debye):
    X=              0.7694    Y=             -3.8422    Z=              0.0000  Tot=              3.9185
 Quadrupole moment (field-independent basis, Debye-Ang):
   XX=             -9.3346   YY=             -9.1135   ZZ=            -14.6971
   XY=              3.4540   XZ=              0.0000   YZ=              0.0000

 Normal termination of Gaussian 16 at Fri Aug 26 20:05:57 2022.
