 Gaussian 16, Revision A.03,
 Gaussian 16:  ES64L-G16RevA.03 25-Dec-2016

 ------------------
 #p CCSD(T)/cc-pVTZ
 ------------------

 -----------
 H2O_H2O_745
 -----------
 Symbolic Z-matrix:
 Charge =  0 Multiplicity = 1

                         Standard orientation:
 ---------------------------------------------------------------------
 Center     Atomic      Atomic             Coordinates (Angstroms)
 Number     Number       Type             X           Y           Z
 ---------------------------------------------------------------------
      1          8           0        0.026816    1.397987   -0.000000
      2          1           0        0.022526    0.415395   -0.000000
      3          1           0       -0.901277    1.720708   -0.000000
      4          8           0        0.026816   -1.224860    0.000000
      5          1           0        0.974817   -1.483317    0.000000
      6          1           0       -0.525117   -2.037802    0.000000
 ---------------------------------------------------------------------

 SCF Done:  E(RHF) =  -152.109036384     A.U. after   10 cycles
 E2 =    -0.5299690643D+00 EUMP2 =    -0.15263900544866D+03
 CCSD(T)
 CCSD(T)= -0.15266566087D+03

 The electronic state is 1-A'.
 Alpha  occ. eigenvalues --  -20.59415 -20.50486  -1.37312  -1.28484  -0.74637
 Alpha  occ. eigenvalues --   -0.68725  -0.59720  -0.54200  -0.51086  -0.45544
 Alpha virt. eigenvalues --    0.11705   0.18281   0.19062   0.33267   0.47971
 Alpha virt. eigenvalues --    0.54233   0.57641   0.65430   0.68262   0.72360
 Alpha virt. eigenvalues --    0.73121   0.77436   0.80995   0.83438   0.84162

 Mulliken charges:
               1
     1  O   -0.594014
     2  H    0.302693
     3  H    0.241571
     4  O   -0.458624
     5  H    0.262643
     6  H    0.245731
 Sum of Mulliken charges =   0.00000

 Dipole moment (field-independent basis, Debye):
    X=             -0.8805    Y=             -3.8778    Z=              0.0000  Tot=              3.9765
 Quadrupole moment (field-independent basis, Debye-Ang):
   XX=             -9.2651   YY=             -9.0834   ZZ=            -14.7019
   XY=             -3.4237   XZ=              0.0000   YZ=             -0.0000

 Normal termination of Gaussian 16 at Fri Aug 26 20:14:50 2022.
