 Gaussian 16, Revision A.03,
 Gaussian 16:  ES64L-G16RevA.03 25-Dec-2016

 ------------------
 #p CCSD(T)/cc-pVTZ
 ------------------

 ------------
 H2O_H2O_3034
 ------------
 Symbolic Z-matrix:
 Charge =  0 Multiplicity = 1

                         Standard orientation:
 ---------------------------------------------------------------------
 Center     Atomic      Atomic             Coordinates (Angstroms)
 Number     Number       Type             X           Y           Z
 ---------------------------------------------------------------------
      1          8           0        0.066762    2.315375    0.000000
      2          1           0        0.065764    1.332774    0.000000
      3          1           0       -0.862407    2.634985    0.000000
      4          8           0        0.066762   -2.142273   -0.000000
      5          1           0        0.611836   -2.959830   -0.000000
      6          1           0       -0.883381   -2.392746   -0.000000
 ---------------------------------------------------------------------

 SCF Done:  E(RHF) =  -152.109430083     A.U. after   10 cycles
 E2 =    -0.5259690294D+00 EUMP2 =    -0.15263539911207D+03
 CCSD(T)
 CCSD(T)= -0.15266255028D+03

 The electronic state is 1-A'.
 Alpha  occ. eigenvalues --  -20.56639 -20.54568  -1.33921  -1.31885  -0.71329
 Alpha  occ. eigenvalues --   -0.69272  -0.57445  -0.55362  -0.51046  -0.49014
 Alpha virt. eigenvalues --    0.12354   0.15827   0.19446   0.22576   0.53442
 Alpha virt. eigenvalues --    0.55296   0.56304   0.58515   0.68051   0.69329
 Alpha virt. eigenvalues --    0.77851   0.78908   0.79824   0.79870   0.83102

 Mulliken charges:
               1
     1  O   -0.516671
     2  H    0.263677
     3  H    0.250358
     4  O   -0.512721
     5  H    0.260118
     6  H    0.255239
 Sum of Mulliken charges =  -0.00000

 Dipole moment (field-independent basis, Debye):
    X=             -2.2758    Y=             -3.1137    Z=             -0.0000  Tot=              3.8568
 Quadrupole moment (field-independent basis, Debye-Ang):
   XX=             -9.5653   YY=             -7.4339   ZZ=            -14.7182
   XY=             -3.8997   XZ=             -0.0000   YZ=             -0.0000

 CCSD(T)=-152.6625503\RMSD=6.954e-09\PG=CS [SG(H4O2)]\\@
 Normal termination of Gaussian 16 at Fri Aug 26 19:23:32 2022.
