 Gaussian 16, Revision A.03,
 Gaussian 16:  ES64L-G16RevA.03 25-Dec-2016

 ------------------
 #p CCSD(T)/cc-pVTZ
 ------------------

 ------------
 H2O_H2O_4324
 ------------
 Symbolic Z-matrix:
 Charge =  0 Multiplicity = 1

                         Standard orientation:
 ---------------------------------------------------------------------
 Center     Atomic      Atomic             Coordinates (Angstroms)
 Number     Number       Type             X           Y           Z
 ---------------------------------------------------------------------
      1          8           0       -0.013478    2.816440    0.000000
      2          1           0       -0.011015    1.833842    0.000000
      3          1           0        0.915214    3.137435    0.000000
      4          8           0       -0.013478   -2.657164    0.000000
      5          1           0       -0.996076   -2.659627    0.000000
      6          1           0        0.307518   -3.585856    0.000000
 ---------------------------------------------------------------------

 SCF Done:  E(RHF) =  -152.108494142     A.U. after   10 cycles
 E2 =    -0.5258022886D+00 EUMP2 =    -0.15263429643049D+03
 CCSD(T)
 CCSD(T)= -0.15266149216D+03

 The electronic state is 1-A'.
 Alpha  occ. eigenvalues --  -20.56212 -20.55059  -1.33515  -1.32367  -0.70921
 Alpha  occ. eigenvalues --   -0.69775  -0.57009  -0.55842  -0.50633  -0.49492
 Alpha virt. eigenvalues --    0.13061   0.14978   0.19303   0.21485   0.53323
 Alpha virt. eigenvalues --    0.54993   0.56653   0.57792   0.66769   0.68743
 Alpha virt. eigenvalues --    0.78254   0.79365   0.79383   0.80841   0.82506

 Mulliken charges:
               1
     1  O   -0.514619
     2  H    0.259426
     3  H    0.255028
     4  O   -0.515074
     5  H    0.256951
     6  H    0.258288
 Sum of Mulliken charges =  -0.00000

 Dipole moment (field-independent basis, Debye):
    X=              0.4641    Y=             -2.7983    Z=              0.0000  Tot=              2.8366
 Quadrupole moment (field-independent basis, Debye-Ang):
   XX=             -9.6482   YY=             -7.5321   ZZ=            -14.7149
   XY=              7.6305   XZ=              0.0000   YZ=              0.0000

 Normal termination of Gaussian 16 at Sun Aug 28 01:52:27 2022.
