 Gaussian 16, Revision A.03,
 Gaussian 16:  ES64L-G16RevA.03 25-Dec-2016

 ------------------
 #p CCSD(T)/cc-pVTZ
 ------------------

 ------------
 H2O_H2O_4298
 ------------
 Symbolic Z-matrix:
 Charge =  0 Multiplicity = 1

                         Standard orientation:
 ---------------------------------------------------------------------
 Center     Atomic      Atomic             Coordinates (Angstroms)
 Number     Number       Type             X           Y           Z
 ---------------------------------------------------------------------
      1          8           0       -0.016586    2.808711    0.000000
      2          1           0       -0.014211    1.826113    0.000000
      3          1           0        0.912134    3.129623    0.000000
      4          8           0       -0.016586   -2.645305    0.000000
      5          1           0       -0.996926   -2.711939    0.000000
      6          1           0        0.364380   -3.551048    0.000000
 ---------------------------------------------------------------------

 SCF Done:  E(RHF) =  -152.108538385     A.U. after   10 cycles
 E2 =    -0.5258016839D+00 EUMP2 =    -0.15263434006903D+03
 CCSD(T)
 CCSD(T)= -0.15266153438D+03

 The electronic state is 1-A'.
 Alpha  occ. eigenvalues --  -20.56217 -20.55020  -1.33519  -1.32328  -0.70925
 Alpha  occ. eigenvalues --   -0.69735  -0.57016  -0.55804  -0.50639  -0.49454
 Alpha virt. eigenvalues --    0.13096   0.15003   0.19382   0.21416   0.53359
 Alpha virt. eigenvalues --    0.54991   0.56650   0.57802   0.66753   0.68787
 Alpha virt. eigenvalues --    0.78249   0.79343   0.79402   0.80709   0.82601

 Mulliken charges:
               1
     1  O   -0.514780
     2  H    0.259771
     3  H    0.254823
     4  O   -0.515249
     5  H    0.257228
     6  H    0.258208
 Sum of Mulliken charges =  -0.00000

 Dipole moment (field-independent basis, Debye):
    X=              0.5703    Y=             -2.8721    Z=              0.0000  Tot=              2.9282
 Quadrupole moment (field-independent basis, Debye-Ang):
   XX=             -9.5433   YY=             -7.2965   ZZ=            -14.7151
   XY=              7.3744   XZ=              0.0000   YZ=              0.0000

 Normal termination of Gaussian 16 at Sun Aug 28 01:41:48 2022.
