 Gaussian 16, Revision A.03,
 Gaussian 16:  ES64L-G16RevA.03 25-Dec-2016

 ------------------
 #p CCSD(T)/cc-pVTZ
 ------------------

 ------------
 H2O_H2O_1086
 ------------
 Symbolic Z-matrix:
 Charge =  0 Multiplicity = 1

                         Standard orientation:
 ---------------------------------------------------------------------
 Center     Atomic      Atomic             Coordinates (Angstroms)
 Number     Number       Type             X           Y           Z
 ---------------------------------------------------------------------
      1          8           0        0.059704    1.539883    0.000000
      2          1           0        0.057756    0.557283    0.000000
      3          1           0       -0.869155    1.860392   -0.000000
      4          8           0        0.059704   -1.362523    0.000000
      5          1           0        0.706112   -2.102565    0.000000
      6          1           0       -0.849976   -1.733991   -0.000000
 ---------------------------------------------------------------------

 SCF Done:  E(RHF) =  -152.113210906     A.U. after   10 cycles
 E2 =    -0.5284024602D+00 EUMP2 =    -0.15264161336580D+03
 CCSD(T)
 CCSD(T)= -0.15266849909D+03

 The electronic state is 1-A'.
 Alpha  occ. eigenvalues --  -20.58662 -20.52007  -1.36110  -1.29625  -0.73396
 Alpha  occ. eigenvalues --   -0.68045  -0.59627  -0.53177  -0.52726  -0.46738
 Alpha virt. eigenvalues --    0.11783   0.17577   0.19241   0.31370   0.48456
 Alpha virt. eigenvalues --    0.54733   0.57504   0.59802   0.69798   0.72196
 Alpha virt. eigenvalues --    0.72905   0.76976   0.82285   0.82463   0.84719

 Mulliken charges:
               1
     1  O   -0.558208
     2  H    0.293761
     3  H    0.238273
     4  O   -0.490730
     5  H    0.261263
     6  H    0.255641
 Sum of Mulliken charges =  -0.00000

 Dipole moment (field-independent basis, Debye):
    X=             -1.9740    Y=             -3.6775    Z=             -0.0000  Tot=              4.1738
 Quadrupole moment (field-independent basis, Debye-Ang):
   XX=             -9.3761   YY=             -8.6770   ZZ=            -14.7264
   XY=             -3.2962   XZ=              0.0000   YZ=             -0.0000

 CCSD(T)=-152.6684991\RMSD=7.402e-09\PG=CS [SG(H4O2)]\\@
 Normal termination of Gaussian 16 at Fri Aug 26 22:22:31 2022.
