 Gaussian 16, Revision A.03,
 Gaussian 16:  ES64L-G16RevA.03 25-Dec-2016

 ------------------
 #p CCSD(T)/cc-pVTZ
 ------------------

 -----------
 H2O_H2O_337
 -----------
 Symbolic Z-matrix:
 Charge =  0 Multiplicity = 1

                         Standard orientation:
 ---------------------------------------------------------------------
 Center     Atomic      Atomic             Coordinates (Angstroms)
 Number     Number       Type             X           Y           Z
 ---------------------------------------------------------------------
      1          8           0        0.056111    1.241487    0.000000
      2          1           0        0.053388    0.258890    0.000000
      3          1           0       -0.872495    1.562729    0.000000
      4          8           0        0.056111   -1.062732   -0.000000
      5          1           0        0.748987   -1.759458   -0.000000
      6          1           0       -0.827665   -1.492204   -0.000000
 ---------------------------------------------------------------------

 SCF Done:  E(RHF) =  -152.086717333     A.U. after   11 cycles
 E2 =    -0.5333192355D+00 EUMP2 =    -0.15262003656868D+03
 CCSD(T)
 CCSD(T)= -0.15264612870D+03

 The electronic state is 1-A'.
 Alpha  occ. eigenvalues --  -20.60874 -20.47382  -1.40141  -1.26372  -0.76480
 Alpha  occ. eigenvalues --   -0.73365  -0.57227  -0.56364  -0.47894  -0.43185
 Alpha virt. eigenvalues --    0.10921   0.17003   0.20423   0.33336   0.47596
 Alpha virt. eigenvalues --    0.52984   0.62195   0.63527   0.71309   0.71990
 Alpha virt. eigenvalues --    0.76677   0.79716   0.80229   0.82582   0.84001

 Mulliken charges:
               1
     1  O   -0.628923
     2  H    0.308270
     3  H    0.215638
     4  O   -0.393270
     5  H    0.251864
     6  H    0.246421
 Sum of Mulliken charges =  -0.00000

 Dipole moment (field-independent basis, Debye):
    X=             -1.7578    Y=             -4.5252    Z=             -0.0000  Tot=              4.8546
 Quadrupole moment (field-independent basis, Debye-Ang):
   XX=             -9.2647   YY=             -9.6965   ZZ=            -14.6370
   XY=             -2.8741   XZ=             -0.0000   YZ=              0.0000

 Normal termination of Gaussian 16 at Fri Aug 26 17:31:53 2022.
