 Gaussian 16, Revision A.03,
 Gaussian 16:  ES64L-G16RevA.03 25-Dec-2016

 ------------------
 #p CCSD(T)/cc-pVTZ
 ------------------

 ----------
 H2O_H2O_66
 ----------
 Symbolic Z-matrix:
 Charge =  0 Multiplicity = 1

                         Standard orientation:
 ---------------------------------------------------------------------
 Center     Atomic      Atomic             Coordinates (Angstroms)
 Number     Number       Type             X           Y           Z
 ---------------------------------------------------------------------
      1          8           0        0.041349    1.132334   -0.000000
      2          1           0        0.037131    0.149742   -0.000000
      3          1           0       -0.886768    1.454988   -0.000000
      4          8           0        0.041349   -0.952601    0.000000
      5          1           0        0.890190   -1.447550    0.000000
      6          1           0       -0.702135   -1.595047    0.000000
 ---------------------------------------------------------------------

 SCF Done:  E(RHF) =  -152.041265940     A.U. after   11 cycles
 E2 =    -0.5356411836D+00 EUMP2 =    -0.15257690712383D+03
 CCSD(T)
 CCSD(T)= -0.15260245741D+03

 The electronic state is 1-A'.
 Alpha  occ. eigenvalues --  -20.62066 -20.43924  -1.43802  -1.24322  -0.79548
 Alpha  occ. eigenvalues --   -0.77632  -0.58665  -0.54609  -0.44087  -0.40780
 Alpha virt. eigenvalues --    0.10344   0.16502   0.21154   0.33087   0.46683
 Alpha virt. eigenvalues --    0.51935   0.62678   0.65991   0.70447   0.70593
 Alpha virt. eigenvalues --    0.78279   0.79366   0.81462   0.82572   0.88314

 Mulliken charges:
               1
     1  O   -0.678431
     2  H    0.286403
     3  H    0.204877
     4  O   -0.309801
     5  H    0.257341
     6  H    0.239611
 Sum of Mulliken charges =  -0.00000

 Dipole moment (field-independent basis, Debye):
    X=             -1.2461    Y=             -5.0941    Z=              0.0000  Tot=              5.2443
 Quadrupole moment (field-independent basis, Debye-Ang):
   XX=             -9.0824   YY=            -10.2467   ZZ=            -14.5571
   XY=             -2.6675   XZ=              0.0000   YZ=             -0.0000

 Normal termination of Gaussian 16 at Fri Aug 26 15:38:01 2022.
