 Gaussian 16, Revision A.03,
 Gaussian 16:  ES64L-G16RevA.03 25-Dec-2016

 ------------------
 #p CCSD(T)/cc-pVTZ
 ------------------

 ------------
 H2O_H2O_2796
 ------------
 Symbolic Z-matrix:
 Charge =  0 Multiplicity = 1

                         Standard orientation:
 ---------------------------------------------------------------------
 Center     Atomic      Atomic             Coordinates (Angstroms)
 Number     Number       Type             X           Y           Z
 ---------------------------------------------------------------------
      1          8           0       -0.023224    2.214184    0.000000
      2          1           0       -0.020444    1.231587    0.000000
      3          1           0        0.905364    2.535479    0.000000
      4          8           0       -0.023224   -2.043806    0.000000
      5          1           0       -0.986399   -2.238227    0.000000
      6          1           0        0.473056   -2.891869    0.000000
 ---------------------------------------------------------------------

 SCF Done:  E(RHF) =  -152.110268254     A.U. after   10 cycles
 E2 =    -0.5259714403D+00 EUMP2 =    -0.15263623969418D+03
 CCSD(T)
 CCSD(T)= -0.15266336978D+03

 The electronic state is 1-A'.
 Alpha  occ. eigenvalues --  -20.56738 -20.54433  -1.34016  -1.31757  -0.71420
 Alpha  occ. eigenvalues --   -0.69162  -0.57577  -0.55250  -0.51147  -0.48898
 Alpha virt. eigenvalues --    0.12340   0.16127   0.19314   0.23406   0.53531
 Alpha virt. eigenvalues --    0.55592   0.56398   0.58505   0.68770   0.69526
 Alpha virt. eigenvalues --    0.77699   0.79055   0.79937   0.80277   0.83323

 Mulliken charges:
               1
     1  O   -0.521833
     2  H    0.264419
     3  H    0.253679
     4  O   -0.514078
     5  H    0.259529
     6  H    0.258284
 Sum of Mulliken charges =  -0.00000

 Dipole moment (field-independent basis, Debye):
    X=              0.7936    Y=             -3.0857    Z=              0.0000  Tot=              3.1861
 Quadrupole moment (field-independent basis, Debye-Ang):
   XX=             -9.3613   YY=             -7.6495   ZZ=            -14.7210
   XY=              5.4863   XZ=              0.0000   YZ=              0.0000

 Normal termination of Gaussian 16 at Fri Aug 26 17:22:53 2022.
