 Gaussian 16, Revision A.03,
 Gaussian 16:  ES64L-G16RevA.03 25-Dec-2016

 ------------------
 #p CCSD(T)/cc-pVTZ
 ------------------

 ------------
 H2O_H2O_1163
 ------------
 Symbolic Z-matrix:
 Charge =  0 Multiplicity = 1

                         Standard orientation:
 ---------------------------------------------------------------------
 Center     Atomic      Atomic             Coordinates (Angstroms)
 Number     Number       Type             X           Y           Z
 ---------------------------------------------------------------------
      1          8           0        0.052372    1.571128   -0.000000
      2          1           0        0.050043    0.588529   -0.000000
      3          1           0       -0.876363    1.891997   -0.000000
      4          8           0        0.052372   -1.391323    0.000000
      5          1           0        0.789593   -2.040947    0.000000
      6          1           0       -0.801228   -1.878020    0.000000
 ---------------------------------------------------------------------

 SCF Done:  E(RHF) =  -152.113891209     A.U. after   10 cycles
 E2 =    -0.5280667134D+00 EUMP2 =    -0.15264195792239D+03
 CCSD(T)
 CCSD(T)= -0.15266886906D+03

 The electronic state is 1-A'.
 Alpha  occ. eigenvalues --  -20.58518 -20.52125  -1.35912  -1.29708  -0.73178
 Alpha  occ. eigenvalues --   -0.67952  -0.59574  -0.53004  -0.52862  -0.46834
 Alpha virt. eigenvalues --    0.11879   0.17796   0.19031   0.31037   0.48751
 Alpha virt. eigenvalues --    0.54793   0.56610   0.60111   0.69476   0.71584
 Alpha virt. eigenvalues --    0.73126   0.77068   0.82241   0.82618   0.84913

 Mulliken charges:
               1
     1  O   -0.556325
     2  H    0.290866
     3  H    0.241082
     4  O   -0.498520
     5  H    0.264991
     6  H    0.257905
 Sum of Mulliken charges =  -0.00000

 Dipole moment (field-independent basis, Debye):
    X=             -1.7376    Y=             -3.6839    Z=              0.0000  Tot=              4.0731
 Quadrupole moment (field-independent basis, Debye-Ang):
   XX=             -9.2318   YY=             -8.5901   ZZ=            -14.7312
   XY=             -3.4486   XZ=              0.0000   YZ=             -0.0000

 CCSD(T)=-152.6688691\RMSD=7.085e-09\PG=CS [SG(H4O2)]\\@
 Normal termination of Gaussian 16 at Fri Aug 26 22:50:35 2022.
