 Gaussian 16, Revision A.03,
 Gaussian 16:  ES64L-G16RevA.03 25-Dec-2016

 ------------------
 #p CCSD(T)/cc-pVTZ
 ------------------

 ------------
 H2O_H2O_1620
 ------------
 Symbolic Z-matrix:
 Charge =  0 Multiplicity = 1

                         Standard orientation:
 ---------------------------------------------------------------------
 Center     Atomic      Atomic             Coordinates (Angstroms)
 Number     Number       Type             X           Y           Z
 ---------------------------------------------------------------------
      1          8           0        0.026736    1.747026   -0.000000
      2          1           0        0.023348    0.764431   -0.000000
      3          1           0       -0.901652    2.068896   -0.000000
      4          8           0        0.026736   -1.573850    0.000000
      5          1           0        0.974974   -1.831437    0.000000
      6          1           0       -0.524451   -2.387298    0.000000
 ---------------------------------------------------------------------

 SCF Done:  E(RHF) =  -152.113466998     A.U. after   10 cycles
 E2 =    -0.5268661890D+00 EUMP2 =    -0.15264033318747D+03
 CCSD(T)
 CCSD(T)= -0.15266735293D+03

 The electronic state is 1-A'.
 Alpha  occ. eigenvalues --  -20.57755 -20.53259  -1.35038  -1.30673  -0.72431
 Alpha  occ. eigenvalues --   -0.68216  -0.58839  -0.54058  -0.52169  -0.47831
 Alpha virt. eigenvalues --    0.12172   0.17507   0.19027   0.28284   0.50995
 Alpha virt. eigenvalues --    0.54286   0.55995   0.59917   0.68963   0.73000
 Alpha virt. eigenvalues --    0.74761   0.77275   0.81230   0.83108   0.84483

 Mulliken charges:
               1
     1  O   -0.540188
     2  H    0.273685
     3  H    0.250848
     4  O   -0.506203
     5  H    0.263817
     6  H    0.258041
 Sum of Mulliken charges =  -0.00000

 Dipole moment (field-independent basis, Debye):
    X=             -0.9033    Y=             -3.3563    Z=              0.0000  Tot=              3.4757
 Quadrupole moment (field-independent basis, Debye-Ang):
   XX=             -9.2891   YY=             -8.2682   ZZ=            -14.7331
   XY=             -4.2571   XZ=              0.0000   YZ=              0.0000

 Normal termination of Gaussian 16 at Sat Aug 27 23:57:23 2022.
