 Gaussian 16, Revision A.03,
 Gaussian 16:  ES64L-G16RevA.03 25-Dec-2016

 ------------------
 #p CCSD(T)/cc-pVTZ
 ------------------

 -----------
 H2O_H2O_293
 -----------
 Symbolic Z-matrix:
 Charge =  0 Multiplicity = 1

                         Standard orientation:
 ---------------------------------------------------------------------
 Center     Atomic      Atomic             Coordinates (Angstroms)
 Number     Number       Type             X           Y           Z
 ---------------------------------------------------------------------
      1          8           0        0.033991    1.220798    0.000000
      2          1           0        0.029555    0.238207    0.000000
      3          1           0       -0.894055    1.543656    0.000000
      4          8           0        0.033991   -1.043428   -0.000000
      5          1           0        0.940090   -1.423547   -0.000000
      6          1           0       -0.619439   -1.777278   -0.000000
 ---------------------------------------------------------------------

 SCF Done:  E(RHF) =  -152.081405120     A.U. after   11 cycles
 E2 =    -0.5335497752D+00 EUMP2 =    -0.15261495489482D+03
 CCSD(T)
 CCSD(T)= -0.15264095420D+03

 The electronic state is 1-A'.
 Alpha  occ. eigenvalues --  -20.61014 -20.46746  -1.40626  -1.25958  -0.77222
 Alpha  occ. eigenvalues --   -0.73517  -0.57083  -0.56677  -0.47143  -0.42742
 Alpha virt. eigenvalues --    0.10941   0.17319   0.20330   0.33743   0.46932
 Alpha virt. eigenvalues --    0.52895   0.61158   0.67507   0.69917   0.71876
 Alpha virt. eigenvalues --    0.77568   0.78892   0.79621   0.83141   0.84102

 Mulliken charges:
               1
     1  O   -0.644739
     2  H    0.302424
     3  H    0.222511
     4  O   -0.382531
     5  H    0.260851
     6  H    0.241484
 Sum of Mulliken charges =  -0.00000

 Dipole moment (field-independent basis, Debye):
    X=             -1.0639    Y=             -4.5926    Z=             -0.0000  Tot=              4.7142
 Quadrupole moment (field-independent basis, Debye-Ang):
   XX=             -9.1301   YY=             -9.7828   ZZ=            -14.6266
   XY=             -2.9100   XZ=             -0.0000   YZ=              0.0000

 Normal termination of Gaussian 16 at Fri Aug 26 17:13:30 2022.
