 Gaussian 16, Revision A.03,
 Gaussian 16:  ES64L-G16RevA.03 25-Dec-2016

 ------------------
 #p CCSD(T)/cc-pVTZ
 ------------------

 ------------
 H2O_H2O_1193
 ------------
 Symbolic Z-matrix:
 Charge =  0 Multiplicity = 1

                         Standard orientation:
 ---------------------------------------------------------------------
 Center     Atomic      Atomic             Coordinates (Angstroms)
 Number     Number       Type             X           Y           Z
 ---------------------------------------------------------------------
      1          8           0        0.033894    1.579822    0.000000
      2          1           0        0.030527    0.597226    0.000000
      3          1           0       -0.894501    1.901672    0.000000
      4          8           0        0.033894   -1.402378    0.000000
      5          1           0        0.940406   -1.781512    0.000000
      6          1           0       -0.618739   -2.136937    0.000000
 ---------------------------------------------------------------------

 SCF Done:  E(RHF) =  -152.114145705     A.U. after   10 cycles
 E2 =    -0.5278922257D+00 EUMP2 =    -0.15264203793025D+03
 CCSD(T)
 CCSD(T)= -0.15266895713D+03

 The electronic state is 1-A'.
 Alpha  occ. eigenvalues --  -20.58436 -20.52205  -1.35826  -1.29777  -0.73136
 Alpha  occ. eigenvalues --   -0.67902  -0.59581  -0.52943  -0.52923  -0.46915
 Alpha virt. eigenvalues --    0.12000   0.18185   0.18729   0.30928   0.49253
 Alpha virt. eigenvalues --    0.54632   0.55905   0.61340   0.68565   0.72219
 Alpha virt. eigenvalues --    0.73192   0.77195   0.82161   0.82626   0.84772

 Mulliken charges:
               1
     1  O   -0.558547
     2  H    0.288080
     3  H    0.246087
     4  O   -0.498093
     5  H    0.265969
     6  H    0.256505
 Sum of Mulliken charges =  -0.00000

 Dipole moment (field-independent basis, Debye):
    X=             -1.1297    Y=             -3.6235    Z=              0.0000  Tot=              3.7956
 Quadrupole moment (field-independent basis, Debye-Ang):
   XX=             -9.1825   YY=             -8.5790   ZZ=            -14.7321
   XY=             -3.7292   XZ=              0.0000   YZ=              0.0000

 CCSD(T)=-152.6689571\RMSD=6.738e-09\PG=CS [SG(H4O2)]\\@
 Normal termination of Gaussian 16 at Fri Aug 26 23:02:13 2022.
