 Gaussian 16, Revision A.03,
 Gaussian 16:  ES64L-G16RevA.03 25-Dec-2016

 ------------------
 #p CCSD(T)/cc-pVTZ
 ------------------

 ------------
 H2O_H2O_1085
 ------------
 Symbolic Z-matrix:
 Charge =  0 Multiplicity = 1

                         Standard orientation:
 ---------------------------------------------------------------------
 Center     Atomic      Atomic             Coordinates (Angstroms)
 Number     Number       Type             X           Y           Z
 ---------------------------------------------------------------------
      1          8           0        0.063292    1.538832    0.000000
      2          1           0        0.061554    0.556232    0.000000
      3          1           0       -0.865636    1.859142    0.000000
      4          8           0        0.063292   -1.363405   -0.000000
      5          1           0        0.660081   -2.144012   -0.000000
      6          1           0       -0.868669   -1.674781   -0.000000
 ---------------------------------------------------------------------

 SCF Done:  E(RHF) =  -152.112911666     A.U. after   10 cycles
 E2 =    -0.5284426225D+00 EUMP2 =    -0.15264135428879D+03
 CCSD(T)
 CCSD(T)= -0.15266824371D+03

 The electronic state is 1-A'.
 Alpha  occ. eigenvalues --  -20.58657 -20.52093  -1.36111  -1.29704  -0.73437
 Alpha  occ. eigenvalues --   -0.68061  -0.59614  -0.53172  -0.52811  -0.46813
 Alpha virt. eigenvalues --    0.11755   0.17447   0.19337   0.31301   0.48427
 Alpha virt. eigenvalues --    0.54723   0.57825   0.59586   0.69818   0.72707
 Alpha virt. eigenvalues --    0.72885   0.76843   0.82190   0.82426   0.84606

 Mulliken charges:
               1
     1  O   -0.556574
     2  H    0.293139
     3  H    0.237513
     4  O   -0.487080
     5  H    0.258660
     6  H    0.254342
 Sum of Mulliken charges =  -0.00000

 Dipole moment (field-independent basis, Debye):
    X=             -2.0921    Y=             -3.6368    Z=             -0.0000  Tot=              4.1956
 Quadrupole moment (field-independent basis, Debye-Ang):
   XX=             -9.4732   YY=             -8.6852   ZZ=            -14.7247
   XY=             -3.2344   XZ=             -0.0000   YZ=             -0.0000

 CCSD(T)=-152.6682437\RMSD=7.441e-09\PG=CS [SG(H4O2)]\\@
 Normal termination of Gaussian 16 at Fri Aug 26 22:22:09 2022.
