 Gaussian 16, Revision A.03,
 Gaussian 16:  ES64L-G16RevA.03 25-Dec-2016

 ------------------
 #p CCSD(T)/cc-pVTZ
 ------------------

 ------------
 H2O_H2O_4239
 ------------
 Symbolic Z-matrix:
 Charge =  0 Multiplicity = 1

                         Standard orientation:
 ---------------------------------------------------------------------
 Center     Atomic      Atomic             Coordinates (Angstroms)
 Number     Number       Type             X           Y           Z
 ---------------------------------------------------------------------
      1          8           0        0.048558    2.798001    0.000000
      2          1           0        0.047167    1.815401    0.000000
      3          1           0       -0.880483    3.117983    0.000000
      4          8           0        0.048558   -2.617586   -0.000000
      5          1           0        0.827261   -3.216858   -0.000000
      6          1           0       -0.770865   -3.159850   -0.000000
 ---------------------------------------------------------------------

 SCF Done:  E(RHF) =  -152.108564986     A.U. after   10 cycles
 E2 =    -0.5258134557D+00 EUMP2 =    -0.15263437844184D+03
 CCSD(T)
 CCSD(T)= -0.15266157029D+03

 The electronic state is 1-A'.
 Alpha  occ. eigenvalues --  -20.56237 -20.54879  -1.33537  -1.32188  -0.70941
 Alpha  occ. eigenvalues --   -0.69588  -0.57036  -0.55661  -0.50657  -0.49312
 Alpha virt. eigenvalues --    0.13228   0.15062   0.19672   0.21166   0.53611
 Alpha virt. eigenvalues --    0.54876   0.56624   0.57812   0.66717   0.68941
 Alpha virt. eigenvalues --    0.78233   0.79540   0.79626   0.79819   0.82805

 Mulliken charges:
               1
     1  O   -0.514427
     2  H    0.261089
     3  H    0.253076
     4  O   -0.515107
     5  H    0.258706
     6  H    0.256663
 Sum of Mulliken charges =  -0.00000

 Dipole moment (field-independent basis, Debye):
    X=             -1.6641    Y=             -3.1754    Z=             -0.0000  Tot=              3.5850
 Quadrupole moment (field-independent basis, Debye-Ang):
   XX=             -9.1821   YY=             -6.3868   ZZ=            -14.7153
   XY=             -5.4077   XZ=             -0.0000   YZ=             -0.0000

 Normal termination of Gaussian 16 at Sun Aug 28 01:03:59 2022.
