 Gaussian 16, Revision A.03,
 Gaussian 16:  ES64L-G16RevA.03 25-Dec-2016

 ------------------
 #p CCSD(T)/cc-pVTZ
 ------------------

 -----------
 H2O_H2O_962
 -----------
 Symbolic Z-matrix:
 Charge =  0 Multiplicity = 1

                         Standard orientation:
 ---------------------------------------------------------------------
 Center     Atomic      Atomic             Coordinates (Angstroms)
 Number     Number       Type             X           Y           Z
 ---------------------------------------------------------------------
      1          8           0        0.056067    1.490813   -0.000000
      2          1           0        0.053829    0.508214   -0.000000
      3          1           0       -0.872697    1.811596   -0.000000
      4          8           0        0.056067   -1.312002    0.000000
      5          1           0        0.749287   -2.008387    0.000000
      6          1           0       -0.827497   -1.741910    0.000000
 ---------------------------------------------------------------------

 SCF Done:  E(RHF) =  -152.112643935     A.U. after   10 cycles
 E2 =    -0.5288925564D+00 EUMP2 =    -0.15264153649162D+03
 CCSD(T)
 CCSD(T)= -0.15266835591D+03

 The electronic state is 1-A'.
 Alpha  occ. eigenvalues --  -20.58934 -20.51479  -1.36479  -1.29206  -0.73680
 Alpha  occ. eigenvalues --   -0.68246  -0.59696  -0.53512  -0.52176  -0.46302
 Alpha virt. eigenvalues --    0.11723   0.17720   0.19238   0.32088   0.48232
 Alpha virt. eigenvalues --    0.54579   0.57916   0.60333   0.69850   0.71889
 Alpha virt. eigenvalues --    0.72661   0.77339   0.82201   0.82702   0.84709

 Mulliken charges:
               1
     1  O   -0.568387
     2  H    0.300133
     3  H    0.236793
     4  O   -0.486647
     5  H    0.262438
     6  H    0.255670
 Sum of Mulliken charges =  -0.00000

 Dipole moment (field-independent basis, Debye):
    X=             -1.8442    Y=             -3.7952    Z=              0.0000  Tot=              4.2196
 Quadrupole moment (field-independent basis, Debye-Ang):
   XX=             -9.2928   YY=             -8.8090   ZZ=            -14.7218
   XY=             -3.2798   XZ=              0.0000   YZ=              0.0000

 Normal termination of Gaussian 16 at Fri Aug 26 21:36:01 2022.
