 Gaussian 16, Revision A.03,
 Gaussian 16:  ES64L-G16RevA.03 25-Dec-2016

 ------------------
 #p CCSD(T)/cc-pVTZ
 ------------------

 ------------
 H2O_H2O_2532
 ------------
 Symbolic Z-matrix:
 Charge =  0 Multiplicity = 1

                         Standard orientation:
 ---------------------------------------------------------------------
 Center     Atomic      Atomic             Coordinates (Angstroms)
 Number     Number       Type             X           Y           Z
 ---------------------------------------------------------------------
      1          8           0        0.073543    2.112583    0.000000
      2          1           0        0.072731    1.129982    0.000000
      3          1           0       -0.855686    2.432018    0.000000
      4          8           0        0.073543   -1.945655   -0.000000
      5          1           0        0.507409   -2.827282   -0.000000
      6          1           0       -0.901140   -2.070150   -0.000000
 ---------------------------------------------------------------------

 SCF Done:  E(RHF) =  -152.109978925     A.U. after   10 cycles
 E2 =    -0.5261638243D+00 EUMP2 =    -0.15263614274950D+03
 CCSD(T)
 CCSD(T)= -0.15266326789D+03

 The electronic state is 1-A'.
 Alpha  occ. eigenvalues --  -20.56921 -20.54417  -1.34194  -1.31739  -0.71610
 Alpha  occ. eigenvalues --   -0.69119  -0.57740  -0.55208  -0.51318  -0.48870
 Alpha virt. eigenvalues --    0.12054   0.16174   0.19448   0.23864   0.53335
 Alpha virt. eigenvalues --    0.55575   0.56154   0.58585   0.68819   0.70451
 Alpha virt. eigenvalues --    0.77410   0.79064   0.79999   0.80829   0.83244

 Mulliken charges:
               1
     1  O   -0.518541
     2  H    0.265274
     3  H    0.248279
     4  O   -0.508567
     5  H    0.259730
     6  H    0.253825
 Sum of Mulliken charges =  -0.00000

 Dipole moment (field-independent basis, Debye):
    X=             -2.4978    Y=             -3.0515    Z=             -0.0000  Tot=              3.9434
 Quadrupole moment (field-independent basis, Debye-Ang):
   XX=             -9.8220   YY=             -7.9035   ZZ=            -14.7196
   XY=             -3.4194   XZ=             -0.0000   YZ=              0.0000

 Normal termination of Gaussian 16 at Fri Aug 26 15:24:43 2022.
