 Gaussian 16, Revision A.03,
 Gaussian 16:  ES64L-G16RevA.03 25-Dec-2016

 ------------------
 #p CCSD(T)/cc-pVTZ
 ------------------

 ----------
 H2O_H2O_74
 ----------
 Symbolic Z-matrix:
 Charge =  0 Multiplicity = 1

                         Standard orientation:
 ---------------------------------------------------------------------
 Center     Atomic      Atomic             Coordinates (Angstroms)
 Number     Number       Type             X           Y           Z
 ---------------------------------------------------------------------
      1          8           0       -0.013802   -1.121170   -0.000000
      2          1           0       -0.007332   -0.138590   -0.000000
      3          1           0        0.913572   -1.445950   -0.000000
      4          8           0       -0.013802    0.962005    0.000000
      5          1           0       -0.996382    0.968476    0.000000
      6          1           0        0.310979    1.889380    0.000000
 ---------------------------------------------------------------------

 SCF Done:  E(RHF) =  -152.034759341     A.U. after   11 cycles
 E2 =    -0.5367376851D+00 EUMP2 =    -0.15257149702593D+03
 CCSD(T)
 CCSD(T)= -0.15259697869D+03

 The electronic state is 1-A'.
 Alpha  occ. eigenvalues --  -20.61713 -20.44961  -1.44028  -1.24989  -0.82725
 Alpha  occ. eigenvalues --   -0.72827  -0.58392  -0.56174  -0.44997  -0.41658
 Alpha virt. eigenvalues --    0.10749   0.17058   0.20800   0.33515   0.47894
 Alpha virt. eigenvalues --    0.51348   0.60088   0.69446   0.70730   0.72187
 Alpha virt. eigenvalues --    0.76327   0.76431   0.80437   0.85802   0.87054

 Mulliken charges:
               1
     1  O   -0.679331
     2  H    0.266255
     3  H    0.225829
     4  O   -0.308422
     5  H    0.267673
     6  H    0.227995
 Sum of Mulliken charges =  -0.00000

 Dipole moment (field-independent basis, Debye):
    X=              0.4078    Y=              4.5960    Z=              0.0000  Tot=              4.6140
 Quadrupole moment (field-independent basis, Debye-Ang):
   XX=             -9.4913   YY=            -10.0749   ZZ=            -14.5371
   XY=             -2.9056   XZ=             -0.0000   YZ=             -0.0000

 Normal termination of Gaussian 16 at Fri Aug 26 15:41:07 2022.
