 Gaussian 16, Revision A.03,
 Gaussian 16:  ES64L-G16RevA.03 25-Dec-2016

 ------------------
 #p CCSD(T)/cc-pVTZ
 ------------------

 ------------
 H2O_H2O_3839
 ------------
 Symbolic Z-matrix:
 Charge =  0 Multiplicity = 1

                         Standard orientation:
 ---------------------------------------------------------------------
 Center     Atomic      Atomic             Coordinates (Angstroms)
 Number     Number       Type             X           Y           Z
 ---------------------------------------------------------------------
      1          8           0        0.048566    2.638446   -0.000000
      2          1           0        0.047088    1.655846   -0.000000
      3          1           0       -0.880447    2.958510   -0.000000
      4          8           0        0.048566   -2.458039    0.000000
      5          1           0        0.827215   -3.057381    0.000000
      6          1           0       -0.770906   -3.000232    0.000000
 ---------------------------------------------------------------------

 SCF Done:  E(RHF) =  -152.108858872     A.U. after   10 cycles
 E2 =    -0.5258310385D+00 EUMP2 =    -0.15263468991067D+03
 CCSD(T)
 CCSD(T)= -0.15266187040D+03

 The electronic state is 1-A'.
 Alpha  occ. eigenvalues --  -20.56336 -20.54766  -1.33631  -1.32078  -0.71034
 Alpha  occ. eigenvalues --   -0.69476  -0.57140  -0.55555  -0.50753  -0.49205
 Alpha virt. eigenvalues --    0.12982   0.15297   0.19617   0.21440   0.53518
 Alpha virt. eigenvalues --    0.54946   0.56554   0.57869   0.66715   0.69195
 Alpha virt. eigenvalues --    0.78144   0.79361   0.79553   0.79640   0.82935

 Mulliken charges:
               1
     1  O   -0.515462
     2  H    0.262055
     3  H    0.252740
     4  O   -0.515578
     5  H    0.259298
     6  H    0.256947
 Sum of Mulliken charges =  -0.00000

 Dipole moment (field-independent basis, Debye):
    X=             -1.6621    Y=             -3.1920    Z=             -0.0000  Tot=              3.5988
 Quadrupole moment (field-independent basis, Debye-Ang):
   XX=             -9.1822   YY=             -6.6450   ZZ=            -14.7164
   XY=             -5.1625   XZ=              0.0000   YZ=             -0.0000

 CCSD(T)=-152.6618704\RMSD=7.071e-09\PG=CS [SG(H4O2)]\\@
 Normal termination of Gaussian 16 at Fri Aug 26 23:58:46 2022.
