 Gaussian 16, Revision A.03,
 Gaussian 16:  ES64L-G16RevA.03 25-Dec-2016

 ------------------
 #p CCSD(T)/cc-pVTZ
 ------------------

 ------------
 H2O_H2O_3903
 ------------
 Symbolic Z-matrix:
 Charge =  0 Multiplicity = 1

                         Standard orientation:
 ---------------------------------------------------------------------
 Center     Atomic      Atomic             Coordinates (Angstroms)
 Number     Number       Type             X           Y           Z
 ---------------------------------------------------------------------
      1          8           0        0.085598   -2.651626    0.000000
      2          1           0        0.085356   -1.669025    0.000000
      3          1           0       -0.843816   -2.970522    0.000000
      4          8           0        0.085598    2.502024    0.000000
      5          1           0        0.277057    3.465793    0.000000
      6          1           0       -0.888171    2.370576    0.000000
 ---------------------------------------------------------------------

 SCF Done:  E(RHF) =  -152.108036823     A.U. after   10 cycles
 E2 =    -0.5258899672D+00 EUMP2 =    -0.15263392678991D+03
 CCSD(T)
 CCSD(T)= -0.15266112697D+03

 The electronic state is 1-A'.
 Alpha  occ. eigenvalues --  -20.56334 -20.55119  -1.33633  -1.32423  -0.71049
 Alpha  occ. eigenvalues --   -0.69816  -0.57106  -0.55881  -0.50746  -0.49539
 Alpha virt. eigenvalues --    0.12460   0.15096   0.19128   0.21863   0.53169
 Alpha virt. eigenvalues --    0.55009   0.56493   0.57899   0.66737   0.68892
 Alpha virt. eigenvalues --    0.78152   0.78995   0.79325   0.81117   0.82526

 Mulliken charges:
               1
     1  O   -0.511058
     2  H    0.259266
     3  H    0.251425
     4  O   -0.511946
     5  H    0.259289
     6  H    0.253024
 Sum of Mulliken charges =  -0.00000

 Dipole moment (field-independent basis, Debye):
    X=             -2.9294    Y=              2.6419    Z=              0.0000  Tot=              3.9448
 Quadrupole moment (field-independent basis, Debye-Ang):
   XX=            -10.3999   YY=             -8.2461   ZZ=            -14.7132
   XY=              2.8785   XZ=              0.0000   YZ=              0.0000

 Normal termination of Gaussian 16 at Sat Aug 27 00:22:42 2022.
