 Gaussian 16, Revision A.03,
 Gaussian 16:  ES64L-G16RevA.03 25-Dec-2016

 ------------------
 #p CCSD(T)/cc-pVTZ
 ------------------

 ------------
 H2O_H2O_2427
 ------------
 Symbolic Z-matrix:
 Charge =  0 Multiplicity = 1

                         Standard orientation:
 ---------------------------------------------------------------------
 Center     Atomic      Atomic             Coordinates (Angstroms)
 Number     Number       Type             X           Y           Z
 ---------------------------------------------------------------------
      1          8           0        0.088233   -2.060411    0.000000
      2          1           0        0.088032   -1.077810    0.000000
      3          1           0       -0.841194   -2.379268    0.000000
      4          8           0        0.088233    1.916096    0.000000
      5          1           0        0.216290    2.890317    0.000000
      6          1           0       -0.874863    1.721281    0.000000
 ---------------------------------------------------------------------

 SCF Done:  E(RHF) =  -152.109029605     A.U. after   10 cycles
 E2 =    -0.5263095455D+00 EUMP2 =    -0.15263533915073D+03
 CCSD(T)
 CCSD(T)= -0.15266248327D+03

 The electronic state is 1-A'.
 Alpha  occ. eigenvalues --  -20.56976 -20.54795  -1.34262  -1.32104  -0.71716
 Alpha  occ. eigenvalues --   -0.69466  -0.57762  -0.55553  -0.51371  -0.49222
 Alpha virt. eigenvalues --    0.11618   0.15980   0.19748   0.24190   0.53430
 Alpha virt. eigenvalues --    0.55645   0.56520   0.57856   0.68515   0.71270
 Alpha virt. eigenvalues --    0.77225   0.79340   0.79718   0.80253   0.83260

 Mulliken charges:
               1
     1  O   -0.514504
     2  H    0.263676
     3  H    0.247016
     4  O   -0.504806
     5  H    0.259191
     6  H    0.249427
 Sum of Mulliken charges =  -0.00000

 Dipole moment (field-independent basis, Debye):
    X=             -2.9906    Y=              2.6412    Z=              0.0000  Tot=              3.9900
 Quadrupole moment (field-independent basis, Debye-Ang):
   XX=            -10.5732   YY=             -8.7259   ZZ=            -14.7157
   XY=              2.5345   XZ=              0.0000   YZ=              0.0000

 Normal termination of Gaussian 16 at Sun Aug 28 07:13:30 2022.
