 Gaussian 16, Revision A.03,
 Gaussian 16:  ES64L-G16RevA.03 25-Dec-2016

 ------------------
 #p CCSD(T)/cc-pVTZ
 ------------------

 -----------
 H2O_H2O_300
 -----------
 Symbolic Z-matrix:
 Charge =  0 Multiplicity = 1

                         Standard orientation:
 ---------------------------------------------------------------------
 Center     Atomic      Atomic             Coordinates (Angstroms)
 Number     Number       Type             X           Y           Z
 ---------------------------------------------------------------------
      1          8           0        0.092949   -1.206535    0.000000
      2          1           0        0.092949   -0.223933    0.000000
      3          1           0       -0.836544   -1.525201    0.000000
      4          8           0        0.092949    1.073748    0.000000
      5          1           0        0.092949    2.056349    0.000000
      6          1           0       -0.836544    0.755080    0.000000
 ---------------------------------------------------------------------

 SCF Done:  E(RHF) =  -152.066352338     A.U. after   11 cycles
 E2 =    -0.5362484208D+00 EUMP2 =    -0.15260260075851D+03
 CCSD(T)
 CCSD(T)= -0.15262872887D+03

 The electronic state is 1-A'.
 Alpha  occ. eigenvalues --  -20.60658 -20.49919  -1.41024  -1.28463  -0.80875
 Alpha  occ. eigenvalues --   -0.68490  -0.58706  -0.56309  -0.50695  -0.45369
 Alpha virt. eigenvalues --    0.11060   0.16156   0.21527   0.32080   0.48948
 Alpha virt. eigenvalues --    0.51029   0.59359   0.66990   0.71210   0.72562
 Alpha virt. eigenvalues --    0.75550   0.75987   0.79238   0.82502   0.84637

 Mulliken charges:
               1
     1  O   -0.572438
     2  H    0.270159
     3  H    0.201043
     4  O   -0.357148
     5  H    0.227019
     6  H    0.231366
 Sum of Mulliken charges =  -0.00000

 Dipole moment (field-independent basis, Debye):
    X=             -2.9492    Y=              3.5207    Z=              0.0000  Tot=              4.5927
 Quadrupole moment (field-independent basis, Debye-Ang):
   XX=            -10.8425   YY=             -9.7137   ZZ=            -14.5771
   XY=              1.9590   XZ=              0.0000   YZ=              0.0000

 Normal termination of Gaussian 16 at Fri Aug 26 17:16:24 2022.
