 Gaussian 16, Revision A.03,
 Gaussian 16:  ES64L-G16RevA.03 25-Dec-2016

 ------------------
 #p CCSD(T)/cc-pVTZ
 ------------------

 ------------
 H2O_H2O_2317
 ------------
 Symbolic Z-matrix:
 Charge =  0 Multiplicity = 1

                         Standard orientation:
 ---------------------------------------------------------------------
 Center     Atomic      Atomic             Coordinates (Angstroms)
 Number     Number       Type             X           Y           Z
 ---------------------------------------------------------------------
      1          8           0        0.037478    2.029365   -0.000000
      2          1           0        0.035049    1.046767   -0.000000
      3          1           0       -0.891225    2.350328   -0.000000
      4          8           0        0.037478   -1.850427    0.000000
      5          1           0        0.917669   -2.287198    0.000000
      6          1           0       -0.661140   -2.541397    0.000000
 ---------------------------------------------------------------------

 SCF Done:  E(RHF) =  -152.111490556     A.U. after   10 cycles
 E2 =    -0.5261715553D+00 EUMP2 =    -0.15263766211085D+03
 CCSD(T)
 CCSD(T)= -0.15266475298D+03

 The electronic state is 1-A'.
 Alpha  occ. eigenvalues --  -20.57075 -20.53982  -1.34332  -1.31323  -0.71723
 Alpha  occ. eigenvalues --   -0.68730  -0.57963  -0.54806  -0.51471  -0.48472
 Alpha virt. eigenvalues --    0.12314   0.16666   0.19252   0.24880   0.52516
 Alpha virt. eigenvalues --    0.55359   0.56445   0.58874   0.69048   0.71538
 Alpha virt. eigenvalues --    0.77057   0.78377   0.80391   0.82340   0.83625

 Mulliken charges:
               1
     1  O   -0.526224
     2  H    0.267364
     3  H    0.251101
     4  O   -0.510524
     5  H    0.260915
     6  H    0.257368
 Sum of Mulliken charges =  -0.00000

 Dipole moment (field-independent basis, Debye):
    X=             -1.2723    Y=             -3.3087    Z=              0.0000  Tot=              3.5449
 Quadrupole moment (field-independent basis, Debye-Ang):
   XX=             -9.1597   YY=             -7.6749   ZZ=            -14.7253
   XY=             -4.5539   XZ=              0.0000   YZ=             -0.0000

 Normal termination of Gaussian 16 at Sun Aug 28 06:16:35 2022.
