 Gaussian 16, Revision A.03,
 Gaussian 16:  ES64L-G16RevA.03 25-Dec-2016

 ------------------
 #p CCSD(T)/cc-pVTZ
 ------------------

 -----------
 H2O_H2O_622
 -----------
 Symbolic Z-matrix:
 Charge =  0 Multiplicity = 1

                         Standard orientation:
 ---------------------------------------------------------------------
 Center     Atomic      Atomic             Coordinates (Angstroms)
 Number     Number       Type             X           Y           Z
 ---------------------------------------------------------------------
      1          8           0       -0.020046    1.344810    0.000000
      2          1           0       -0.015129    0.362220    0.000000
      3          1           0        0.907841    1.668123    0.000000
      4          8           0       -0.020046   -1.177794    0.000000
      5          1           0       -0.993588   -1.310923    0.000000
      6          1           0        0.421615   -2.055542    0.000000
 ---------------------------------------------------------------------

 SCF Done:  E(RHF) =  -152.104145214     A.U. after   10 cycles
 E2 =    -0.5309159916D+00 EUMP2 =    -0.15263506120530D+03
 CCSD(T)
 CCSD(T)= -0.15266159382D+03

 The electronic state is 1-A'.
 Alpha  occ. eigenvalues --  -20.59723 -20.49968  -1.37963  -1.28150  -0.75626
 Alpha  occ. eigenvalues --   -0.68952  -0.59616  -0.54679  -0.50499  -0.45176
 Alpha virt. eigenvalues --    0.11622   0.18140   0.19335   0.33739   0.47835
 Alpha virt. eigenvalues --    0.53760   0.57995   0.67827   0.68306   0.72207
 Alpha virt. eigenvalues --    0.74007   0.76849   0.79881   0.83909   0.83949

 Mulliken charges:
               1
     1  O   -0.605727
     2  H    0.299666
     3  H    0.242021
     4  O   -0.433490
     5  H    0.259915
     6  H    0.237616
 Sum of Mulliken charges =  -0.00000

 Dipole moment (field-independent basis, Debye):
    X=              0.6584    Y=             -3.8812    Z=              0.0000  Tot=              3.9367
 Quadrupole moment (field-independent basis, Debye-Ang):
   XX=             -9.4092   YY=             -9.2365   ZZ=            -14.6820
   XY=              3.4104   XZ=              0.0000   YZ=              0.0000

 Normal termination of Gaussian 16 at Fri Aug 26 19:27:34 2022.
