 Gaussian 16, Revision A.03,
 Gaussian 16:  ES64L-G16RevA.03 25-Dec-2016

 ------------------
 #p CCSD(T)/cc-pVTZ
 ------------------

 ------------
 H2O_H2O_3883
 ------------
 Symbolic Z-matrix:
 Charge =  0 Multiplicity = 1

                         Standard orientation:
 ---------------------------------------------------------------------
 Center     Atomic      Atomic             Coordinates (Angstroms)
 Number     Number       Type             X           Y           Z
 ---------------------------------------------------------------------
      1          8           0        0.070190    2.652876   -0.000000
      2          1           0        0.069438    1.670275   -0.000000
      3          1           0       -0.859059    2.972253    0.000000
      4          8           0        0.070190   -2.482617   -0.000000
      5          1           0        0.560839   -3.333950   -0.000000
      6          1           0       -0.894252   -2.670651    0.000000
 ---------------------------------------------------------------------

 SCF Done:  E(RHF) =  -152.108492807     A.U. after   10 cycles
 E2 =    -0.5258568086D+00 EUMP2 =    -0.15263434961535D+03
 CCSD(T)
 CCSD(T)= -0.15266153858D+03

 The electronic state is 1-A'.
 Alpha  occ. eigenvalues --  -20.56331 -20.54897  -1.33628  -1.32206  -0.71037
 Alpha  occ. eigenvalues --   -0.69600  -0.57121  -0.55674  -0.50746  -0.49328
 Alpha virt. eigenvalues --    0.12832   0.15195   0.19474   0.21471   0.53346
 Alpha virt. eigenvalues --    0.55002   0.56521   0.57893   0.66706   0.69087
 Alpha virt. eigenvalues --    0.78151   0.78973   0.79525   0.80325   0.82793

 Mulliken charges:
               1
     1  O   -0.513409
     2  H    0.261054
     3  H    0.251824
     4  O   -0.514009
     5  H    0.259478
     6  H    0.255063
 Sum of Mulliken charges =  -0.00000

 Dipole moment (field-independent basis, Debye):
    X=             -2.4022    Y=             -3.0096    Z=              0.0000  Tot=              3.8508
 Quadrupole moment (field-independent basis, Debye-Ang):
   XX=             -9.6807   YY=             -7.1240   ZZ=            -14.7150
   XY=             -4.0001   XZ=             -0.0000   YZ=              0.0000

 Normal termination of Gaussian 16 at Sat Aug 27 00:15:58 2022.
