 Gaussian 16, Revision A.03,
 Gaussian 16:  ES64L-G16RevA.03 25-Dec-2016

 ------------------
 #p CCSD(T)/cc-pVTZ
 ------------------

 ------------
 H2O_H2O_4867
 ------------
 Symbolic Z-matrix:
 Charge =  0 Multiplicity = 1

                         Standard orientation:
 ---------------------------------------------------------------------
 Center     Atomic      Atomic             Coordinates (Angstroms)
 Number     Number       Type             X           Y           Z
 ---------------------------------------------------------------------
      1          8           0        0.037402    3.046532    0.000000
      2          1           0        0.035808    2.063932    0.000000
      3          1           0       -0.891573    3.366705    0.000000
      4          8           0        0.037402   -2.867531   -0.000000
      5          1           0        0.917964   -3.303553   -0.000000
      6          1           0       -0.660629   -3.559094   -0.000000
 ---------------------------------------------------------------------

 SCF Done:  E(RHF) =  -152.108306591     A.U. after   10 cycles
 E2 =    -0.5258026399D+00 EUMP2 =    -0.15263410923050D+03
 CCSD(T)
 CCSD(T)= -0.15266131049D+03

 The electronic state is 1-A'.
 Alpha  occ. eigenvalues --  -20.56124 -20.55021  -1.33426  -1.32327  -0.70830
 Alpha  occ. eigenvalues --   -0.69731  -0.56915  -0.55797  -0.50544  -0.49450
 Alpha virt. eigenvalues --    0.13513   0.14798   0.19733   0.20922   0.53711
 Alpha virt. eigenvalues --    0.54811   0.56716   0.57772   0.67026   0.68540
 Alpha virt. eigenvalues --    0.78339   0.79410   0.79736   0.80479   0.82286

 Mulliken charges:
               1
     1  O   -0.513551
     2  H    0.259640
     3  H    0.253866
     4  O   -0.514145
     5  H    0.257536
     6  H    0.256654
 Sum of Mulliken charges =  -0.00000

 Dipole moment (field-independent basis, Debye):
    X=             -1.2841    Y=             -3.1332    Z=             -0.0000  Tot=              3.3861
 Quadrupole moment (field-independent basis, Debye-Ang):
   XX=             -9.1598   YY=             -6.0609   ZZ=            -14.7145
   XY=             -6.5078   XZ=             -0.0000   YZ=              0.0000

 Normal termination of Gaussian 16 at Sun Aug 28 06:28:59 2022.
