 Gaussian 16, Revision A.03,
 Gaussian 16:  ES64L-G16RevA.03 25-Dec-2016

 ------------------
 #p CCSD(T)/cc-pVTZ
 ------------------

 ------------
 H2O_H2O_4597
 ------------
 Symbolic Z-matrix:
 Charge =  0 Multiplicity = 1

                         Standard orientation:
 ---------------------------------------------------------------------
 Center     Atomic      Atomic             Coordinates (Angstroms)
 Number     Number       Type             X           Y           Z
 ---------------------------------------------------------------------
      1          8           0       -0.019813    2.930394    0.000000
      2          1           0       -0.017635    1.947795    0.000000
      3          1           0        0.908971    3.251121    0.000000
      4          8           0       -0.019813   -2.763268    0.000000
      5          1           0       -0.993721   -2.893682    0.000000
      6          1           0        0.419400   -3.642242    0.000000
 ---------------------------------------------------------------------

 SCF Done:  E(RHF) =  -152.108408264     A.U. after   10 cycles
 E2 =    -0.5257987011D+00 EUMP2 =    -0.15263420696529D+03
 CCSD(T)
 CCSD(T)= -0.15266140563D+03

 The electronic state is 1-A'.
 Alpha  occ. eigenvalues --  -20.56163 -20.55050  -1.33466  -1.32358  -0.70871
 Alpha  occ. eigenvalues --   -0.69764  -0.56958  -0.55830  -0.50585  -0.49481
 Alpha virt. eigenvalues --    0.13322   0.14867   0.19530   0.21145   0.53527
 Alpha virt. eigenvalues --    0.54876   0.56684   0.57770   0.66892   0.68618
 Alpha virt. eigenvalues --    0.78300   0.79377   0.79568   0.80635   0.82375

 Mulliken charges:
               1
     1  O   -0.514187
     2  H    0.259465
     3  H    0.254635
     4  O   -0.514716
     5  H    0.257128
     6  H    0.257675
 Sum of Mulliken charges =   0.00000

 Dipole moment (field-independent basis, Debye):
    X=              0.6809    Y=             -2.9300    Z=              0.0000  Tot=              3.0081
 Quadrupole moment (field-independent basis, Debye-Ang):
   XX=             -9.4476   YY=             -6.9420   ZZ=            -14.7147
   XY=              7.4503   XZ=              0.0000   YZ=              0.0000

 Normal termination of Gaussian 16 at Sun Aug 28 04:13:37 2022.
