 Gaussian 16, Revision A.03,
 Gaussian 16:  ES64L-G16RevA.03 25-Dec-2016

 ------------------
 #p CCSD(T)/cc-pVTZ
 ------------------

 ------------
 H2O_H2O_4894
 ------------
 Symbolic Z-matrix:
 Charge =  0 Multiplicity = 1

                         Standard orientation:
 ---------------------------------------------------------------------
 Center     Atomic      Atomic             Coordinates (Angstroms)
 Number     Number       Type             X           Y           Z
 ---------------------------------------------------------------------
      1          8           0        0.030139    3.054680    0.000000
      2          1           0        0.028343    2.072080    0.000000
      3          1           0       -0.898770    3.375045    0.000000
      4          8           0        0.030139   -2.879039    0.000000
      5          1           0        0.960016   -3.196585    0.000000
      6          1           0       -0.571813   -3.655673    0.000000
 ---------------------------------------------------------------------

 SCF Done:  E(RHF) =  -152.108305713     A.U. after   10 cycles
 E2 =    -0.5258006824D+00 EUMP2 =    -0.15263410639502D+03
 CCSD(T)
 CCSD(T)= -0.15266130791D+03

 The electronic state is 1-A'.
 Alpha  occ. eigenvalues --  -20.56119 -20.55046  -1.33421  -1.32353  -0.70826
 Alpha  occ. eigenvalues --   -0.69757  -0.56910  -0.55823  -0.50540  -0.49475
 Alpha virt. eigenvalues --    0.13510   0.14779   0.19707   0.20926   0.53692
 Alpha virt. eigenvalues --    0.54804   0.56720   0.57758   0.67040   0.68506
 Alpha virt. eigenvalues --    0.78343   0.79384   0.79722   0.80559   0.82197

 Mulliken charges:
               1
     1  O   -0.513622
     2  H    0.259408
     3  H    0.254174
     4  O   -0.514163
     5  H    0.257278
     6  H    0.256924
 Sum of Mulliken charges =   0.00000

 Dipole moment (field-independent basis, Debye):
    X=             -1.0351    Y=             -3.0735    Z=              0.0000  Tot=              3.2431
 Quadrupole moment (field-independent basis, Debye-Ang):
   XX=             -9.2308   YY=             -6.2535   ZZ=            -14.7145
   XY=             -7.0108   XZ=              0.0000   YZ=              0.0000

 Normal termination of Gaussian 16 at Sun Aug 28 06:43:56 2022.
