 Gaussian 16, Revision A.03,
 Gaussian 16:  ES64L-G16RevA.03 25-Dec-2016

 ------------------
 #p CCSD(T)/cc-pVTZ
 ------------------

 ------------
 H2O_H2O_4229
 ------------
 Symbolic Z-matrix:
 Charge =  0 Multiplicity = 1

                         Standard orientation:
 ---------------------------------------------------------------------
 Center     Atomic      Atomic             Coordinates (Angstroms)
 Number     Number       Type             X           Y           Z
 ---------------------------------------------------------------------
      1          8           0        0.082799    2.783937    0.000000
      2          1           0        0.082481    1.801336    0.000000
      3          1           0       -0.846591    3.102904    0.000000
      4          8           0        0.082799   -2.629409    0.000000
      5          1           0        0.336808   -3.578611    0.000000
      6          1           0       -0.897478   -2.561853    0.000000
 ---------------------------------------------------------------------

 SCF Done:  E(RHF) =  -152.108004473     A.U. after   10 cycles
 E2 =    -0.5258619588D+00 EUMP2 =    -0.15263386643186D+03
 CCSD(T)
 CCSD(T)= -0.15266107055D+03

 The electronic state is 1-A'.
 Alpha  occ. eigenvalues --  -20.56255 -20.55128  -1.33556  -1.32432  -0.70968
 Alpha  occ. eigenvalues --   -0.69828  -0.57029  -0.55891  -0.50669  -0.49549
 Alpha virt. eigenvalues --    0.12839   0.14929   0.19229   0.21479   0.53252
 Alpha virt. eigenvalues --    0.54942   0.56548   0.57803   0.66773   0.68747
 Alpha virt. eigenvalues --    0.78224   0.79290   0.79316   0.80953   0.82445

 Mulliken charges:
               1
     1  O   -0.511244
     2  H    0.259130
     3  H    0.251930
     4  O   -0.512293
     5  H    0.258862
     6  H    0.253615
 Sum of Mulliken charges =  -0.00000

 Dipole moment (field-independent basis, Debye):
    X=             -2.8370    Y=             -2.7188    Z=             -0.0000  Tot=              3.9294
 Quadrupole moment (field-independent basis, Debye-Ang):
   XX=            -10.2453   YY=             -7.8747   ZZ=            -14.7132
   XY=             -3.1610   XZ=             -0.0000   YZ=             -0.0000

 Normal termination of Gaussian 16 at Sun Aug 28 00:58:01 2022.
