 Gaussian 16, Revision A.03,
 Gaussian 16:  ES64L-G16RevA.03 25-Dec-2016

 ------------------
 #p CCSD(T)/cc-pVTZ
 ------------------

 ------------
 H2O_H2O_3793
 ------------
 Symbolic Z-matrix:
 Charge =  0 Multiplicity = 1

                         Standard orientation:
 ---------------------------------------------------------------------
 Center     Atomic      Atomic             Coordinates (Angstroms)
 Number     Number       Type             X           Y           Z
 ---------------------------------------------------------------------
      1          8           0        0.033769    2.616947    0.000000
      2          1           0        0.031783    1.634347    0.000000
      3          1           0       -0.895078    2.937491   -0.000000
      4          8           0        0.033769   -2.439408    0.000000
      5          1           0        0.940813   -2.817267    0.000000
      6          1           0       -0.617829   -3.174884   -0.000000
 ---------------------------------------------------------------------

 SCF Done:  E(RHF) =  -152.108975339     A.U. after   10 cycles
 E2 =    -0.5258233677D+00 EUMP2 =    -0.15263479870628D+03
 CCSD(T)
 CCSD(T)= -0.15266197653D+03

 The electronic state is 1-A'.
 Alpha  occ. eigenvalues --  -20.56343 -20.54769  -1.33639  -1.32081  -0.71042
 Alpha  occ. eigenvalues --   -0.69483  -0.57152  -0.55562  -0.50762  -0.49210
 Alpha virt. eigenvalues --    0.12930   0.15338   0.19561   0.21550   0.53438
 Alpha virt. eigenvalues --    0.55040   0.56568   0.57879   0.66736   0.69202
 Alpha virt. eigenvalues --    0.78135   0.79074   0.79633   0.79904   0.82937

 Mulliken charges:
               1
     1  O   -0.516235
     2  H    0.261947
     3  H    0.253568
     4  O   -0.516078
     5  H    0.258876
     6  H    0.257922
 Sum of Mulliken charges =   0.00000

 Dipole moment (field-independent basis, Debye):
    X=             -1.1561    Y=             -3.1429    Z=             -0.0000  Tot=              3.3488
 Quadrupole moment (field-independent basis, Debye-Ang):
   XX=             -9.1862   YY=             -6.8056   ZZ=            -14.7168
   XY=             -5.8714   XZ=              0.0000   YZ=             -0.0000

 Normal termination of Gaussian 16 at Fri Aug 26 23:42:17 2022.
