 Gaussian 16, Revision A.03,
 Gaussian 16:  ES64L-G16RevA.03 25-Dec-2016

 ------------------
 #p CCSD(T)/cc-pVTZ
 ------------------

 -----------
 H2O_H2O_241
 -----------
 Symbolic Z-matrix:
 Charge =  0 Multiplicity = 1

                         Standard orientation:
 ---------------------------------------------------------------------
 Center     Atomic      Atomic             Coordinates (Angstroms)
 Number     Number       Type             X           Y           Z
 ---------------------------------------------------------------------
      1          8           0        0.041325    1.202148   -0.000000
      2          1           0        0.037371    0.219555   -0.000000
      3          1           0       -0.886879    1.524552   -0.000000
      4          8           0        0.041325   -1.022393    0.000000
      5          1           0        0.890299   -1.517113    0.000000
      6          1           0       -0.701987   -1.665038    0.000000
 ---------------------------------------------------------------------

 SCF Done:  E(RHF) =  -152.075158336     A.U. after   11 cycles
 E2 =    -0.5339957208D+00 EUMP2 =    -0.15260915405721D+03
 CCSD(T)
 CCSD(T)= -0.15263505509D+03

 The electronic state is 1-A'.
 Alpha  occ. eigenvalues --  -20.61273 -20.46118  -1.41213  -1.25568  -0.77085
 Alpha  occ. eigenvalues --   -0.75066  -0.57095  -0.56429  -0.46505  -0.42282
 Alpha virt. eigenvalues --    0.10773   0.17057   0.20563   0.33521   0.46869
 Alpha virt. eigenvalues --    0.52699   0.62186   0.66119   0.70255   0.71683
 Alpha virt. eigenvalues --    0.78374   0.79893   0.80094   0.82357   0.84490

 Mulliken charges:
               1
     1  O   -0.649983
     2  H    0.303434
     3  H    0.216022
     4  O   -0.371630
     5  H    0.258527
     6  H    0.243630
 Sum of Mulliken charges =  -0.00000

 Dipole moment (field-independent basis, Debye):
    X=             -1.2812    Y=             -4.7376    Z=              0.0000  Tot=              4.9078
 Quadrupole moment (field-independent basis, Debye-Ang):
   XX=             -9.0997   YY=             -9.8973   ZZ=            -14.6148
   XY=             -2.8343   XZ=              0.0000   YZ=             -0.0000

 Normal termination of Gaussian 16 at Fri Aug 26 16:50:59 2022.
