 Gaussian 16, Revision A.03,
 Gaussian 16:  ES64L-G16RevA.03 25-Dec-2016

 ------------------
 #p CCSD(T)/cc-pVTZ
 ------------------

 -----------
 H2O_H2O_216
 -----------
 Symbolic Z-matrix:
 Charge =  0 Multiplicity = 1

                         Standard orientation:
 ---------------------------------------------------------------------
 Center     Atomic      Atomic             Coordinates (Angstroms)
 Number     Number       Type             X           Y           Z
 ---------------------------------------------------------------------
      1          8           0        0.041328    1.192175   -0.000000
      2          1           0        0.037339    0.209582   -0.000000
      3          1           0       -0.886864    1.514612   -0.000000
      4          8           0        0.041328   -1.012422    0.000000
      5          1           0        0.890285   -1.507173    0.000000
      6          1           0       -0.702007   -1.655041    0.000000
 ---------------------------------------------------------------------

 SCF Done:  E(RHF) =  -152.071434736     A.U. after   11 cycles
 E2 =    -0.5342318111D+00 EUMP2 =    -0.15260566654748D+03
 CCSD(T)
 CCSD(T)= -0.15263151813D+03

 The electronic state is 1-A'.
 Alpha  occ. eigenvalues --  -20.61383 -20.45830  -1.41527  -1.25396  -0.77324
 Alpha  occ. eigenvalues --   -0.75479  -0.57297  -0.56188  -0.46193  -0.42081
 Alpha virt. eigenvalues --    0.10716   0.16985   0.20644   0.33475   0.46838
 Alpha virt. eigenvalues --    0.52597   0.62294   0.66133   0.70293   0.71572
 Alpha virt. eigenvalues --    0.78535   0.79995   0.80155   0.82358   0.84833

 Mulliken charges:
               1
     1  O   -0.653578
     2  H    0.301868
     3  H    0.214581
     4  O   -0.364263
     5  H    0.258316
     6  H    0.243078
 Sum of Mulliken charges =  -0.00000

 Dipole moment (field-independent basis, Debye):
    X=             -1.2767    Y=             -4.7853    Z=              0.0000  Tot=              4.9527
 Quadrupole moment (field-independent basis, Debye-Ang):
   XX=             -9.0974   YY=             -9.9450   ZZ=            -14.6076
   XY=             -2.8110   XZ=              0.0000   YZ=             -0.0000

 Normal termination of Gaussian 16 at Fri Aug 26 16:40:19 2022.
