 Gaussian 16, Revision A.03,
 Gaussian 16:  ES64L-G16RevA.03 25-Dec-2016

 ------------------
 #p CCSD(T)/cc-pVTZ
 ------------------

 ------------
 H2O_H2O_2566
 ------------
 Symbolic Z-matrix:
 Charge =  0 Multiplicity = 1

                         Standard orientation:
 ---------------------------------------------------------------------
 Center     Atomic      Atomic             Coordinates (Angstroms)
 Number     Number       Type             X           Y           Z
 ---------------------------------------------------------------------
      1          8           0        0.041160    2.129609    0.000000
      2          1           0        0.039004    1.147010    0.000000
      3          1           0       -0.887631    2.450314    0.000000
      4          8           0        0.041160   -1.949702   -0.000000
      5          1           0        0.891038   -2.442870   -0.000000
      6          1           0       -0.700975   -2.593708   -0.000000
 ---------------------------------------------------------------------

 SCF Done:  E(RHF) =  -152.110833316     A.U. after   10 cycles
 E2 =    -0.5260590404D+00 EUMP2 =    -0.15263689235618D+03
 CCSD(T)
 CCSD(T)= -0.15266400313D+03

 The electronic state is 1-A'.
 Alpha  occ. eigenvalues --  -20.56899 -20.54164  -1.34162  -1.31496  -0.71557
 Alpha  occ. eigenvalues --   -0.68894  -0.57754  -0.54985  -0.51298  -0.48640
 Alpha virt. eigenvalues --    0.12373   0.16390   0.19334   0.23941   0.52796
 Alpha virt. eigenvalues --    0.55572   0.56365   0.58919   0.69062   0.70392
 Alpha virt. eigenvalues --    0.77459   0.78789   0.80197   0.80558   0.83640

 Mulliken charges:
               1
     1  O   -0.523213
     2  H    0.266306
     3  H    0.251280
     4  O   -0.512042
     5  H    0.260493
     6  H    0.257176
 Sum of Mulliken charges =  -0.00000

 Dipole moment (field-independent basis, Debye):
    X=             -1.3996    Y=             -3.2900    Z=             -0.0000  Tot=              3.5754
 Quadrupole moment (field-independent basis, Debye-Ang):
   XX=             -9.1496   YY=             -7.4824   ZZ=            -14.7229
   XY=             -4.6234   XZ=             -0.0000   YZ=              0.0000

 CCSD(T)=-152.6640031\RMSD=6.660e-09\PG=CS [SG(H4O2)]\\@
 Normal termination of Gaussian 16 at Fri Aug 26 15:39:36 2022.
