 Gaussian 16, Revision A.03,
 Gaussian 16:  ES64L-G16RevA.03 25-Dec-2016

 ------------------
 #p CCSD(T)/cc-pVTZ
 ------------------

 ------------
 H2O_H2O_3804
 ------------
 Symbolic Z-matrix:
 Charge =  0 Multiplicity = 1

                         Standard orientation:
 ---------------------------------------------------------------------
 Center     Atomic      Atomic             Coordinates (Angstroms)
 Number     Number       Type             X           Y           Z
 ---------------------------------------------------------------------
      1          8           0        0.082801    2.614413    0.000000
      2          1           0        0.082461    1.631811    0.000000
      3          1           0       -0.846582    2.933400   -0.000000
      4          8           0        0.082801   -2.459888    0.000000
      5          1           0        0.336788   -3.409096    0.000000
      6          1           0       -0.897475   -2.392312   -0.000000
 ---------------------------------------------------------------------

 SCF Done:  E(RHF) =  -152.108184737     A.U. after   10 cycles
 E2 =    -0.5258908850D+00 EUMP2 =    -0.15263407562202D+03
 CCSD(T)
 CCSD(T)= -0.15266127085D+03

 The electronic state is 1-A'.
 Alpha  occ. eigenvalues --  -20.56358 -20.55048  -1.33657  -1.32353  -0.71071
 Alpha  occ. eigenvalues --   -0.69746  -0.57136  -0.55814  -0.50771  -0.49471
 Alpha virt. eigenvalues --    0.12474   0.15173   0.19218   0.21827   0.53208
 Alpha virt. eigenvalues --    0.55035   0.56482   0.57939   0.66748   0.68990
 Alpha virt. eigenvalues --    0.78129   0.78874   0.79390   0.80945   0.82620

 Mulliken charges:
               1
     1  O   -0.511675
     2  H    0.259856
     3  H    0.251321
     4  O   -0.512379
     5  H    0.259470
     6  H    0.253407
 Sum of Mulliken charges =  -0.00000

 Dipole moment (field-independent basis, Debye):
    X=             -2.8326    Y=             -2.7331    Z=             -0.0000  Tot=              3.9362
 Quadrupole moment (field-independent basis, Debye-Ang):
   XX=            -10.2475   YY=             -7.9912   ZZ=            -14.7138
   XY=             -3.0997   XZ=              0.0000   YZ=             -0.0000

 Normal termination of Gaussian 16 at Fri Aug 26 23:46:04 2022.
