 Gaussian 16, Revision A.03,
 Gaussian 16:  ES64L-G16RevA.03 25-Dec-2016

 ------------------
 #p CCSD(T)/cc-pVTZ
 ------------------

 ------------
 H2O_H2O_2939
 ------------
 Symbolic Z-matrix:
 Charge =  0 Multiplicity = 1

                         Standard orientation:
 ---------------------------------------------------------------------
 Center     Atomic      Atomic             Coordinates (Angstroms)
 Number     Number       Type             X           Y           Z
 ---------------------------------------------------------------------
      1          8           0        0.048588    2.279445    0.000000
      2          1           0        0.046868    1.296845    0.000000
      3          1           0       -0.880346    2.599738   -0.000000
      4          8           0        0.048588   -2.099062    0.000000
      5          1           0        0.827090   -2.698596    0.000000
      6          1           0       -0.771017   -2.641052   -0.000000
 ---------------------------------------------------------------------

 SCF Done:  E(RHF) =  -152.109987886     A.U. after   10 cycles
 E2 =    -0.5259546595D+00 EUMP2 =    -0.15263594254597D+03
 CCSD(T)
 CCSD(T)= -0.15266308021D+03

 The electronic state is 1-A'.
 Alpha  occ. eigenvalues --  -20.56684 -20.54397  -1.33959  -1.31719  -0.71359
 Alpha  occ. eigenvalues --   -0.69112  -0.57509  -0.55206  -0.51090  -0.48855
 Alpha virt. eigenvalues --    0.12482   0.16004   0.19444   0.22825   0.53123
 Alpha virt. eigenvalues --    0.55486   0.56328   0.58654   0.68518   0.69325
 Alpha virt. eigenvalues --    0.77796   0.79168   0.79325   0.79972   0.83299

 Mulliken charges:
               1
     1  O   -0.519503
     2  H    0.264762
     3  H    0.251421
     4  O   -0.513823
     5  H    0.260209
     6  H    0.256933
 Sum of Mulliken charges =  -0.00000

 Dipole moment (field-independent basis, Debye):
    X=             -1.6559    Y=             -3.2557    Z=             -0.0000  Tot=              3.6526
 Quadrupole moment (field-independent basis, Debye-Ang):
   XX=             -9.1831   YY=             -7.2237   ZZ=            -14.7202
   XY=             -4.6102   XZ=              0.0000   YZ=             -0.0000

 Normal termination of Gaussian 16 at Fri Aug 26 18:33:51 2022.
