 Gaussian 16, Revision A.03,
 Gaussian 16:  ES64L-G16RevA.03 25-Dec-2016

 ------------------
 #p CCSD(T)/cc-pVTZ
 ------------------

 ----------
 H2O_H2O_91
 ----------
 Symbolic Z-matrix:
 Charge =  0 Multiplicity = 1

                         Standard orientation:
 ---------------------------------------------------------------------
 Center     Atomic      Atomic             Coordinates (Angstroms)
 Number     Number       Type             X           Y           Z
 ---------------------------------------------------------------------
      1          8           0        0.041345    1.142308   -0.000000
      2          1           0        0.037167    0.159715   -0.000000
      3          1           0       -0.886784    1.464924   -0.000000
      4          8           0        0.041345   -0.962571    0.000000
      5          1           0        0.890207   -1.457486    0.000000
      6          1           0       -0.702113   -1.605047    0.000000
 ---------------------------------------------------------------------

 SCF Done:  E(RHF) =  -152.047396884     A.U. after   11 cycles
 E2 =    -0.5354093042D+00 EUMP2 =    -0.15258280618833D+03
 CCSD(T)
 CCSD(T)= -0.15260840631D+03

 The electronic state is 1-A'.
 Alpha  occ. eigenvalues --  -20.61950 -20.44262  -1.43370  -1.24505  -0.79065
 Alpha  occ. eigenvalues --   -0.77331  -0.58418  -0.54886  -0.44467  -0.41007
 Alpha virt. eigenvalues --    0.10410   0.16588   0.21066   0.33165   0.46705
 Alpha virt. eigenvalues --    0.52052   0.62655   0.66029   0.70429   0.70797
 Alpha virt. eigenvalues --    0.78414   0.79476   0.81285   0.82509   0.87663

 Mulliken charges:
               1
     1  O   -0.673874
     2  H    0.290125
     3  H    0.206620
     4  O   -0.320555
     5  H    0.257470
     6  H    0.240213
 Sum of Mulliken charges =  -0.00000

 Dipole moment (field-independent basis, Debye):
    X=             -1.2516    Y=             -5.0401    Z=              0.0000  Tot=              5.1932
 Quadrupole moment (field-independent basis, Debye-Ang):
   XX=             -9.0850   YY=            -10.1945   ZZ=            -14.5664
   XY=             -2.6918   XZ=              0.0000   YZ=             -0.0000

 Normal termination of Gaussian 16 at Fri Aug 26 15:47:51 2022.
