 Gaussian 16, Revision A.03,
 Gaussian 16:  ES64L-G16RevA.03 25-Dec-2016

 ------------------
 #p CCSD(T)/cc-pVTZ
 ------------------

 -----------
 H2O_H2O_626
 -----------
 Symbolic Z-matrix:
 Charge =  0 Multiplicity = 1

                         Standard orientation:
 ---------------------------------------------------------------------
 Center     Atomic      Atomic             Coordinates (Angstroms)
 Number     Number       Type             X           Y           Z
 ---------------------------------------------------------------------
      1          8           0        0.090689   -1.339380    0.000000
      2          1           0        0.090538   -0.356779    0.000000
      3          1           0       -0.838755   -1.658190    0.000000
      4          8           0        0.090689    1.200684    0.000000
      5          1           0        0.154804    2.181192    0.000000
      6          1           0       -0.857616    0.943345    0.000000
 ---------------------------------------------------------------------

 SCF Done:  E(RHF) =  -152.096538558     A.U. after   11 cycles
 E2 =    -0.5322157600D+00 EUMP2 =    -0.15262875431837D+03
 CCSD(T)
 CCSD(T)= -0.15265541841D+03

 The electronic state is 1-A'.
 Alpha  occ. eigenvalues --  -20.59626 -20.51890  -1.38060  -1.29788  -0.76968
 Alpha  occ. eigenvalues --   -0.67943  -0.59728  -0.54535  -0.52623  -0.46780
 Alpha virt. eigenvalues --    0.11306   0.16416   0.20902   0.32129   0.48371
 Alpha virt. eigenvalues --    0.52183   0.58844   0.64069   0.69736   0.71280
 Alpha virt. eigenvalues --    0.73899   0.78326   0.78494   0.82806   0.83208

 Mulliken charges:
               1
     1  O   -0.556611
     2  H    0.287693
     3  H    0.219129
     4  O   -0.411019
     5  H    0.232440
     6  H    0.228369
 Sum of Mulliken charges =  -0.00000

 Dipole moment (field-independent basis, Debye):
    X=             -2.9343    Y=              3.2288    Z=              0.0000  Tot=              4.3630
 Quadrupole moment (field-independent basis, Debye-Ang):
   XX=            -10.7439   YY=             -9.3420   ZZ=            -14.6525
   XY=              2.1799   XZ=              0.0000   YZ=              0.0000

 Normal termination of Gaussian 16 at Fri Aug 26 19:29:05 2022.
