 Gaussian 16, Revision A.03,
 Gaussian 16:  ES64L-G16RevA.03 25-Dec-2016

 ------------------
 #p CCSD(T)/cc-pVTZ
 ------------------

 ------------
 H2O_H2O_4445
 ------------
 Symbolic Z-matrix:
 Charge =  0 Multiplicity = 1

                         Standard orientation:
 ---------------------------------------------------------------------
 Center     Atomic      Atomic             Coordinates (Angstroms)
 Number     Number       Type             X           Y           Z
 ---------------------------------------------------------------------
      1          8           0        0.026616    2.873888    0.000000
      2          1           0        0.024597    1.891288    0.000000
      3          1           0       -0.902221    3.194463    0.000000
      4          8           0        0.026616   -2.700637   -0.000000
      5          1           0        0.975211   -2.956902   -0.000000
      6          1           0       -0.523437   -3.514853   -0.000000
 ---------------------------------------------------------------------

 SCF Done:  E(RHF) =  -152.108507606     A.U. after   10 cycles
 E2 =    -0.5257995715D+00 EUMP2 =    -0.15263430717715D+03
 CCSD(T)
 CCSD(T)= -0.15266150258D+03

 The electronic state is 1-A'.
 Alpha  occ. eigenvalues --  -20.56190 -20.54974  -1.33492  -1.32282  -0.70897
 Alpha  occ. eigenvalues --   -0.69687  -0.56989  -0.55757  -0.50612  -0.49407
 Alpha virt. eigenvalues --    0.13292   0.14956   0.19600   0.21151   0.53546
 Alpha virt. eigenvalues --    0.54901   0.56667   0.57799   0.66808   0.68753
 Alpha virt. eigenvalues --    0.78274   0.79448   0.79490   0.80409   0.82639

 Mulliken charges:
               1
     1  O   -0.514549
     2  H    0.260161
     3  H    0.254245
     4  O   -0.515124
     5  H    0.257667
     6  H    0.257599
 Sum of Mulliken charges =  -0.00000

 Dipole moment (field-independent basis, Debye):
    X=             -0.9135    Y=             -3.0420    Z=             -0.0000  Tot=              3.1761
 Quadrupole moment (field-independent basis, Debye-Ang):
   XX=             -9.2892   YY=             -6.6542   ZZ=            -14.7151
   XY=             -6.8449   XZ=             -0.0000   YZ=              0.0000

 Normal termination of Gaussian 16 at Sun Aug 28 02:53:26 2022.
