 Gaussian 16, Revision A.03,
 Gaussian 16:  ES64L-G16RevA.03 25-Dec-2016

 ------------------
 #p CCSD(T)/cc-pVTZ
 ------------------

 ------------
 H2O_H2O_1230
 ------------
 Symbolic Z-matrix:
 Charge =  0 Multiplicity = 1

                         Standard orientation:
 ---------------------------------------------------------------------
 Center     Atomic      Atomic             Coordinates (Angstroms)
 Number     Number       Type             X           Y           Z
 ---------------------------------------------------------------------
      1          8           0        0.079872   -1.589748    0.000000
      2          1           0        0.079136   -0.607147    0.000000
      3          1           0       -0.849382   -1.909111    0.000000
      4          8           0        0.079872    1.430727    0.000000
      5          1           0        0.395022    2.361418    0.000000
      6          1           0       -0.902723    1.427012    0.000000
 ---------------------------------------------------------------------

 SCF Done:  E(RHF) =  -152.111262243     A.U. after   10 cycles
 E2 =    -0.5281498288D+00 EUMP2 =    -0.15263941207131D+03
 CCSD(T)
 CCSD(T)= -0.15266639127D+03

 The electronic state is 1-A'.
 Alpha  occ. eigenvalues --  -20.58327 -20.53146  -1.35744  -1.30624  -0.73340
 Alpha  occ. eigenvalues --   -0.68259  -0.59310  -0.53870  -0.52796  -0.47730
 Alpha virt. eigenvalues --    0.11655   0.16805   0.19835   0.29899   0.48846
 Alpha virt. eigenvalues --    0.54685   0.58331   0.58609   0.69349   0.73102
 Alpha virt. eigenvalues --    0.74630   0.76883   0.81562   0.82020   0.83910

 Mulliken charges:
               1
     1  O   -0.539118
     2  H    0.282839
     3  H    0.237060
     4  O   -0.474491
     5  H    0.245828
     6  H    0.247882
 Sum of Mulliken charges =  -0.00000

 Dipole moment (field-independent basis, Debye):
    X=             -2.6511    Y=              3.2163    Z=              0.0000  Tot=              4.1681
 Quadrupole moment (field-independent basis, Debye-Ang):
   XX=            -10.1381   YY=             -8.7144   ZZ=            -14.7176
   XY=              2.8295   XZ=              0.0000   YZ=              0.0000

 CCSD(T)=-152.6663913\RMSD=7.320e-09\PG=CS [SG(H4O2)]\\@
 Normal termination of Gaussian 16 at Fri Aug 26 23:15:57 2022.
