 Gaussian 16, Revision A.03,
 Gaussian 16:  ES64L-G16RevA.03 25-Dec-2016

 ------------------
 #p CCSD(T)/cc-pVTZ
 ------------------

 ------------
 H2O_H2O_3058
 ------------
 Symbolic Z-matrix:
 Charge =  0 Multiplicity = 1

                         Standard orientation:
 ---------------------------------------------------------------------
 Center     Atomic      Atomic             Coordinates (Angstroms)
 Number     Number       Type             X           Y           Z
 ---------------------------------------------------------------------
      1          8           0        0.070199    2.323794   -0.000000
      2          1           0        0.069337    1.341193   -0.000000
      3          1           0       -0.859014    2.643276    0.000000
      4          8           0        0.070199   -2.153551   -0.000000
      5          1           0        0.560753   -3.004939   -0.000000
      6          1           0       -0.894264   -2.341477    0.000000
 ---------------------------------------------------------------------

 SCF Done:  E(RHF) =  -152.109283625     A.U. after   10 cycles
 E2 =    -0.5259724613D+00 EUMP2 =    -0.15263525608647D+03
 CCSD(T)
 CCSD(T)= -0.15266241101D+03

 The electronic state is 1-A'.
 Alpha  occ. eigenvalues --  -20.56628 -20.54622  -1.33912  -1.31937  -0.71322
 Alpha  occ. eigenvalues --   -0.69324  -0.57429  -0.55412  -0.51034  -0.49065
 Alpha virt. eigenvalues --    0.12305   0.15782   0.19438   0.22538   0.53531
 Alpha virt. eigenvalues --    0.55236   0.56317   0.58466   0.67945   0.69318
 Alpha virt. eigenvalues --    0.77864   0.78844   0.79776   0.80053   0.83043

 Mulliken charges:
               1
     1  O   -0.515981
     2  H    0.263307
     3  H    0.250223
     4  O   -0.512432
     5  H    0.260069
     6  H    0.254814
 Sum of Mulliken charges =   0.00000

 Dipole moment (field-independent basis, Debye):
    X=             -2.3932    Y=             -3.0595    Z=              0.0000  Tot=              3.8843
 Quadrupole moment (field-independent basis, Debye-Ang):
   XX=             -9.6852   YY=             -7.5325   ZZ=            -14.7177
   XY=             -3.7386   XZ=              0.0000   YZ=              0.0000

 Normal termination of Gaussian 16 at Fri Aug 26 19:32:22 2022.
