 Gaussian 16, Revision A.03,
 Gaussian 16:  ES64L-G16RevA.03 25-Dec-2016

 ------------------
 #p CCSD(T)/cc-pVTZ
 ------------------

 -----------
 H2O_H2O_508
 -----------
 Symbolic Z-matrix:
 Charge =  0 Multiplicity = 1

                         Standard orientation:
 ---------------------------------------------------------------------
 Center     Atomic      Atomic             Coordinates (Angstroms)
 Number     Number       Type             X           Y           Z
 ---------------------------------------------------------------------
      1          8           0        0.070261    1.306606    0.000000
      2          1           0        0.068681    0.324006    0.000000
      3          1           0       -0.858718    1.626768    0.000000
      4          8           0        0.070261   -1.136466    0.000000
      5          1           0        0.560193   -1.988213    0.000000
      6          1           0       -0.894339   -1.323686    0.000000
 ---------------------------------------------------------------------

 SCF Done:  E(RHF) =  -152.098268128     A.U. after   11 cycles
 E2 =    -0.5322009226D+00 EUMP2 =    -0.15263046905015D+03
 CCSD(T)
 CCSD(T)= -0.15265687178D+03

 The electronic state is 1-A'.
 Alpha  occ. eigenvalues --  -20.60169 -20.49473  -1.38703  -1.27825  -0.76136
 Alpha  occ. eigenvalues --   -0.70291  -0.58657  -0.55255  -0.50093  -0.44769
 Alpha virt. eigenvalues --    0.11174   0.16909   0.20252   0.33095   0.48269
 Alpha virt. eigenvalues --    0.53313   0.59962   0.63155   0.71823   0.72143
 Alpha virt. eigenvalues --    0.73977   0.78545   0.79635   0.83901   0.84041

 Mulliken charges:
               1
     1  O   -0.597135
     2  H    0.303880
     3  H    0.219766
     4  O   -0.411698
     5  H    0.242405
     6  H    0.242781
 Sum of Mulliken charges =  -0.00000

 Dipole moment (field-independent basis, Debye):
    X=             -2.2415    Y=             -4.0593    Z=              0.0000  Tot=              4.6370
 Quadrupole moment (field-independent basis, Debye-Ang):
   XX=             -9.6922   YY=             -9.3569   ZZ=            -14.6613
   XY=             -2.8405   XZ=              0.0000   YZ=              0.0000

 Normal termination of Gaussian 16 at Fri Aug 26 18:43:47 2022.
