 Gaussian 16, Revision A.03,
 Gaussian 16:  ES64L-G16RevA.03 25-Dec-2016

 ------------------
 #p CCSD(T)/cc-pVTZ
 ------------------

 ------------
 H2O_H2O_1592
 ------------
 Symbolic Z-matrix:
 Charge =  0 Multiplicity = 1

                         Standard orientation:
 ---------------------------------------------------------------------
 Center     Atomic      Atomic             Coordinates (Angstroms)
 Number     Number       Type             X           Y           Z
 ---------------------------------------------------------------------
      1          8           0        0.037517    1.740164    0.000000
      2          1           0        0.034663    0.757567    0.000000
      3          1           0       -0.891047    2.061529    0.000000
      4          8           0        0.037517   -1.561259    0.000000
      5          1           0        0.917520   -1.998410    0.000000
      6          1           0       -0.661400   -2.251926    0.000000
 ---------------------------------------------------------------------

 SCF Done:  E(RHF) =  -152.113737262     A.U. after   10 cycles
 E2 =    -0.5269333018D+00 EUMP2 =    -0.15264067056358D+03
 CCSD(T)
 CCSD(T)= -0.15266768194D+03

 The electronic state is 1-A'.
 Alpha  occ. eigenvalues --  -20.57819 -20.53092  -1.35093  -1.30516  -0.72449
 Alpha  occ. eigenvalues --   -0.68098  -0.58908  -0.53891  -0.52228  -0.47672
 Alpha virt. eigenvalues --    0.12138   0.17570   0.18969   0.28497   0.50550
 Alpha virt. eigenvalues --    0.54413   0.56109   0.59689   0.68946   0.72295
 Alpha virt. eigenvalues --    0.74685   0.76982   0.81359   0.83122   0.84721

 Mulliken charges:
               1
     1  O   -0.540430
     2  H    0.275410
     3  H    0.248389
     4  O   -0.507095
     5  H    0.264615
     6  H    0.259111
 Sum of Mulliken charges =  -0.00000

 Dipole moment (field-independent basis, Debye):
    X=             -1.2617    Y=             -3.4777    Z=              0.0000  Tot=              3.6995
 Quadrupole moment (field-independent basis, Debye-Ang):
   XX=             -9.1610   YY=             -8.2087   ZZ=            -14.7347
   XY=             -3.9907   XZ=              0.0000   YZ=              0.0000

 Normal termination of Gaussian 16 at Sat Aug 27 23:36:02 2022.
