 Gaussian 16, Revision A.03,
 Gaussian 16:  ES64L-G16RevA.03 25-Dec-2016

 ------------------
 #p CCSD(T)/cc-pVTZ
 ------------------

 ------------
 H2O_H2O_2439
 ------------
 Symbolic Z-matrix:
 Charge =  0 Multiplicity = 1

                         Standard orientation:
 ---------------------------------------------------------------------
 Center     Atomic      Atomic             Coordinates (Angstroms)
 Number     Number       Type             X           Y           Z
 ---------------------------------------------------------------------
      1          8           0        0.048604    2.079998   -0.000000
      2          1           0        0.046711    1.097399   -0.000000
      3          1           0       -0.880274    2.400454   -0.000000
      4          8           0        0.048604   -1.899632    0.000000
      5          1           0        0.827001   -2.499302    0.000000
      6          1           0       -0.771095   -2.441479    0.000000
 ---------------------------------------------------------------------

 SCF Done:  E(RHF) =  -152.111054827     A.U. after   10 cycles
 E2 =    -0.5261268725D+00 EUMP2 =    -0.15263718169927D+03
 CCSD(T)
 CCSD(T)= -0.15266428395D+03

 The electronic state is 1-A'.
 Alpha  occ. eigenvalues --  -20.56991 -20.54075  -1.34251  -1.31410  -0.71644
 Alpha  occ. eigenvalues --   -0.68807  -0.57855  -0.54894  -0.51387  -0.48554
 Alpha virt. eigenvalues --    0.12321   0.16502   0.19310   0.24356   0.52543
 Alpha virt. eigenvalues --    0.55551   0.56306   0.59012   0.69031   0.70981
 Alpha virt. eigenvalues --    0.77278   0.78546   0.80293   0.81275   0.83670

 Mulliken charges:
               1
     1  O   -0.523744
     2  H    0.266940
     3  H    0.250139
     4  O   -0.510628
     5  H    0.260652
     6  H    0.256641
 Sum of Mulliken charges =  -0.00000

 Dipole moment (field-independent basis, Debye):
    X=             -1.6505    Y=             -3.3165    Z=              0.0000  Tot=              3.7045
 Quadrupole moment (field-independent basis, Debye-Ang):
   XX=             -9.1844   YY=             -7.5559   ZZ=            -14.7236
   XY=             -4.3029   XZ=              0.0000   YZ=             -0.0000

 Normal termination of Gaussian 16 at Sun Aug 28 07:17:59 2022.
