 Gaussian 16, Revision A.03,
 Gaussian 16:  ES64L-G16RevA.03 25-Dec-2016

 ------------------
 #p CCSD(T)/cc-pVTZ
 ------------------

 ------------
 H2O_H2O_2282
 ------------
 Symbolic Z-matrix:
 Charge =  0 Multiplicity = 1

                         Standard orientation:
 ---------------------------------------------------------------------
 Center     Atomic      Atomic             Coordinates (Angstroms)
 Number     Number       Type             X           Y           Z
 ---------------------------------------------------------------------
      1          8           0        0.073547    2.012861    0.000000
      2          1           0        0.072692    1.030260    0.000000
      3          1           0       -0.855669    2.332335    0.000000
      4          8           0        0.073547   -1.845938   -0.000000
      5          1           0        0.507374   -2.727584   -0.000000
      6          1           0       -0.901142   -1.970392   -0.000000
 ---------------------------------------------------------------------

 SCF Done:  E(RHF) =  -152.110489322     A.U. after   10 cycles
 E2 =    -0.5263062175D+00 EUMP2 =    -0.15263679553904D+03
 CCSD(T)
 CCSD(T)= -0.15266390204D+03

 The electronic state is 1-A'.
 Alpha  occ. eigenvalues --  -20.57102 -20.54256  -1.34370  -1.31585  -0.71790
 Alpha  occ. eigenvalues --   -0.68965  -0.57944  -0.55046  -0.51495  -0.48718
 Alpha virt. eigenvalues --    0.11998   0.16379   0.19456   0.24718   0.52684
 Alpha virt. eigenvalues --    0.55819   0.56010   0.58424   0.68807   0.71645
 Alpha virt. eigenvalues --    0.76974   0.78840   0.80190   0.82317   0.83448

 Mulliken charges:
               1
     1  O   -0.520446
     2  H    0.266390
     3  H    0.247172
     4  O   -0.506576
     5  H    0.259871
     6  H    0.253589
 Sum of Mulliken charges =  -0.00000

 Dipole moment (field-independent basis, Debye):
    X=             -2.4921    Y=             -3.0856    Z=             -0.0000  Tot=              3.9663
 Quadrupole moment (field-independent basis, Debye-Ang):
   XX=             -9.8259   YY=             -8.0213   ZZ=            -14.7214
   XY=             -3.3511   XZ=             -0.0000   YZ=             -0.0000

 Normal termination of Gaussian 16 at Sun Aug 28 05:58:24 2022.
