 Gaussian 16, Revision A.03,
 Gaussian 16:  ES64L-G16RevA.03 25-Dec-2016

 ------------------
 #p CCSD(T)/cc-pVTZ
 ------------------

 ------------
 H2O_H2O_4934
 ------------
 Symbolic Z-matrix:
 Charge =  0 Multiplicity = 1

                         Standard orientation:
 ---------------------------------------------------------------------
 Center     Atomic      Atomic             Coordinates (Angstroms)
 Number     Number       Type             X           Y           Z
 ---------------------------------------------------------------------
      1          8           0        0.066739    3.073259    0.000000
      2          1           0        0.065995    2.090658    0.000000
      3          1           0       -0.862512    3.392629    0.000000
      4          8           0        0.066739   -2.900123   -0.000000
      5          1           0        0.612025   -3.717539   -0.000000
      6          1           0       -0.883338   -3.150840   -0.000000
 ---------------------------------------------------------------------

 SCF Done:  E(RHF) =  -152.108073590     A.U. after   10 cycles
 E2 =    -0.5258237767D+00 EUMP2 =    -0.15263389736675D+03
 CCSD(T)
 CCSD(T)= -0.15266110338D+03

 The electronic state is 1-A'.
 Alpha  occ. eigenvalues --  -20.56123 -20.55089  -1.33425  -1.32394  -0.70832
 Alpha  occ. eigenvalues --   -0.69794  -0.56903  -0.55857  -0.50541  -0.49513
 Alpha virt. eigenvalues --    0.13482   0.14713   0.19664   0.20885   0.53674
 Alpha virt. eigenvalues --    0.54781   0.56695   0.57717   0.67077   0.68469
 Alpha virt. eigenvalues --    0.78343   0.79351   0.79713   0.80614   0.82108

 Mulliken charges:
               1
     1  O   -0.512125
     2  H    0.259142
     3  H    0.252950
     4  O   -0.512892
     5  H    0.257875
     6  H    0.255050
 Sum of Mulliken charges =  -0.00000

 Dipole moment (field-independent basis, Debye):
    X=             -2.2910    Y=             -3.0295    Z=             -0.0000  Tot=              3.7982
 Quadrupole moment (field-independent basis, Debye-Ang):
   XX=             -9.5595   YY=             -6.4027   ZZ=            -14.7136
   XY=             -4.5915   XZ=             -0.0000   YZ=             -0.0000

 Normal termination of Gaussian 16 at Sun Aug 28 07:02:43 2022.
