 Gaussian 16, Revision A.03,
 Gaussian 16:  ES64L-G16RevA.03 25-Dec-2016

 ------------------
 #p CCSD(T)/cc-pVTZ
 ------------------

 ----------
 H2O_H2O_42
 ----------
 Symbolic Z-matrix:
 Charge =  0 Multiplicity = 1

                         Standard orientation:
 ---------------------------------------------------------------------
 Center     Atomic      Atomic             Coordinates (Angstroms)
 Number     Number       Type             X           Y           Z
 ---------------------------------------------------------------------
      1          8           0        0.037672    1.121843    0.000000
      2          1           0        0.033109    0.139252    0.000000
      3          1           0       -0.890331    1.444822   -0.000000
      4          8           0        0.037672   -0.943068    0.000000
      5          1           0        0.916913   -1.381750    0.000000
      6          1           0       -0.662445   -1.632519   -0.000000
 ---------------------------------------------------------------------

 SCF Done:  E(RHF) =  -152.034377717     A.U. after   11 cycles
 E2 =    -0.5358822671D+00 EUMP2 =    -0.15257025998367D+03
 CCSD(T)
 CCSD(T)= -0.15259575809D+03

 The electronic state is 1-A'.
 Alpha  occ. eigenvalues --  -20.62156 -20.43600  -1.44258  -1.24149  -0.80442
 Alpha  occ. eigenvalues --   -0.77442  -0.58901  -0.54426  -0.43697  -0.40571
 Alpha virt. eigenvalues --    0.10304   0.16482   0.21201   0.33094   0.46622
 Alpha virt. eigenvalues --    0.51815   0.62287   0.66717   0.70376   0.70378
 Alpha virt. eigenvalues --    0.77729   0.78994   0.81592   0.82963   0.88880

 Mulliken charges:
               1
     1  O   -0.684744
     2  H    0.280998
     3  H    0.205351
     4  O   -0.298537
     5  H    0.259715
     6  H    0.237217
 Sum of Mulliken charges =  -0.00000

 Dipole moment (field-independent basis, Debye):
    X=             -1.1301    Y=             -5.1277    Z=             -0.0000  Tot=              5.2508
 Quadrupole moment (field-independent basis, Debye-Ang):
   XX=             -9.0811   YY=            -10.2886   ZZ=            -14.5467
   XY=             -2.6475   XZ=             -0.0000   YZ=             -0.0000

 Normal termination of Gaussian 16 at Fri Aug 26 15:28:26 2022.
