 Gaussian 16, Revision A.03,
 Gaussian 16:  ES64L-G16RevA.03 25-Dec-2016

 ------------------
 #p CCSD(T)/cc-pVTZ
 ------------------

 ------------
 H2O_H2O_4026
 ------------
 Symbolic Z-matrix:
 Charge =  0 Multiplicity = 1

                         Standard orientation:
 ---------------------------------------------------------------------
 Center     Atomic      Atomic             Coordinates (Angstroms)
 Number     Number       Type             X           Y           Z
 ---------------------------------------------------------------------
      1          8           0        0.090684   -2.695570    0.000000
      2          1           0        0.090610   -1.712969    0.000000
      3          1           0       -0.838785   -3.014306    0.000000
      4          8           0        0.090684    2.556860    0.000000
      5          1           0        0.154876    3.537362    0.000000
      6          1           0       -0.857642    2.299596    0.000000
 ---------------------------------------------------------------------

 SCF Done:  E(RHF) =  -152.107790801     A.U. after   10 cycles
 E2 =    -0.5258963916D+00 EUMP2 =    -0.15263368719254D+03
 CCSD(T)
 CCSD(T)= -0.15266089493D+03

 The electronic state is 1-A'.
 Alpha  occ. eigenvalues --  -20.56308 -20.55248  -1.33608  -1.32550  -0.71025
 Alpha  occ. eigenvalues --   -0.69944  -0.57072  -0.56003  -0.50719  -0.49664
 Alpha virt. eigenvalues --    0.12352   0.14993   0.18929   0.22057   0.53131
 Alpha virt. eigenvalues --    0.54947   0.56501   0.57830   0.66768   0.68722
 Alpha virt. eigenvalues --    0.78178   0.79207   0.79224   0.81425   0.82278

 Mulliken charges:
               1
     1  O   -0.509961
     2  H    0.258185
     3  H    0.251556
     4  O   -0.510993
     5  H    0.258972
     6  H    0.252241
 Sum of Mulliken charges =  -0.00000

 Dipole moment (field-independent basis, Debye):
    X=             -3.1050    Y=              2.4450    Z=              0.0000  Tot=              3.9521
 Quadrupole moment (field-independent basis, Debye-Ang):
   XX=            -10.7022   YY=             -8.8906   ZZ=            -14.7122
   XY=              2.4019   XZ=              0.0000   YZ=              0.0000

 CCSD(T)=-152.6608949\RMSD=4.028e-09\PG=CS [SG(H4O2)]\\@
 Normal termination of Gaussian 16 at Sat Aug 27 01:05:15 2022.
