 Gaussian 16, Revision A.03,
 Gaussian 16:  ES64L-G16RevA.03 25-Dec-2016

 ------------------
 #p CCSD(T)/cc-pVTZ
 ------------------

 ------------
 H2O_H2O_2893
 ------------
 Symbolic Z-matrix:
 Charge =  0 Multiplicity = 1

                         Standard orientation:
 ---------------------------------------------------------------------
 Center     Atomic      Atomic             Coordinates (Angstroms)
 Number     Number       Type             X           Y           Z
 ---------------------------------------------------------------------
      1          8           0        0.033799    2.257947    0.000000
      2          1           0        0.031484    1.275348    0.000000
      3          1           0       -0.894941    2.578802    0.000000
      4          8           0        0.033799   -2.080430   -0.000000
      5          1           0        0.940717   -2.458593   -0.000000
      6          1           0       -0.618047   -2.815688   -0.000000
 ---------------------------------------------------------------------

 SCF Done:  E(RHF) =  -152.110167663     A.U. after   10 cycles
 E2 =    -0.5259495294D+00 EUMP2 =    -0.15263611719223D+03
 CCSD(T)
 CCSD(T)= -0.15266325078D+03

 The electronic state is 1-A'.
 Alpha  occ. eigenvalues --  -20.56698 -20.54394  -1.33974  -1.31718  -0.71373
 Alpha  occ. eigenvalues --   -0.69117  -0.57532  -0.55209  -0.51106  -0.48857
 Alpha virt. eigenvalues --    0.12455   0.16062   0.19395   0.23024   0.53222
 Alpha virt. eigenvalues --    0.55550   0.56402   0.58589   0.68655   0.69351
 Alpha virt. eigenvalues --    0.77769   0.79050   0.79728   0.79971   0.83316

 Mulliken charges:
               1
     1  O   -0.520832
     2  H    0.264692
     3  H    0.252661
     4  O   -0.514329
     5  H    0.259946
     6  H    0.257862
 Sum of Mulliken charges =  -0.00000

 Dipole moment (field-independent basis, Debye):
    X=             -1.1525    Y=             -3.2075    Z=             -0.0000  Tot=              3.4083
 Quadrupole moment (field-independent basis, Debye-Ang):
   XX=             -9.1859   YY=             -7.3487   ZZ=            -14.7208
   XY=             -5.1369   XZ=             -0.0000   YZ=              0.0000

 CCSD(T)=-152.6632508\RMSD=6.784e-09\PG=CS [SG(H4O2)]\\@
 Normal termination of Gaussian 16 at Fri Aug 26 18:08:41 2022.
