 Gaussian 16, Revision A.03,
 Gaussian 16:  ES64L-G16RevA.03 25-Dec-2016

 ------------------
 #p CCSD(T)/cc-pVTZ
 ------------------

 ------------
 H2O_H2O_1472
 ------------
 Symbolic Z-matrix:
 Charge =  0 Multiplicity = 1

                         Standard orientation:
 ---------------------------------------------------------------------
 Center     Atomic      Atomic             Coordinates (Angstroms)
 Number     Number       Type             X           Y           Z
 ---------------------------------------------------------------------
      1          8           0       -0.019958    1.683873    0.000000
      2          1           0       -0.016082    0.701280    0.000000
      3          1           0        0.908271    2.006203    0.000000
      4          8           0       -0.019958   -1.516816    0.000000
      5          1           0       -0.993640   -1.648912    0.000000
      6          1           0        0.420773   -2.395031    0.000000
 ---------------------------------------------------------------------

 SCF Done:  E(RHF) =  -152.113453400     A.U. after   10 cycles
 E2 =    -0.5271469109D+00 EUMP2 =    -0.15264060031063D+03
 CCSD(T)
 CCSD(T)= -0.15266760301D+03

 The electronic state is 1-A'.
 Alpha  occ. eigenvalues --  -20.57928 -20.53143  -1.35251  -1.30588  -0.72696
 Alpha  occ. eigenvalues --   -0.68175  -0.59069  -0.53918  -0.52365  -0.47742
 Alpha virt. eigenvalues --    0.12147   0.17630   0.19054   0.29120   0.50622
 Alpha virt. eigenvalues --    0.54358   0.55801   0.60686   0.68855   0.73690
 Alpha virt. eigenvalues --    0.74103   0.77153   0.81410   0.82815   0.84349

 Mulliken charges:
               1
     1  O   -0.545370
     2  H    0.276091
     3  H    0.251980
     4  O   -0.500466
     5  H    0.263757
     6  H    0.254007
 Sum of Mulliken charges =  -0.00000

 Dipole moment (field-independent basis, Debye):
    X=              0.6774    Y=             -3.2867    Z=              0.0000  Tot=              3.3558
 Quadrupole moment (field-independent basis, Debye-Ang):
   XX=             -9.4464   YY=             -8.4611   ZZ=            -14.7313
   XY=              4.2996   XZ=              0.0000   YZ=              0.0000

 Normal termination of Gaussian 16 at Sat Aug 27 00:47:33 2022.
