 Gaussian 16, Revision A.03,
 Gaussian 16:  ES64L-G16RevA.03 25-Dec-2016

 ------------------
 #p CCSD(T)/cc-pVTZ
 ------------------

 ------------
 H2O_H2O_2889
 ------------
 Symbolic Z-matrix:
 Charge =  0 Multiplicity = 1

                         Standard orientation:
 ---------------------------------------------------------------------
 Center     Atomic      Atomic             Coordinates (Angstroms)
 Number     Number       Type             X           Y           Z
 ---------------------------------------------------------------------
      1          8           0        0.048589    2.259500    0.000000
      2          1           0        0.046853    1.276900    0.000000
      3          1           0       -0.880339    2.579808    0.000000
      4          8           0        0.048589   -2.079119   -0.000000
      5          1           0        0.827081   -2.678665   -0.000000
      6          1           0       -0.771024   -2.621097   -0.000000
 ---------------------------------------------------------------------

 SCF Done:  E(RHF) =  -152.110077438     A.U. after   10 cycles
 E2 =    -0.5259670799D+00 EUMP2 =    -0.15263604451818D+03
 CCSD(T)
 CCSD(T)= -0.15266317903D+03

 The electronic state is 1-A'.
 Alpha  occ. eigenvalues --  -20.56710 -20.54370  -1.33984  -1.31693  -0.71383
 Alpha  occ. eigenvalues --   -0.69086  -0.57538  -0.55180  -0.51115  -0.48830
 Alpha virt. eigenvalues --    0.12463   0.16050   0.19432   0.22950   0.53084
 Alpha virt. eigenvalues --    0.55518   0.56315   0.58714   0.68696   0.69333
 Alpha virt. eigenvalues --    0.77763   0.79130   0.79414   0.79998   0.83331

 Mulliken charges:
               1
     1  O   -0.519848
     2  H    0.264961
     3  H    0.251314
     4  O   -0.513574
     5  H    0.260243
     6  H    0.256904
 Sum of Mulliken charges =  -0.00000

 Dipole moment (field-independent basis, Debye):
    X=             -1.6554    Y=             -3.2608    Z=             -0.0000  Tot=              3.6569
 Quadrupole moment (field-independent basis, Debye-Ang):
   XX=             -9.1832   YY=             -7.2563   ZZ=            -14.7205
   XY=             -4.5795   XZ=             -0.0000   YZ=              0.0000

 CCSD(T)=-152.663179\RMSD=6.814e-09\PG=CS [SG(H4O2)]\\@
 Normal termination of Gaussian 16 at Fri Aug 26 18:06:34 2022.
