 Gaussian 16, Revision A.03,
 Gaussian 16:  ES64L-G16RevA.03 25-Dec-2016

 ------------------
 #p CCSD(T)/cc-pVTZ
 ------------------

 -----------
 H2O_H2O_726
 -----------
 Symbolic Z-matrix:
 Charge =  0 Multiplicity = 1

                         Standard orientation:
 ---------------------------------------------------------------------
 Center     Atomic      Atomic             Coordinates (Angstroms)
 Number     Number       Type             X           Y           Z
 ---------------------------------------------------------------------
      1          8           0        0.090689   -1.379268    0.000000
      2          1           0        0.090542   -0.396667    0.000000
      3          1           0       -0.838757   -1.698073    0.000000
      4          8           0        0.090689    1.240571    0.000000
      5          1           0        0.154808    2.221078    0.000000
      6          1           0       -0.857617    0.983237    0.000000
 ---------------------------------------------------------------------

 SCF Done:  E(RHF) =  -152.100604077     A.U. after   10 cycles
 E2 =    -0.5313551114D+00 EUMP2 =    -0.15263195918874D+03
 CCSD(T)
 CCSD(T)= -0.15265872901D+03

 The electronic state is 1-A'.
 Alpha  occ. eigenvalues --  -20.59349 -20.52380  -1.37491  -1.30148  -0.76190
 Alpha  occ. eigenvalues --   -0.67924  -0.59788  -0.54130  -0.53103  -0.47161
 Alpha virt. eigenvalues --    0.11364   0.16443   0.20801   0.31854   0.48251
 Alpha virt. eigenvalues --    0.52459   0.58683   0.63085   0.69089   0.71327
 Alpha virt. eigenvalues --    0.73914   0.78348   0.78903   0.82778   0.82885

 Mulliken charges:
               1
     1  O   -0.550531
     2  H    0.288142
     3  H    0.222911
     4  O   -0.423201
     5  H    0.233818
     6  H    0.228862
 Sum of Mulliken charges =   0.00000

 Dipole moment (field-independent basis, Debye):
    X=             -2.9498    Y=              3.1312    Z=              0.0000  Tot=              4.3019
 Quadrupole moment (field-independent basis, Debye-Ang):
   XX=            -10.7505   YY=             -9.2708   ZZ=            -14.6665
   XY=              2.1988   XZ=              0.0000   YZ=              0.0000

 Normal termination of Gaussian 16 at Fri Aug 26 20:07:53 2022.
