 Gaussian 16, Revision A.03,
 Gaussian 16:  ES64L-G16RevA.03 25-Dec-2016

 ------------------
 #p CCSD(T)/cc-pVTZ
 ------------------

 -----------
 H2O_H2O_257
 -----------
 Symbolic Z-matrix:
 Charge =  0 Multiplicity = 1

                         Standard orientation:
 ---------------------------------------------------------------------
 Center     Atomic      Atomic             Coordinates (Angstroms)
 Number     Number       Type             X           Y           Z
 ---------------------------------------------------------------------
      1          8           0        0.073599   -1.205089    0.000000
      2          1           0        0.072130   -0.222489    0.000000
      3          1           0       -0.855417   -1.525144    0.000000
      4          8           0        0.073599    1.038258    0.000000
      5          1           0        0.506875    1.920175    0.000000
      6          1           0       -0.901167    1.162102    0.000000
 ---------------------------------------------------------------------

 SCF Done:  E(RHF) =  -152.074253129     A.U. after   11 cycles
 E2 =    -0.5349370486D+00 EUMP2 =    -0.15260919017736D+03
 CCSD(T)
 CCSD(T)= -0.15263515768D+03

 The electronic state is 1-A'.
 Alpha  occ. eigenvalues --  -20.61112 -20.47478  -1.41076  -1.26547  -0.78892
 Alpha  occ. eigenvalues --   -0.72328  -0.56969  -0.56837  -0.48030  -0.43336
 Alpha virt. eigenvalues --    0.10774   0.16414   0.20920   0.32727   0.48842
 Alpha virt. eigenvalues --    0.52340   0.60112   0.64461   0.71733   0.72352
 Alpha virt. eigenvalues --    0.77326   0.77894   0.80334   0.84581   0.84584

 Mulliken charges:
               1
     1  O   -0.618196
     2  H    0.291666
     3  H    0.205901
     4  O   -0.353818
     5  H    0.234950
     6  H    0.239496
 Sum of Mulliken charges =  -0.00000

 Dipole moment (field-independent basis, Debye):
    X=             -2.2912    Y=              4.3658    Z=              0.0000  Tot=              4.9305
 Quadrupole moment (field-independent basis, Debye-Ang):
   XX=             -9.8020   YY=             -9.7251   ZZ=            -14.6006
   XY=              2.6529   XZ=              0.0000   YZ=              0.0000

 Normal termination of Gaussian 16 at Fri Aug 26 16:57:32 2022.
