 Gaussian 16, Revision A.03,
 Gaussian 16:  ES64L-G16RevA.03 25-Dec-2016

 ------------------
 #p CCSD(T)/cc-pVTZ
 ------------------

 ------------
 H2O_H2O_4452
 ------------
 Symbolic Z-matrix:
 Charge =  0 Multiplicity = 1

                         Standard orientation:
 ---------------------------------------------------------------------
 Center     Atomic      Atomic             Coordinates (Angstroms)
 Number     Number       Type             X           Y           Z
 ---------------------------------------------------------------------
      1          8           0        0.088229   -2.868143    0.000000
      2          1           0        0.088086   -1.885541    0.000000
      3          1           0       -0.841217   -3.186944    0.000000
      4          8           0        0.088229    2.723817    0.000000
      5          1           0        0.216343    3.698031    0.000000
      6          1           0       -0.874878    2.529060    0.000000
 ---------------------------------------------------------------------

 SCF Done:  E(RHF) =  -152.107783878     A.U. after   10 cycles
 E2 =    -0.5258665178D+00 EUMP2 =    -0.15263365039540D+03
 CCSD(T)
 CCSD(T)= -0.15266086116D+03

 The electronic state is 1-A'.
 Alpha  occ. eigenvalues --  -20.56215 -20.55251  -1.33517  -1.32553  -0.70930
 Alpha  occ. eigenvalues --   -0.69950  -0.56982  -0.56008  -0.50629  -0.49667
 Alpha virt. eigenvalues --    0.12864   0.14783   0.19075   0.21511   0.53273
 Alpha virt. eigenvalues --    0.54853   0.56560   0.57717   0.66884   0.68539
 Alpha virt. eigenvalues --    0.78262   0.79203   0.79558   0.81186   0.81879

 Mulliken charges:
               1
     1  O   -0.510259
     2  H    0.258056
     3  H    0.252119
     4  O   -0.511293
     5  H    0.258389
     6  H    0.252988
 Sum of Mulliken charges =  -0.00000

 Dipole moment (field-independent basis, Debye):
    X=             -3.0252    Y=              2.5335    Z=              0.0000  Tot=              3.9459
 Quadrupole moment (field-independent basis, Debye-Ang):
   XX=            -10.5499   YY=             -8.4850   ZZ=            -14.7124
   XY=              2.6777   XZ=              0.0000   YZ=              0.0000

 Normal termination of Gaussian 16 at Sun Aug 28 02:56:01 2022.
