 Gaussian 16, Revision A.03,
 Gaussian 16:  ES64L-G16RevA.03 25-Dec-2016

 ------------------
 #p CCSD(T)/cc-pVTZ
 ------------------

 ------------
 H2O_H2O_1319
 ------------
 Symbolic Z-matrix:
 Charge =  0 Multiplicity = 1

                         Standard orientation:
 ---------------------------------------------------------------------
 Center     Atomic      Atomic             Coordinates (Angstroms)
 Number     Number       Type             X           Y           Z
 ---------------------------------------------------------------------
      1          8           0        0.030287    1.628647    0.000000
      2          1           0        0.026830    0.646052    0.000000
      3          1           0       -0.898079    1.950582    0.000000
      4          8           0        0.030287   -1.453108   -0.000000
      5          1           0        0.959626   -1.772226   -0.000000
      6          1           0       -0.572977   -2.228723   -0.000000
 ---------------------------------------------------------------------

 SCF Done:  E(RHF) =  -152.114115633     A.U. after   10 cycles
 E2 =    -0.5275153948D+00 EUMP2 =    -0.15264163102812D+03
 CCSD(T)
 CCSD(T)= -0.15266858965D+03

 The electronic state is 1-A'.
 Alpha  occ. eigenvalues --  -20.58205 -20.52592  -1.35548  -1.30100  -0.72904
 Alpha  occ. eigenvalues --   -0.67941  -0.59376  -0.53352  -0.52660  -0.47248
 Alpha virt. eigenvalues --    0.12072   0.17979   0.18828   0.30133   0.49786
 Alpha virt. eigenvalues --    0.54455   0.55859   0.60967   0.68665   0.72595
 Alpha virt. eigenvalues --    0.73589   0.77072   0.81863   0.82757   0.84675

 Mulliken charges:
               1
     1  O   -0.552015
     2  H    0.282629
     3  H    0.248236
     4  O   -0.500620
     5  H    0.265379
     6  H    0.256393
 Sum of Mulliken charges =  -0.00000

 Dipole moment (field-independent basis, Debye):
    X=             -1.0148    Y=             -3.5205    Z=             -0.0000  Tot=              3.6639
 Quadrupole moment (field-independent basis, Debye-Ang):
   XX=             -9.2276   YY=             -8.4773   ZZ=            -14.7335
   XY=             -3.9030   XZ=             -0.0000   YZ=              0.0000

 Normal termination of Gaussian 16 at Fri Aug 26 23:49:39 2022.
