 Gaussian 16, Revision A.03,
 Gaussian 16:  ES64L-G16RevA.03 25-Dec-2016

 ------------------
 #p CCSD(T)/cc-pVTZ
 ------------------

 ------------
 H2O_H2O_3663
 ------------
 Symbolic Z-matrix:
 Charge =  0 Multiplicity = 1

                         Standard orientation:
 ---------------------------------------------------------------------
 Center     Atomic      Atomic             Coordinates (Angstroms)
 Number     Number       Type             X           Y           Z
 ---------------------------------------------------------------------
      1          8           0        0.052286    2.568370    0.000000
      2          1           0        0.050894    1.585769    0.000000
      3          1           0       -0.876754    2.888353    0.000000
      4          8           0        0.052286   -2.388465   -0.000000
      5          1           0        0.790127   -3.037385   -0.000000
      6          1           0       -0.800849   -2.875975   -0.000000
 ---------------------------------------------------------------------

 SCF Done:  E(RHF) =  -152.108979853     A.U. after   10 cycles
 E2 =    -0.5258484704D+00 EUMP2 =    -0.15263482832302D+03
 CCSD(T)
 CCSD(T)= -0.15266200316D+03

 The electronic state is 1-A'.
 Alpha  occ. eigenvalues --  -20.56390 -20.54717  -1.33682  -1.32030  -0.71086
 Alpha  occ. eigenvalues --   -0.69426  -0.57195  -0.55508  -0.50805  -0.49158
 Alpha virt. eigenvalues --    0.12856   0.15407   0.19584   0.21603   0.53462
 Alpha virt. eigenvalues --    0.55003   0.56511   0.57942   0.66832   0.69275
 Alpha virt. eigenvalues --    0.78096   0.79155   0.79571   0.79685   0.82982

 Mulliken charges:
               1
     1  O   -0.515746
     2  H    0.262444
     3  H    0.252348
     4  O   -0.515390
     5  H    0.259603
     6  H    0.256742
 Sum of Mulliken charges =  -0.00000

 Dipole moment (field-independent basis, Debye):
    X=             -1.7882    Y=             -3.1924    Z=             -0.0000  Tot=              3.6591
 Quadrupole moment (field-independent basis, Debye-Ang):
   XX=             -9.2255   YY=             -6.7811   ZZ=            -14.7168
   XY=             -4.8758   XZ=             -0.0000   YZ=             -0.0000

 CCSD(T)=-152.6620032\RMSD=7.048e-09\PG=CS [SG(H4O2)]\\@
 Normal termination of Gaussian 16 at Fri Aug 26 22:57:37 2022.
