 Gaussian 16, Revision A.03,
 Gaussian 16:  ES64L-G16RevA.03 25-Dec-2016

 ------------------
 #p CCSD(T)/cc-pVTZ
 ------------------

 ------------
 H2O_H2O_4797
 ------------
 Symbolic Z-matrix:
 Charge =  0 Multiplicity = 1

                         Standard orientation:
 ---------------------------------------------------------------------
 Center     Atomic      Atomic             Coordinates (Angstroms)
 Number     Number       Type             X           Y           Z
 ---------------------------------------------------------------------
      1          8           0       -0.019808    3.010170    0.000000
      2          1           0       -0.017689    2.027571    0.000000
      3          1           0        0.908995    3.330841    0.000000
      4          8           0       -0.019808   -2.843042    0.000000
      5          1           0       -0.993725   -2.973398    0.000000
      6          1           0        0.419353   -3.722043    0.000000
 ---------------------------------------------------------------------

 SCF Done:  E(RHF) =  -152.108322990     A.U. after   10 cycles
 E2 =    -0.5257993027D+00 EUMP2 =    -0.15263412229281D+03
 CCSD(T)
 CCSD(T)= -0.15266132350D+03

 The electronic state is 1-A'.
 Alpha  occ. eigenvalues --  -20.56132 -20.55086  -1.33435  -1.32393  -0.70840
 Alpha  occ. eigenvalues --   -0.69799  -0.56923  -0.55864  -0.50553  -0.49515
 Alpha virt. eigenvalues --    0.13423   0.14784   0.19580   0.21032   0.53600
 Alpha virt. eigenvalues --    0.54819   0.56706   0.57742   0.66996   0.68505
 Alpha virt. eigenvalues --    0.78330   0.79345   0.79674   0.80668   0.82138

 Mulliken charges:
               1
     1  O   -0.513797
     2  H    0.259104
     3  H    0.254644
     4  O   -0.514293
     5  H    0.256926
     6  H    0.257416
 Sum of Mulliken charges =  -0.00000

 Dipole moment (field-independent basis, Debye):
    X=              0.6809    Y=             -2.9257    Z=              0.0000  Tot=              3.0039
 Quadrupole moment (field-independent basis, Debye-Ang):
   XX=             -9.4479   YY=             -6.8483   ZZ=            -14.7145
   XY=              7.6513   XZ=              0.0000   YZ=              0.0000

 507917\MP4DQ=-152.6432474\MP4SDQ=-152.6462942\CCSD=-152.64571\CCSD(T)=
 Normal termination of Gaussian 16 at Sun Aug 28 05:57:16 2022.
