 Gaussian 16, Revision A.03,
 Gaussian 16:  ES64L-G16RevA.03 25-Dec-2016

 ------------------
 #p CCSD(T)/cc-pVTZ
 ------------------

 ------------
 H2O_H2O_4861
 ------------
 Symbolic Z-matrix:
 Charge =  0 Multiplicity = 1

                         Standard orientation:
 ---------------------------------------------------------------------
 Center     Atomic      Atomic             Coordinates (Angstroms)
 Number     Number       Type             X           Y           Z
 ---------------------------------------------------------------------
      1          8           0        0.059614    3.045704   -0.000000
      2          1           0        0.058658    2.063103   -0.000000
      3          1           0       -0.869568    3.365274   -0.000000
      4          8           0        0.059614   -2.868223    0.000000
      5          1           0        0.706769   -3.607612    0.000000
      6          1           0       -0.849690   -3.240609    0.000000
 ---------------------------------------------------------------------

 SCF Done:  E(RHF) =  -152.108173578     A.U. after   10 cycles
 E2 =    -0.5258167787D+00 EUMP2 =    -0.15263399035703D+03
 CCSD(T)
 CCSD(T)= -0.15266119410D+03

 The electronic state is 1-A'.
 Alpha  occ. eigenvalues --  -20.56131 -20.55042  -1.33433  -1.32348  -0.70839
 Alpha  occ. eigenvalues --   -0.69748  -0.56916  -0.55813  -0.50550  -0.49468
 Alpha virt. eigenvalues --    0.13486   0.14767   0.19703   0.20907   0.53691
 Alpha virt. eigenvalues --    0.54803   0.56697   0.57751   0.67034   0.68531
 Alpha virt. eigenvalues --    0.78335   0.79393   0.79714   0.80509   0.82262

 Mulliken charges:
               1
     1  O   -0.512672
     2  H    0.259532
     3  H    0.253096
     4  O   -0.513421
     5  H    0.257936
     6  H    0.255530
 Sum of Mulliken charges =  -0.00000

 Dipole moment (field-independent basis, Debye):
    X=             -2.0461    Y=             -3.1070    Z=              0.0000  Tot=              3.7202
 Quadrupole moment (field-independent basis, Debye-Ang):
   XX=             -9.3614   YY=             -6.1659   ZZ=            -14.7140
   XY=             -5.0633   XZ=              0.0000   YZ=             -0.0000

 Normal termination of Gaussian 16 at Sun Aug 28 06:26:30 2022.
