 Gaussian 16, Revision A.03,
 Gaussian 16:  ES64L-G16RevA.03 25-Dec-2016

 ------------------
 #p CCSD(T)/cc-pVTZ
 ------------------

 ------------
 H2O_H2O_1869
 ------------
 Symbolic Z-matrix:
 Charge =  0 Multiplicity = 1

                         Standard orientation:
 ---------------------------------------------------------------------
 Center     Atomic      Atomic             Coordinates (Angstroms)
 Number     Number       Type             X           Y           Z
 ---------------------------------------------------------------------
      1          8           0        0.030249    1.848042   -0.000000
      2          1           0        0.027223    0.865445   -0.000000
      3          1           0       -0.898258    2.169569   -0.000000
      4          8           0        0.030249   -1.672476    0.000000
      5          1           0        0.959727   -1.991187    0.000000
      6          1           0       -0.572675   -2.448356    0.000000
 ---------------------------------------------------------------------

 SCF Done:  E(RHF) =  -152.112810445     A.U. after   10 cycles
 E2 =    -0.5265260876D+00 EUMP2 =    -0.15263933653255D+03
 CCSD(T)
 CCSD(T)= -0.15266638599D+03

 The electronic state is 1-A'.
 Alpha  occ. eigenvalues --  -20.57473 -20.53571  -1.34734  -1.30947  -0.72121
 Alpha  occ. eigenvalues --   -0.68409  -0.58469  -0.54388  -0.51872  -0.48103
 Alpha virt. eigenvalues --    0.12222   0.17195   0.19106   0.26940   0.51732
 Alpha virt. eigenvalues --    0.54554   0.56221   0.59169   0.69060   0.72677
 Alpha virt. eigenvalues --    0.75764   0.77604   0.80869   0.83349   0.84444

 Mulliken charges:
               1
     1  O   -0.533704
     2  H    0.270105
     3  H    0.250994
     4  O   -0.508591
     5  H    0.262588
     6  H    0.258608
 Sum of Mulliken charges =   0.00000

 Dipole moment (field-independent basis, Debye):
    X=             -1.0238    Y=             -3.3333    Z=              0.0000  Tot=              3.4870
 Quadrupole moment (field-independent basis, Debye-Ang):
   XX=             -9.2309   YY=             -8.0533   ZZ=            -14.7309
   XY=             -4.3897   XZ=              0.0000   YZ=             -0.0000

 Normal termination of Gaussian 16 at Sun Aug 28 02:19:37 2022.
