 Gaussian 16, Revision A.03,
 Gaussian 16:  ES64L-G16RevA.03 25-Dec-2016

 ------------------
 #p CCSD(T)/cc-pVTZ
 ------------------

 ------------
 H2O_H2O_2018
 ------------
 Symbolic Z-matrix:
 Charge =  0 Multiplicity = 1

                         Standard orientation:
 ---------------------------------------------------------------------
 Center     Atomic      Atomic             Coordinates (Angstroms)
 Number     Number       Type             X           Y           Z
 ---------------------------------------------------------------------
      1          8           0        0.033839    1.908915   -0.000000
      2          1           0        0.031080    0.926318   -0.000000
      3          1           0       -0.894755    2.230190   -0.000000
      4          8           0        0.033839   -1.731429    0.000000
      5          1           0        0.940585   -2.110001    0.000000
      6          1           0       -0.618338   -2.466392    0.000000
 ---------------------------------------------------------------------

 SCF Done:  E(RHF) =  -152.112378008     A.U. after   10 cycles
 E2 =    -0.5263802879D+00 EUMP2 =    -0.15263875829592D+03
 CCSD(T)
 CCSD(T)= -0.15266582229D+03

 The electronic state is 1-A'.
 Alpha  occ. eigenvalues --  -20.57330 -20.53713  -1.34585  -1.31074  -0.71971
 Alpha  occ. eigenvalues --   -0.68509  -0.58281  -0.54536  -0.51725  -0.48229
 Alpha virt. eigenvalues --    0.12251   0.17017   0.19151   0.26206   0.52008
 Alpha virt. eigenvalues --    0.54861   0.56375   0.58928   0.69076   0.72413
 Alpha virt. eigenvalues --    0.76283   0.77789   0.80697   0.83455   0.84287

 Mulliken charges:
               1
     1  O   -0.530748
     2  H    0.268979
     3  H    0.250818
     4  O   -0.509111
     5  H    0.261924
     6  H    0.258139
 Sum of Mulliken charges =  -0.00000

 Dipole moment (field-independent basis, Debye):
    X=             -1.1461    Y=             -3.3365    Z=              0.0000  Tot=              3.5279
 Quadrupole moment (field-independent basis, Debye-Ang):
   XX=             -9.1874   YY=             -7.9125   ZZ=            -14.7290
   XY=             -4.4197   XZ=              0.0000   YZ=             -0.0000

 Normal termination of Gaussian 16 at Sun Aug 28 03:39:36 2022.
