 Gaussian 16, Revision A.03,
 Gaussian 16:  ES64L-G16RevA.03 25-Dec-2016

 ------------------
 #p CCSD(T)/cc-pVTZ
 ------------------

 ------------
 H2O_H2O_4111
 ------------
 Symbolic Z-matrix:
 Charge =  0 Multiplicity = 1

                         Standard orientation:
 ---------------------------------------------------------------------
 Center     Atomic      Atomic             Coordinates (Angstroms)
 Number     Number       Type             X           Y           Z
 ---------------------------------------------------------------------
      1          8           0        0.059624    2.746539    0.000000
      2          1           0        0.058560    1.763938    0.000000
      3          1           0       -0.869523    3.066212   -0.000000
      4          8           0        0.059624   -2.569072    0.000000
      5          1           0        0.706698   -3.308532    0.000000
      6          1           0       -0.849722   -2.941358   -0.000000
 ---------------------------------------------------------------------

 SCF Done:  E(RHF) =  -152.108528727     A.U. after   10 cycles
 E2 =    -0.5258287306D+00 EUMP2 =    -0.15263435745766D+03
 CCSD(T)
 CCSD(T)= -0.15266154858D+03

 The electronic state is 1-A'.
 Alpha  occ. eigenvalues --  -20.56269 -20.54880  -1.33568  -1.32189  -0.70974
 Alpha  occ. eigenvalues --   -0.69586  -0.57065  -0.55660  -0.50687  -0.49312
 Alpha virt. eigenvalues --    0.13105   0.15103   0.19612   0.21244   0.53521
 Alpha virt. eigenvalues --    0.54911   0.56586   0.57825   0.66692   0.69003
 Alpha virt. eigenvalues --    0.78205   0.79325   0.79540   0.80020   0.82810

 Mulliken charges:
               1
     1  O   -0.513989
     2  H    0.261146
     3  H    0.252498
     4  O   -0.514710
     5  H    0.259087
     6  H    0.255967
 Sum of Mulliken charges =  -0.00000

 Dipole moment (field-independent basis, Debye):
    X=             -2.0423    Y=             -3.1281    Z=              0.0000  Tot=              3.7358
 Quadrupole moment (field-independent basis, Debye-Ang):
   XX=             -9.3621   YY=             -6.6243   ZZ=            -14.7152
   XY=             -4.7172   XZ=              0.0000   YZ=              0.0000

 Normal termination of Gaussian 16 at Sat Aug 27 23:48:13 2022.
