 Gaussian 16, Revision A.03,
 Gaussian 16:  ES64L-G16RevA.03 25-Dec-2016

 ------------------
 #p CCSD(T)/cc-pVTZ
 ------------------

 ------------
 H2O_H2O_2817
 ------------
 Symbolic Z-matrix:
 Charge =  0 Multiplicity = 1

                         Standard orientation:
 ---------------------------------------------------------------------
 Center     Atomic      Atomic             Coordinates (Angstroms)
 Number     Number       Type             X           Y           Z
 ---------------------------------------------------------------------
      1          8           0        0.037457    2.228812    0.000000
      2          1           0        0.035255    1.246213    0.000000
      3          1           0       -0.891319    2.549561   -0.000000
      4          8           0        0.037457   -2.049857    0.000000
      5          1           0        0.917750   -2.486424    0.000000
      6          1           0       -0.661001   -2.740987   -0.000000
 ---------------------------------------------------------------------

 SCF Done:  E(RHF) =  -152.110309570     A.U. after   10 cycles
 E2 =    -0.5259721467D+00 EUMP2 =    -0.15263628171688D+03
 CCSD(T)
 CCSD(T)= -0.15266341016D+03

 The electronic state is 1-A'.
 Alpha  occ. eigenvalues --  -20.56743 -20.54335  -1.34015  -1.31660  -0.71413
 Alpha  occ. eigenvalues --   -0.69058  -0.57580  -0.55151  -0.51148  -0.48800
 Alpha virt. eigenvalues --    0.12443   0.16137   0.19392   0.23196   0.53105
 Alpha virt. eigenvalues --    0.55571   0.56378   0.58707   0.68912   0.69410
 Alpha virt. eigenvalues --    0.77712   0.79061   0.79724   0.80027   0.83384

 Mulliken charges:
               1
     1  O   -0.521247
     2  H    0.265134
     3  H    0.252178
     4  O   -0.513797
     5  H    0.260143
     6  H    0.257589
 Sum of Mulliken charges =  -0.00000

 Dipole moment (field-independent basis, Debye):
    X=             -1.2762    Y=             -3.2420    Z=             -0.0000  Tot=              3.4842
 Quadrupole moment (field-independent basis, Debye-Ang):
   XX=             -9.1590   YY=             -7.3483   ZZ=            -14.7212
   XY=             -4.9381   XZ=              0.0000   YZ=             -0.0000

 CCSD(T)=-152.6634102\RMSD=6.757e-09\PG=CS [SG(H4O2)]\\@
 Normal termination of Gaussian 16 at Fri Aug 26 17:31:42 2022.
