 Gaussian 16, Revision A.03,
 Gaussian 16:  ES64L-G16RevA.03 25-Dec-2016

 ------------------
 #p CCSD(T)/cc-pVTZ
 ------------------

 ------------
 H2O_H2O_3040
 ------------
 Symbolic Z-matrix:
 Charge =  0 Multiplicity = 1

                         Standard orientation:
 ---------------------------------------------------------------------
 Center     Atomic      Atomic             Coordinates (Angstroms)
 Number     Number       Type             X           Y           Z
 ---------------------------------------------------------------------
      1          8           0        0.044861    2.319341   -0.000000
      2          1           0        0.043029    1.336741   -0.000000
      3          1           0       -0.884037    2.639739   -0.000000
      4          8           0        0.044861   -2.138944    0.000000
      5          1           0        0.860845   -2.686369    0.000000
      6          1           0       -0.737609   -2.733289    0.000000
 ---------------------------------------------------------------------

 SCF Done:  E(RHF) =  -152.109859969     A.U. after   10 cycles
 E2 =    -0.5259270594D+00 EUMP2 =    -0.15263578702800D+03
 CCSD(T)
 CCSD(T)= -0.15266293007D+03

 The electronic state is 1-A'.
 Alpha  occ. eigenvalues --  -20.56632 -20.54445  -1.33910  -1.31765  -0.71310
 Alpha  occ. eigenvalues --   -0.69160  -0.57455  -0.55253  -0.51040  -0.48901
 Alpha virt. eigenvalues --    0.12533   0.15921   0.19464   0.22607   0.53191
 Alpha virt. eigenvalues --    0.55428   0.56375   0.58511   0.68170   0.69334
 Alpha virt. eigenvalues --    0.77856   0.79133   0.79306   0.79927   0.83248

 Mulliken charges:
               1
     1  O   -0.519159
     2  H    0.264385
     3  H    0.251919
     4  O   -0.514486
     5  H    0.260081
     6  H    0.257261
 Sum of Mulliken charges =  -0.00000

 Dipole moment (field-independent basis, Debye):
    X=             -1.5299    Y=             -3.2463    Z=              0.0000  Tot=              3.5887
 Quadrupole moment (field-independent basis, Debye-Ang):
   XX=             -9.1571   YY=             -7.1571   ZZ=            -14.7198
   XY=             -4.8178   XZ=              0.0000   YZ=             -0.0000

 Normal termination of Gaussian 16 at Fri Aug 26 19:25:55 2022.
