 Gaussian 16, Revision A.03,
 Gaussian 16:  ES64L-G16RevA.03 25-Dec-2016

 ------------------
 #p CCSD(T)/cc-pVTZ
 ------------------

 ------------
 H2O_H2O_3711
 ------------
 Symbolic Z-matrix:
 Charge =  0 Multiplicity = 1

                         Standard orientation:
 ---------------------------------------------------------------------
 Center     Atomic      Atomic             Coordinates (Angstroms)
 Number     Number       Type             X           Y           Z
 ---------------------------------------------------------------------
      1          8           0        0.059630    2.586984    0.000000
      2          1           0        0.058498    1.604383    0.000000
      3          1           0       -0.869495    2.906721    0.000000
      4          8           0        0.059630   -2.409525   -0.000000
      5          1           0        0.706654   -3.149030   -0.000000
      6          1           0       -0.849741   -2.781749   -0.000000
 ---------------------------------------------------------------------

 SCF Done:  E(RHF) =  -152.108829651     A.U. after   10 cycles
 E2 =    -0.5258537770D+00 EUMP2 =    -0.15263468342780D+03
 CCSD(T)
 CCSD(T)= -0.15266186224D+03

 The electronic state is 1-A'.
 Alpha  occ. eigenvalues --  -20.56377 -20.54765  -1.33671  -1.32077  -0.71076
 Alpha  occ. eigenvalues --   -0.69472  -0.57177  -0.55552  -0.50792  -0.49202
 Alpha virt. eigenvalues --    0.12839   0.15352   0.19560   0.21558   0.53435
 Alpha virt. eigenvalues --    0.54998   0.56507   0.57933   0.66787   0.69235
 Alpha virt. eigenvalues --    0.78108   0.79025   0.79643   0.79834   0.82932

 Mulliken charges:
               1
     1  O   -0.514964
     2  H    0.262091
     3  H    0.252034
     4  O   -0.514925
     5  H    0.259648
     6  H    0.256117
 Sum of Mulliken charges =  -0.00000

 Dipole moment (field-independent basis, Debye):
    X=             -2.0396    Y=             -3.1461    Z=             -0.0000  Tot=              3.7494
 Quadrupole moment (field-independent basis, Debye-Ang):
   XX=             -9.3628   YY=             -6.8648   ZZ=            -14.7163
   XY=             -4.5325   XZ=             -0.0000   YZ=             -0.0000

 CCSD(T)=-152.6618622\RMSD=7.081e-09\PG=CS [SG(H4O2)]\\@
 Normal termination of Gaussian 16 at Fri Aug 26 23:14:55 2022.
