 Gaussian 16, Revision A.03,
 Gaussian 16:  ES64L-G16RevA.03 25-Dec-2016

 ------------------
 #p CCSD(T)/cc-pVTZ
 ------------------

 ------------
 H2O_H2O_3769
 ------------
 Symbolic Z-matrix:
 Charge =  0 Multiplicity = 1

                         Standard orientation:
 ---------------------------------------------------------------------
 Center     Atomic      Atomic             Coordinates (Angstroms)
 Number     Number       Type             X           Y           Z
 ---------------------------------------------------------------------
      1          8           0        0.030168    2.605934    0.000000
      2          1           0        0.028052    1.623335    0.000000
      3          1           0       -0.898637    2.926601   -0.000000
      4          8           0        0.030168   -2.430312    0.000000
      5          1           0        0.959941   -2.748161    0.000000
      6          1           0       -0.572037   -3.206750   -0.000000
 ---------------------------------------------------------------------

 SCF Done:  E(RHF) =  -152.108995968     A.U. after   10 cycles
 E2 =    -0.5258234621D+00 EUMP2 =    -0.15263481943040D+03
 CCSD(T)
 CCSD(T)= -0.15266199664D+03

 The electronic state is 1-A'.
 Alpha  occ. eigenvalues --  -20.56349 -20.54778  -1.33645  -1.32091  -0.71047
 Alpha  occ. eigenvalues --   -0.69493  -0.57158  -0.55572  -0.50768  -0.49220
 Alpha virt. eigenvalues --    0.12890   0.15351   0.19523   0.21610   0.53397
 Alpha virt. eigenvalues --    0.55084   0.56569   0.57886   0.66749   0.69202
 Alpha virt. eigenvalues --    0.78130   0.78992   0.79624   0.80036   0.82930

 Mulliken charges:
               1
     1  O   -0.516378
     2  H    0.261843
     3  H    0.253793
     4  O   -0.516136
     5  H    0.258737
     6  H    0.258142
 Sum of Mulliken charges =  -0.00000

 Dipole moment (field-independent basis, Debye):
    X=             -1.0331    Y=             -3.1097    Z=             -0.0000  Tot=              3.2768
 Quadrupole moment (field-independent basis, Debye-Ang):
   XX=             -9.2297   YY=             -6.9098   ZZ=            -14.7169
   XY=             -6.0384   XZ=             -0.0000   YZ=             -0.0000

 Normal termination of Gaussian 16 at Fri Aug 26 23:34:17 2022.
