 Gaussian 16, Revision A.03,
 Gaussian 16:  ES64L-G16RevA.03 25-Dec-2016

 ------------------
 #p CCSD(T)/cc-pVTZ
 ------------------

 ------------
 H2O_H2O_4761
 ------------
 Symbolic Z-matrix:
 Charge =  0 Multiplicity = 1

                         Standard orientation:
 ---------------------------------------------------------------------
 Center     Atomic      Atomic             Coordinates (Angstroms)
 Number     Number       Type             X           Y           Z
 ---------------------------------------------------------------------
      1          8           0        0.059616    3.005815   -0.000000
      2          1           0        0.058646    2.023214   -0.000000
      3          1           0       -0.869563    3.325398   -0.000000
      4          8           0        0.059616   -2.828336    0.000000
      5          1           0        0.706761   -3.567734    0.000000
      6          1           0       -0.849694   -3.200710    0.000000
 ---------------------------------------------------------------------

 SCF Done:  E(RHF) =  -152.108209373     A.U. after   10 cycles
 E2 =    -0.5258168401D+00 EUMP2 =    -0.15263402621320D+03
 CCSD(T)
 CCSD(T)= -0.15266122886D+03

 The electronic state is 1-A'.
 Alpha  occ. eigenvalues --  -20.56146 -20.55024  -1.33448  -1.32330  -0.70853
 Alpha  occ. eigenvalues --   -0.69730  -0.56932  -0.55796  -0.50565  -0.49450
 Alpha virt. eigenvalues --    0.13448   0.14802   0.19691   0.20941   0.53672
 Alpha virt. eigenvalues --    0.54817   0.56685   0.57762   0.66983   0.68584
 Alpha virt. eigenvalues --    0.78320   0.79410   0.79685   0.80446   0.82382

 Mulliken charges:
               1
     1  O   -0.512819
     2  H    0.259729
     3  H    0.253030
     4  O   -0.513603
     5  H    0.258078
     6  H    0.255585
 Sum of Mulliken charges =  -0.00000

 Dipole moment (field-independent basis, Debye):
    X=             -2.0457    Y=             -3.1091    Z=             -0.0000  Tot=              3.7218
 Quadrupole moment (field-independent basis, Debye-Ang):
   XX=             -9.3615   YY=             -6.2275   ZZ=            -14.7141
   XY=             -5.0172   XZ=              0.0000   YZ=             -0.0000

 Normal termination of Gaussian 16 at Sun Aug 28 05:41:38 2022.
