 Gaussian 16, Revision A.03,
 Gaussian 16:  ES64L-G16RevA.03 25-Dec-2016

 ------------------
 #p CCSD(T)/cc-pVTZ
 ------------------

 ------------
 H2O_H2O_3253
 ------------
 Symbolic Z-matrix:
 Charge =  0 Multiplicity = 1

                         Standard orientation:
 ---------------------------------------------------------------------
 Center     Atomic      Atomic             Coordinates (Angstroms)
 Number     Number       Type             X           Y           Z
 ---------------------------------------------------------------------
      1          8           0        0.085600   -2.392354    0.000000
      2          1           0        0.085331   -1.409753    0.000000
      3          1           0       -0.843805   -2.711275    0.000000
      4          8           0        0.085600    2.242756    0.000000
      5          1           0        0.277033    3.206530    0.000000
      6          1           0       -0.888165    2.111281    0.000000
 ---------------------------------------------------------------------

 SCF Done:  E(RHF) =  -152.108404046     A.U. after   10 cycles
 E2 =    -0.5259801203D+00 EUMP2 =    -0.15263438416659D+03
 CCSD(T)
 CCSD(T)= -0.15266156463D+03

 The electronic state is 1-A'.
 Alpha  occ. eigenvalues --  -20.56544 -20.54978  -1.33837  -1.32285  -0.71259
 Alpha  occ. eigenvalues --   -0.69670  -0.57319  -0.55745  -0.50951  -0.49403
 Alpha virt. eigenvalues --    0.11969   0.15500   0.19296   0.22534   0.53750
 Alpha virt. eigenvalues --    0.54926   0.56424   0.58164   0.67372   0.69102
 Alpha virt. eigenvalues --    0.77954   0.78571   0.79458   0.80999   0.82679

 Mulliken charges:
               1
     1  O   -0.512058
     2  H    0.260669
     3  H    0.250098
     4  O   -0.510806
     5  H    0.259813
     6  H    0.252285
 Sum of Mulliken charges =  -0.00000

 Dipole moment (field-independent basis, Debye):
    X=             -2.9202    Y=              2.6714    Z=              0.0000  Tot=              3.9578
 Quadrupole moment (field-independent basis, Debye-Ang):
   XX=            -10.4056   YY=             -8.3732   ZZ=            -14.7144
   XY=              2.8098   XZ=              0.0000   YZ=              0.0000

 Normal termination of Gaussian 16 at Fri Aug 26 20:39:14 2022.
