 Gaussian 16, Revision A.03,
 Gaussian 16:  ES64L-G16RevA.03 25-Dec-2016

 ------------------
 #p CCSD(T)/cc-pVTZ
 ------------------

 ------------
 H2O_H2O_2168
 ------------
 Symbolic Z-matrix:
 Charge =  0 Multiplicity = 1

                         Standard orientation:
 ---------------------------------------------------------------------
 Center     Atomic      Atomic             Coordinates (Angstroms)
 Number     Number       Type             X           Y           Z
 ---------------------------------------------------------------------
      1          8           0        0.033831    1.968749   -0.000000
      2          1           0        0.031160    0.986152   -0.000000
      3          1           0       -0.894792    2.289941    0.000000
      4          8           0        0.033831   -1.791258   -0.000000
      5          1           0        0.940612   -2.169749   -0.000000
      6          1           0       -0.618280   -2.526279    0.000000
 ---------------------------------------------------------------------

 SCF Done:  E(RHF) =  -152.111915315     A.U. after   10 cycles
 E2 =    -0.5262614702D+00 EUMP2 =    -0.15263817678473D+03
 CCSD(T)
 CCSD(T)= -0.15266525497D+03

 The electronic state is 1-A'.
 Alpha  occ. eigenvalues --  -20.57193 -20.53868  -1.34449  -1.31217  -0.71839
 Alpha  occ. eigenvalues --   -0.68636  -0.58109  -0.54693  -0.51588  -0.48369
 Alpha virt. eigenvalues --    0.12281   0.16836   0.19201   0.25517   0.52364
 Alpha virt. eigenvalues --    0.55118   0.56427   0.58827   0.69052   0.72070
 Alpha virt. eigenvalues --    0.76713   0.78134   0.80523   0.83547   0.83677

 Mulliken charges:
               1
     1  O   -0.528419
     2  H    0.267971
     3  H    0.251227
     4  O   -0.509840
     5  H    0.261304
     6  H    0.257757
 Sum of Mulliken charges =  -0.00000

 Dipole moment (field-independent basis, Debye):
    X=             -1.1476    Y=             -3.3070    Z=              0.0000  Tot=              3.5005
 Quadrupole moment (field-independent basis, Debye-Ang):
   XX=             -9.1870   YY=             -7.8100   ZZ=            -14.7270
   XY=             -4.5432   XZ=              0.0000   YZ=              0.0000

 Normal termination of Gaussian 16 at Sun Aug 28 05:05:02 2022.
