 Gaussian 16, Revision A.03,
 Gaussian 16:  ES64L-G16RevA.03 25-Dec-2016

 ------------------
 #p CCSD(T)/cc-pVTZ
 ------------------

 -----------
 H2O_H2O_835
 -----------
 Symbolic Z-matrix:
 Charge =  0 Multiplicity = 1

                         Standard orientation:
 ---------------------------------------------------------------------
 Center     Atomic      Atomic             Coordinates (Angstroms)
 Number     Number       Type             X           Y           Z
 ---------------------------------------------------------------------
      1          8           0        0.063303    1.439105    0.000000
      2          1           0        0.061437    0.456505    0.000000
      3          1           0       -0.865583    1.759536    0.000000
      4          8           0        0.063303   -1.263694   -0.000000
      5          1           0        0.659992   -2.044378   -0.000000
      6          1           0       -0.868698   -1.574948   -0.000000
 ---------------------------------------------------------------------

 SCF Done:  E(RHF) =  -152.110443944     A.U. after   10 cycles
 E2 =    -0.5296369965D+00 EUMP2 =    -0.15264008094010D+03
 CCSD(T)
 CCSD(T)= -0.15266682363D+03

 The electronic state is 1-A'.
 Alpha  occ. eigenvalues --  -20.59225 -20.51114  -1.36935  -1.28952  -0.74180
 Alpha  occ. eigenvalues --   -0.68603  -0.59618  -0.53892  -0.51786  -0.46016
 Alpha virt. eigenvalues --    0.11572   0.17420   0.19556   0.32523   0.48057
 Alpha virt. eigenvalues --    0.54311   0.59479   0.60103   0.70073   0.72445
 Alpha virt. eigenvalues --    0.72931   0.77364   0.81579   0.83005   0.84420

 Mulliken charges:
               1
     1  O   -0.574434
     2  H    0.303829
     3  H    0.232231
     4  O   -0.468687
     5  H    0.255706
     6  H    0.251357
 Sum of Mulliken charges =  -0.00000

 Dipole moment (field-independent basis, Debye):
    X=             -2.0673    Y=             -3.8230    Z=             -0.0000  Tot=              4.3461
 Quadrupole moment (field-independent basis, Debye-Ang):
   XX=             -9.4693   YY=             -8.9541   ZZ=            -14.7092
   XY=             -3.1124   XZ=             -0.0000   YZ=              0.0000

 Normal termination of Gaussian 16 at Fri Aug 26 20:48:18 2022.
