 Gaussian 16, Revision A.03,
 Gaussian 16:  ES64L-G16RevA.03 25-Dec-2016

 ------------------
 #p CCSD(T)/cc-pVTZ
 ------------------

 ------------
 H2O_H2O_3664
 ------------
 Symbolic Z-matrix:
 Charge =  0 Multiplicity = 1

                         Standard orientation:
 ---------------------------------------------------------------------
 Center     Atomic      Atomic             Coordinates (Angstroms)
 Number     Number       Type             X           Y           Z
 ---------------------------------------------------------------------
      1          8           0        0.048569    2.568640    0.000000
      2          1           0        0.047050    1.586040    0.000000
      3          1           0       -0.880430    2.888744   -0.000000
      4          8           0        0.048569   -2.388237    0.000000
      5          1           0        0.827194   -2.987613    0.000000
      6          1           0       -0.770925   -2.930396   -0.000000
 ---------------------------------------------------------------------

 SCF Done:  E(RHF) =  -152.109020029     A.U. after   10 cycles
 E2 =    -0.5258443077D+00 EUMP2 =    -0.15263486433701D+03
 CCSD(T)
 CCSD(T)= -0.15266203842D+03

 The electronic state is 1-A'.
 Alpha  occ. eigenvalues --  -20.56388 -20.54709  -1.33681  -1.32022  -0.71083
 Alpha  occ. eigenvalues --   -0.69419  -0.57195  -0.55501  -0.50804  -0.49150
 Alpha virt. eigenvalues --    0.12869   0.15415   0.19589   0.21608   0.53468
 Alpha virt. eigenvalues --    0.55006   0.56518   0.57936   0.66833   0.69278
 Alpha virt. eigenvalues --    0.78097   0.79214   0.79499   0.79691   0.82991

 Mulliken charges:
               1
     1  O   -0.516010
     2  H    0.262494
     3  H    0.252557
     4  O   -0.515591
     5  H    0.259526
     6  H    0.257024
 Sum of Mulliken charges =  -0.00000

 Dipole moment (field-independent basis, Debye):
    X=             -1.6611    Y=             -3.2012    Z=             -0.0000  Tot=              3.6065
 Quadrupole moment (field-independent basis, Debye-Ang):
   XX=             -9.1823   YY=             -6.7573   ZZ=            -14.7170
   XY=             -5.0551   XZ=              0.0000   YZ=             -0.0000

 Normal termination of Gaussian 16 at Fri Aug 26 22:57:57 2022.
