 Gaussian 16, Revision A.03,
 Gaussian 16:  ES64L-G16RevA.03 25-Dec-2016

 ------------------
 #p CCSD(T)/cc-pVTZ
 ------------------

 -----------
 H2O_H2O_589
 -----------
 Symbolic Z-matrix:
 Charge =  0 Multiplicity = 1

                         Standard orientation:
 ---------------------------------------------------------------------
 Center     Atomic      Atomic             Coordinates (Angstroms)
 Number     Number       Type             X           Y           Z
 ---------------------------------------------------------------------
      1          8           0        0.048706    1.342022   -0.000000
      2          1           0        0.045698    0.359425   -0.000000
      3          1           0       -0.879807    1.663533   -0.000000
      4          8           0        0.048706   -1.161767    0.000000
      5          1           0        0.826422   -1.762320    0.000000
      6          1           0       -0.771609   -1.702682    0.000000
 ---------------------------------------------------------------------

 SCF Done:  E(RHF) =  -152.104476690     A.U. after   11 cycles
 E2 =    -0.5310419795D+00 EUMP2 =    -0.15263551866979D+03
 CCSD(T)
 CCSD(T)= -0.15266199730D+03

 The electronic state is 1-A'.
 Alpha  occ. eigenvalues --  -20.59955 -20.49344  -1.38157  -1.27644  -0.74894
 Alpha  occ. eigenvalues --   -0.70446  -0.58876  -0.54915  -0.49941  -0.44625
 Alpha virt. eigenvalues --    0.11368   0.17665   0.19675   0.33429   0.47549
 Alpha virt. eigenvalues --    0.53820   0.60581   0.62829   0.70190   0.72321
 Alpha virt. eigenvalues --    0.73117   0.78458   0.81519   0.82616   0.84209

 Mulliken charges:
               1
     1  O   -0.605755
     2  H    0.313970
     3  H    0.228866
     4  O   -0.449803
     5  H    0.260989
     6  H    0.251732
 Sum of Mulliken charges =  -0.00000

 Dipole moment (field-independent basis, Debye):
    X=             -1.5659    Y=             -4.1986    Z=              0.0000  Tot=              4.4811
 Quadrupole moment (field-independent basis, Debye-Ang):
   XX=             -9.1668   YY=             -9.3064   ZZ=            -14.6873
   XY=             -3.0985   XZ=              0.0000   YZ=             -0.0000

 Normal termination of Gaussian 16 at Fri Aug 26 19:15:21 2022.
