 Gaussian 16, Revision A.03,
 Gaussian 16:  ES64L-G16RevA.03 25-Dec-2016

 ------------------
 #p CCSD(T)/cc-pVTZ
 ------------------

 -----------
 H2O_H2O_103
 -----------
 Symbolic Z-matrix:
 Charge =  0 Multiplicity = 1

                         Standard orientation:
 ---------------------------------------------------------------------
 Center     Atomic      Atomic             Coordinates (Angstroms)
 Number     Number       Type             X           Y           Z
 ---------------------------------------------------------------------
      1          8           0        0.085625   -1.135863    0.000000
      2          1           0        0.085037   -0.153262    0.000000
      3          1           0       -0.843678   -1.455085    0.000000
      4          8           0        0.085625    0.986320    0.000000
      5          1           0        0.276745    1.950156    0.000000
      6          1           0       -0.888099    0.854530    0.000000
 ---------------------------------------------------------------------

 SCF Done:  E(RHF) =  -152.039439785     A.U. after   11 cycles
 E2 =    -0.5380318772D+00 EUMP2 =    -0.15257747166252D+03
 CCSD(T)
 CCSD(T)= -0.15260311468D+03

 The electronic state is 1-A'.
 Alpha  occ. eigenvalues --  -20.61601 -20.46906  -1.43577  -1.26344  -0.82708
 Alpha  occ. eigenvalues --   -0.71729  -0.57991  -0.56245  -0.47493  -0.43093
 Alpha virt. eigenvalues --    0.10600   0.15873   0.21647   0.31800   0.49466
 Alpha virt. eigenvalues --    0.51050   0.60027   0.65867   0.71032   0.72458
 Alpha virt. eigenvalues --    0.75614   0.78570   0.80457   0.85977   0.86354

 Mulliken charges:
               1
     1  O   -0.613551
     2  H    0.264478
     3  H    0.190367
     4  O   -0.306850
     5  H    0.227727
     6  H    0.237828
 Sum of Mulliken charges =  -0.00000

 Dipole moment (field-independent basis, Debye):
    X=             -2.6424    Y=              4.2449    Z=              0.0000  Tot=              5.0001
 Quadrupole moment (field-independent basis, Debye-Ang):
   XX=            -10.3595   YY=             -9.9282   ZZ=            -14.5296
   XY=              2.2601   XZ=              0.0000   YZ=              0.0000

 Normal termination of Gaussian 16 at Fri Aug 26 15:52:42 2022.
