 Gaussian 16, Revision A.03,
 Gaussian 16:  ES64L-G16RevA.03 25-Dec-2016

 ------------------
 #p CCSD(T)/cc-pVTZ
 ------------------

 -----------
 H2O_H2O_185
 -----------
 Symbolic Z-matrix:
 Charge =  0 Multiplicity = 1

                         Standard orientation:
 ---------------------------------------------------------------------
 Center     Atomic      Atomic             Coordinates (Angstroms)
 Number     Number       Type             X           Y           Z
 ---------------------------------------------------------------------
      1          8           0        0.063343    1.179806    0.000000
      2          1           0        0.061034    0.197208    0.000000
      3          1           0       -0.865399    1.500656    0.000000
      4          8           0        0.063343   -1.004453   -0.000000
      5          1           0        0.659680   -1.785406   -0.000000
      6          1           0       -0.868799   -1.315288   -0.000000
 ---------------------------------------------------------------------

 SCF Done:  E(RHF) =  -152.065638974     A.U. after   11 cycles
 E2 =    -0.5351254279D+00 EUMP2 =    -0.15260076440152D+03
 CCSD(T)
 CCSD(T)= -0.15262656543D+03

 The electronic state is 1-A'.
 Alpha  occ. eigenvalues --  -20.61500 -20.46044  -1.41941  -1.25591  -0.78725
 Alpha  occ. eigenvalues --   -0.74701  -0.57496  -0.55942  -0.46476  -0.42264
 Alpha virt. eigenvalues --    0.10607   0.16462   0.20973   0.32827   0.48179
 Alpha virt. eigenvalues --    0.52293   0.61483   0.64042   0.71439   0.71673
 Alpha virt. eigenvalues --    0.78711   0.78840   0.81061   0.83291   0.85524

 Mulliken charges:
               1
     1  O   -0.640883
     2  H    0.295930
     3  H    0.204378
     4  O   -0.344901
     5  H    0.242103
     6  H    0.243373
 Sum of Mulliken charges =  -0.00000

 Dipole moment (field-independent basis, Debye):
    X=             -1.9477    Y=             -4.7097    Z=             -0.0000  Tot=              5.0966
 Quadrupole moment (field-independent basis, Debye-Ang):
   XX=             -9.4292   YY=             -9.9328   ZZ=            -14.5901
   XY=             -2.7245   XZ=             -0.0000   YZ=             -0.0000

 Normal termination of Gaussian 16 at Fri Aug 26 16:27:09 2022.
