 Gaussian 16, Revision A.03,
 Gaussian 16:  ES64L-G16RevA.03 25-Dec-2016

 ------------------
 #p CCSD(T)/cc-pVTZ
 ------------------

 ------------
 H2O_H2O_2156
 ------------
 Symbolic Z-matrix:
 Charge =  0 Multiplicity = 1

                         Standard orientation:
 ---------------------------------------------------------------------
 Center     Atomic      Atomic             Coordinates (Angstroms)
 Number     Number       Type             X           Y           Z
 ---------------------------------------------------------------------
      1          8           0        0.076769    1.960973   -0.000000
      2          1           0        0.076037    0.978372   -0.000000
      3          1           0       -0.852487    2.280331   -0.000000
      4          8           0        0.076769   -1.797784    0.000000
      5          1           0        0.452118   -2.705870    0.000000
      6          1           0       -0.903965   -1.858346    0.000000
 ---------------------------------------------------------------------

 SCF Done:  E(RHF) =  -152.110536309     A.U. after   10 cycles
 E2 =    -0.5264186548D+00 EUMP2 =    -0.15263695496366D+03
 CCSD(T)
 CCSD(T)= -0.15266405595D+03

 The electronic state is 1-A'.
 Alpha  occ. eigenvalues --  -20.57201 -20.54245  -1.34472  -1.31576  -0.71903
 Alpha  occ. eigenvalues --   -0.68953  -0.58050  -0.55027  -0.51593  -0.48707
 Alpha virt. eigenvalues --    0.11909   0.16415   0.19528   0.25158   0.52299
 Alpha virt. eigenvalues --    0.55800   0.56145   0.58197   0.68817   0.72286
 Alpha virt. eigenvalues --    0.76663   0.78806   0.80244   0.82947   0.83425

 Mulliken charges:
               1
     1  O   -0.520544
     2  H    0.266687
     3  H    0.246263
     4  O   -0.504979
     5  H    0.259783
     6  H    0.252790
 Sum of Mulliken charges =  -0.00000

 Dipole moment (field-independent basis, Debye):
    X=             -2.5972    Y=             -3.0345    Z=              0.0000  Tot=              3.9942
 Quadrupole moment (field-independent basis, Debye-Ang):
   XX=             -9.9696   YY=             -8.1832   ZZ=            -14.7216
   XY=             -3.1729   XZ=              0.0000   YZ=             -0.0000

 Normal termination of Gaussian 16 at Sun Aug 28 04:54:47 2022.
