 Gaussian 16, Revision A.03,
 Gaussian 16:  ES64L-G16RevA.03 25-Dec-2016

 ------------------
 #p CCSD(T)/cc-pVTZ
 ------------------

 ------------
 H2O_H2O_1783
 ------------
 Symbolic Z-matrix:
 Charge =  0 Multiplicity = 1

                         Standard orientation:
 ---------------------------------------------------------------------
 Center     Atomic      Atomic             Coordinates (Angstroms)
 Number     Number       Type             X           Y           Z
 ---------------------------------------------------------------------
      1          8           0        0.070221    1.815207   -0.000000
      2          1           0        0.069105    0.832607   -0.000000
      3          1           0       -0.858909    2.134929   -0.000000
      4          8           0        0.070221   -1.645000    0.000000
      5          1           0        0.560555   -2.496515    0.000000
      6          1           0       -0.894291   -1.832678    0.000000
 ---------------------------------------------------------------------

 SCF Done:  E(RHF) =  -152.111949813     A.U. after   10 cycles
 E2 =    -0.5267729101D+00 EUMP2 =    -0.15263872272330D+03
 CCSD(T)
 CCSD(T)= -0.15266577865D+03

 The electronic state is 1-A'.
 Alpha  occ. eigenvalues --  -20.57579 -20.53705  -1.34850  -1.31074  -0.72268
 Alpha  occ. eigenvalues --   -0.68507  -0.58526  -0.54489  -0.51973  -0.48212
 Alpha virt. eigenvalues --    0.11945   0.16847   0.19395   0.27023   0.50652
 Alpha virt. eigenvalues --    0.55382   0.56385   0.58563   0.69246   0.73060
 Alpha virt. eigenvalues --    0.75434   0.77612   0.80823   0.83175   0.83988

 Mulliken charges:
               1
     1  O   -0.527746
     2  H    0.270914
     3  H    0.244500
     4  O   -0.503065
     5  H    0.261057
     6  H    0.254340
 Sum of Mulliken charges =  -0.00000

 Dipole moment (field-independent basis, Debye):
    X=             -2.3641    Y=             -3.2470    Z=              0.0000  Tot=              4.0165
 Quadrupole moment (field-independent basis, Debye-Ang):
   XX=             -9.7018   YY=             -8.2092   ZZ=            -14.7274
   XY=             -3.3308   XZ=              0.0000   YZ=             -0.0000

 Normal termination of Gaussian 16 at Sun Aug 28 01:31:22 2022.
