 Gaussian 16, Revision A.03,
 Gaussian 16:  ES64L-G16RevA.03 25-Dec-2016

 ------------------
 #p CCSD(T)/cc-pVTZ
 ------------------

 -----------
 H2O_H2O_724
 -----------
 Symbolic Z-matrix:
 Charge =  0 Multiplicity = 1

                         Standard orientation:
 ---------------------------------------------------------------------
 Center     Atomic      Atomic             Coordinates (Angstroms)
 Number     Number       Type             X           Y           Z
 ---------------------------------------------------------------------
      1          8           0        0.013698   -1.380453    0.000000
      2          1           0        0.008517   -0.397866    0.000000
      3          1           0       -0.914102   -1.704016    0.000000
      4          8           0        0.013698    1.221253    0.000000
      5          1           0        0.996286    1.226434    0.000000
      6          1           0       -0.309866    2.149053    0.000000
 ---------------------------------------------------------------------

 SCF Done:  E(RHF) =  -152.106528030     A.U. after   10 cycles
 E2 =    -0.5303031590D+00 EUMP2 =    -0.15263683118908D+03
 CCSD(T)
 CCSD(T)= -0.15266349209D+03

 The electronic state is 1-A'.
 Alpha  occ. eigenvalues --  -20.59376 -20.50892  -1.37418  -1.28862  -0.75389
 Alpha  occ. eigenvalues --   -0.68068  -0.60072  -0.54208  -0.51452  -0.45929
 Alpha virt. eigenvalues --    0.11805   0.18197   0.19219   0.33461   0.48224
 Alpha virt. eigenvalues --    0.53733   0.57162   0.66491   0.68423   0.72104
 Alpha virt. eigenvalues --    0.74611   0.76268   0.79868   0.83537   0.84023

 Mulliken charges:
               1
     1  O   -0.593781
     2  H    0.294218
     3  H    0.247673
     4  O   -0.440418
     5  H    0.257650
     6  H    0.234658
 Sum of Mulliken charges =   0.00000

 Dipole moment (field-independent basis, Debye):
    X=             -0.4617    Y=              3.6021    Z=              0.0000  Tot=              3.6316
 Quadrupole moment (field-independent basis, Debye-Ang):
   XX=             -9.6153   YY=             -9.1383   ZZ=            -14.6897
   XY=              3.6775   XZ=              0.0000   YZ=              0.0000

 Normal termination of Gaussian 16 at Fri Aug 26 20:07:07 2022.
