 Gaussian 16, Revision A.03,
 Gaussian 16:  ES64L-G16RevA.03 25-Dec-2016

 ------------------
 #p CCSD(T)/cc-pVTZ
 ------------------

 ------------
 H2O_H2O_1395
 ------------
 Symbolic Z-matrix:
 Charge =  0 Multiplicity = 1

                         Standard orientation:
 ---------------------------------------------------------------------
 Center     Atomic      Atomic             Coordinates (Angstroms)
 Number     Number       Type             X           Y           Z
 ---------------------------------------------------------------------
      1          8           0        0.026753    1.657274    0.000000
      2          1           0        0.023171    0.674679    0.000000
      3          1           0       -0.901572    1.979327    0.000000
      4          8           0        0.026753   -1.484108   -0.000000
      5          1           0        0.974940   -1.741883   -0.000000
      6          1           0       -0.524595   -2.297448   -0.000000
 ---------------------------------------------------------------------

 SCF Done:  E(RHF) =  -152.113923741     A.U. after   10 cycles
 E2 =    -0.5273190280D+00 EUMP2 =    -0.15264124276867D+03
 CCSD(T)
 CCSD(T)= -0.15266822203D+03

 The electronic state is 1-A'.
 Alpha  occ. eigenvalues --  -20.58071 -20.52828  -1.35398  -1.30304  -0.72785
 Alpha  occ. eigenvalues --   -0.68017  -0.59234  -0.53598  -0.52514  -0.47457
 Alpha virt. eigenvalues --    0.12112   0.17834   0.18910   0.29637   0.50155
 Alpha virt. eigenvalues --    0.54367   0.55865   0.60789   0.68768   0.72979
 Alpha virt. eigenvalues --    0.73851   0.77063   0.81665   0.82819   0.84553

 Mulliken charges:
               1
     1  O   -0.548616
     2  H    0.279516
     3  H    0.249716
     4  O   -0.501258
     5  H    0.264781
     6  H    0.255861
 Sum of Mulliken charges =  -0.00000

 Dipole moment (field-independent basis, Debye):
    X=             -0.9000    Y=             -3.4391    Z=             -0.0000  Tot=              3.5549
 Quadrupole moment (field-independent basis, Debye-Ang):
   XX=             -9.2872   YY=             -8.4381   ZZ=            -14.7333
   XY=             -4.0469   XZ=             -0.0000   YZ=              0.0000

 CCSD(T)=-152.668222\RMSD=6.403e-09\PG=CS [SG(H4O2)]\\@
 Normal termination of Gaussian 16 at Sat Aug 27 00:19:30 2022.
