 Gaussian 16, Revision A.03,
 Gaussian 16:  ES64L-G16RevA.03 25-Dec-2016

 ------------------
 #p CCSD(T)/cc-pVTZ
 ------------------

 ------------
 H2O_H2O_1820
 ------------
 Symbolic Z-matrix:
 Charge =  0 Multiplicity = 1

                         Standard orientation:
 ---------------------------------------------------------------------
 Center     Atomic      Atomic             Coordinates (Angstroms)
 Number     Number       Type             X           Y           Z
 ---------------------------------------------------------------------
      1          8           0        0.026723    1.826805    0.000000
      2          1           0        0.023489    0.844209    0.000000
      3          1           0       -0.901717    2.148528    0.000000
      4          8           0        0.026723   -1.653621   -0.000000
      5          1           0        0.975001   -1.911058   -0.000000
      6          1           0       -0.524336   -2.467156   -0.000000
 ---------------------------------------------------------------------

 SCF Done:  E(RHF) =  -152.112885551     A.U. after   10 cycles
 E2 =    -0.5265805916D+00 EUMP2 =    -0.15263946614272D+03
 CCSD(T)
 CCSD(T)= -0.15266651189D+03

 The electronic state is 1-A'.
 Alpha  occ. eigenvalues --  -20.57517 -20.53555  -1.34784  -1.30935  -0.72179
 Alpha  occ. eigenvalues --   -0.68406  -0.58528  -0.54369  -0.51919  -0.48093
 Alpha virt. eigenvalues --    0.12212   0.17239   0.19106   0.27183   0.51713
 Alpha virt. eigenvalues --    0.54436   0.56117   0.59332   0.69028   0.72880
 Alpha virt. eigenvalues --    0.75567   0.77656   0.80906   0.83301   0.84409

 Mulliken charges:
               1
     1  O   -0.534828
     2  H    0.270328
     3  H    0.251530
     4  O   -0.508279
     5  H    0.262704
     6  H    0.258545
 Sum of Mulliken charges =   0.00000

 Dipole moment (field-independent basis, Debye):
    X=             -0.9054    Y=             -3.2993    Z=             -0.0000  Tot=              3.4213
 Quadrupole moment (field-independent basis, Debye-Ang):
   XX=             -9.2897   YY=             -8.1310   ZZ=            -14.7311
   XY=             -4.4427   XZ=             -0.0000   YZ=             -0.0000

 Normal termination of Gaussian 16 at Sun Aug 28 01:54:32 2022.
