 Gaussian 16, Revision A.03,
 Gaussian 16:  ES64L-G16RevA.03 25-Dec-2016

 ------------------
 #p CCSD(T)/cc-pVTZ
 ------------------

 -----------
 H2O_H2O_191
 -----------
 Symbolic Z-matrix:
 Charge =  0 Multiplicity = 1

                         Standard orientation:
 ---------------------------------------------------------------------
 Center     Atomic      Atomic             Coordinates (Angstroms)
 Number     Number       Type             X           Y           Z
 ---------------------------------------------------------------------
      1          8           0        0.041331    1.182201   -0.000000
      2          1           0        0.037305    0.199608   -0.000000
      3          1           0       -0.886848    1.504673   -0.000000
      4          8           0        0.041331   -1.002452    0.000000
      5          1           0        0.890269   -1.497235    0.000000
      6          1           0       -0.702028   -1.645043    0.000000
 ---------------------------------------------------------------------

 SCF Done:  E(RHF) =  -152.067390043     A.U. after   11 cycles
 E2 =    -0.5344683173D+00 EUMP2 =    -0.15260185836056D+03
 CCSD(T)
 CCSD(T)= -0.15262765998D+03

 The electronic state is 1-A'.
 Alpha  occ. eigenvalues --  -20.61494 -20.45533  -1.41858  -1.25222  -0.77590
 Alpha  occ. eigenvalues --   -0.75887  -0.57507  -0.55940  -0.45871  -0.41875
 Alpha virt. eigenvalues --    0.10658   0.16910   0.20726   0.33424   0.46808
 Alpha virt. eigenvalues --    0.52493   0.62392   0.66133   0.70327   0.71447
 Alpha virt. eigenvalues --    0.78613   0.79895   0.80422   0.82367   0.85268

 Mulliken charges:
               1
     1  O   -0.657317
     2  H    0.300125
     3  H    0.213089
     4  O   -0.356536
     5  H    0.258118
     6  H    0.242520
 Sum of Mulliken charges =  -0.00000

 Dipole moment (field-independent basis, Debye):
    X=             -1.2720    Y=             -4.8341    Z=              0.0000  Tot=              4.9987
 Quadrupole moment (field-independent basis, Debye-Ang):
   XX=             -9.0950   YY=             -9.9934   ZZ=            -14.6001
   XY=             -2.7875   XZ=              0.0000   YZ=             -0.0000

 Normal termination of Gaussian 16 at Fri Aug 26 16:29:33 2022.
