 Gaussian 16, Revision A.03,
 Gaussian 16:  ES64L-G16RevA.03 25-Dec-2016

 ------------------
 #p CCSD(T)/cc-pVTZ
 ------------------

 ------------
 H2O_H2O_3240
 ------------
 Symbolic Z-matrix:
 Charge =  0 Multiplicity = 1

                         Standard orientation:
 ---------------------------------------------------------------------
 Center     Atomic      Atomic             Coordinates (Angstroms)
 Number     Number       Type             X           Y           Z
 ---------------------------------------------------------------------
      1          8           0        0.044855    2.399119   -0.000000
      2          1           0        0.043087    1.416519   -0.000000
      3          1           0       -0.884063    2.719458   -0.000000
      4          8           0        0.044855   -2.218716    0.000000
      5          1           0        0.860875   -2.766090    0.000000
      6          1           0       -0.737576   -2.813113    0.000000
 ---------------------------------------------------------------------

 SCF Done:  E(RHF) =  -152.109556557     A.U. after   10 cycles
 E2 =    -0.5258909737D+00 EUMP2 =    -0.15263544753105D+03
 CCSD(T)
 CCSD(T)= -0.15266260166D+03

 The electronic state is 1-A'.
 Alpha  occ. eigenvalues --  -20.56542 -20.54539  -1.33826  -1.31857  -0.71227
 Alpha  occ. eigenvalues --   -0.69253  -0.57359  -0.55343  -0.50953  -0.48990
 Alpha virt. eigenvalues --    0.12628   0.15747   0.19508   0.22211   0.53301
 Alpha virt. eigenvalues --    0.55278   0.56427   0.58270   0.67568   0.69358
 Alpha virt. eigenvalues --    0.77952   0.79054   0.79368   0.79841   0.83153

 Mulliken charges:
               1
     1  O   -0.518022
     2  H    0.263699
     3  H    0.252246
     4  O   -0.515150
     5  H    0.259898
     6  H    0.257328
 Sum of Mulliken charges =  -0.00000

 Dipole moment (field-independent basis, Debye):
    X=             -1.5313    Y=             -3.2294    Z=              0.0000  Tot=              3.5741
 Quadrupole moment (field-independent basis, Debye-Ang):
   XX=             -9.1570   YY=             -7.0280   ZZ=            -14.7189
   XY=             -4.9508   XZ=              0.0000   YZ=              0.0000

 Normal termination of Gaussian 16 at Fri Aug 26 20:34:54 2022.
