 Gaussian 16, Revision A.03,
 Gaussian 16:  ES64L-G16RevA.03 25-Dec-2016

 ------------------
 #p CCSD(T)/cc-pVTZ
 ------------------

 -----------
 H2O_H2O_894
 -----------
 Symbolic Z-matrix:
 Charge =  0 Multiplicity = 1

                         Standard orientation:
 ---------------------------------------------------------------------
 Center     Atomic      Atomic             Coordinates (Angstroms)
 Number     Number       Type             X           Y           Z
 ---------------------------------------------------------------------
      1          8           0        0.030326    1.459112    0.000000
      2          1           0        0.026441    0.476519    0.000000
      3          1           0       -0.897900    1.781451   -0.000000
      4          8           0        0.030326   -1.283599   -0.000000
      5          1           0        0.959525   -1.603122    0.000000
      6          1           0       -0.573276   -2.058952   -0.000000
 ---------------------------------------------------------------------

 SCF Done:  E(RHF) =  -152.112083120     A.U. after   10 cycles
 E2 =    -0.5291068649D+00 EUMP2 =    -0.15264118998511D+03
 CCSD(T)
 CCSD(T)= -0.15266796264D+03

 The electronic state is 1-A'.
 Alpha  occ. eigenvalues --  -20.59052 -20.51158  -1.36698  -1.28969  -0.73970
 Alpha  occ. eigenvalues --   -0.68265  -0.59825  -0.53695  -0.51815  -0.46065
 Alpha virt. eigenvalues --    0.11823   0.18445   0.18755   0.32603   0.48340
 Alpha virt. eigenvalues --    0.54535   0.56879   0.63538   0.68349   0.72535
 Alpha virt. eigenvalues --    0.72604   0.77478   0.81727   0.83025   0.84437

 Mulliken charges:
               1
     1  O   -0.580393
     2  H    0.299651
     3  H    0.243113
     4  O   -0.477739
     5  H    0.264481
     6  H    0.250886
 Sum of Mulliken charges =  -0.00000

 Dipole moment (field-independent basis, Debye):
    X=             -1.0009    Y=             -3.7904    Z=             -0.0000  Tot=              3.9203
 Quadrupole moment (field-independent basis, Debye-Ang):
   XX=             -9.2156   YY=             -8.9038   ZZ=            -14.7170
   XY=             -3.5164   XZ=             -0.0000   YZ=             -0.0000

 Normal termination of Gaussian 16 at Fri Aug 26 21:11:16 2022.
