 Gaussian 16, Revision A.03,
 Gaussian 16:  ES64L-G16RevA.03 25-Dec-2016

 ------------------
 #p CCSD(T)/cc-pVTZ
 ------------------

 ------------
 H2O_H2O_4496
 ------------
 Symbolic Z-matrix:
 Charge =  0 Multiplicity = 1

                         Standard orientation:
 ---------------------------------------------------------------------
 Center     Atomic      Atomic             Coordinates (Angstroms)
 Number     Number       Type             X           Y           Z
 ---------------------------------------------------------------------
      1          8           0       -0.023165    2.892289    0.000000
      2          1           0       -0.021057    1.909690    0.000000
      3          1           0        0.905642    3.212950    0.000000
      4          8           0       -0.023165   -2.721879    0.000000
      5          1           0       -0.986473   -2.915642    0.000000
      6          1           0        0.472536   -3.570282    0.000000
 ---------------------------------------------------------------------

 SCF Done:  E(RHF) =  -152.108471342     A.U. after   10 cycles
 E2 =    -0.5257989467D+00 EUMP2 =    -0.15263427028897D+03
 CCSD(T)
 CCSD(T)= -0.15266146693D+03

 The electronic state is 1-A'.
 Alpha  occ. eigenvalues --  -20.56181 -20.55006  -1.33483  -1.32314  -0.70888
 Alpha  occ. eigenvalues --   -0.69719  -0.56978  -0.55788  -0.50602  -0.49438
 Alpha virt. eigenvalues --    0.13296   0.14923   0.19563   0.21160   0.53526
 Alpha virt. eigenvalues --    0.54898   0.56673   0.57790   0.66837   0.68702
 Alpha virt. eigenvalues --    0.78283   0.79418   0.79506   0.80521   0.82554

 Mulliken charges:
               1
     1  O   -0.514432
     2  H    0.259870
     3  H    0.254441
     4  O   -0.514988
     5  H    0.257429
     6  H    0.257679
 Sum of Mulliken charges =  -0.00000

 Dipole moment (field-independent basis, Debye):
    X=              0.7955    Y=             -2.9904    Z=              0.0000  Tot=              3.0944
 Quadrupole moment (field-independent basis, Debye-Ang):
   XX=             -9.3622   YY=             -6.7929   ZZ=            -14.7150
   XY=              7.1186   XZ=              0.0000   YZ=              0.0000

 Normal termination of Gaussian 16 at Sun Aug 28 03:21:32 2022.
