 Gaussian 16, Revision A.03,
 Gaussian 16:  ES64L-G16RevA.03 25-Dec-2016

 ------------------
 #p CCSD(T)/cc-pVTZ
 ------------------

 ------------
 H2O_H2O_4028
 ------------
 Symbolic Z-matrix:
 Charge =  0 Multiplicity = 1

                         Standard orientation:
 ---------------------------------------------------------------------
 Center     Atomic      Atomic             Coordinates (Angstroms)
 Number     Number       Type             X           Y           Z
 ---------------------------------------------------------------------
      1          8           0        0.085598   -2.701487    0.000000
      2          1           0        0.085361   -1.718885    0.000000
      3          1           0       -0.843818   -3.020378    0.000000
      4          8           0        0.085598    2.551883    0.000000
      5          1           0        0.277061    3.515651    0.000000
      6          1           0       -0.888172    2.420440    0.000000
 ---------------------------------------------------------------------

 SCF Done:  E(RHF) =  -152.107988369     A.U. after   10 cycles
 E2 =    -0.5258803669D+00 EUMP2 =    -0.15263386873620D+03
 CCSD(T)
 CCSD(T)= -0.15266107147D+03

 The electronic state is 1-A'.
 Alpha  occ. eigenvalues --  -20.56302 -20.55141  -1.33603  -1.32445  -0.71017
 Alpha  occ. eigenvalues --   -0.69839  -0.57075  -0.55903  -0.50715  -0.49561
 Alpha virt. eigenvalues --    0.12573   0.15024   0.19123   0.21754   0.53169
 Alpha virt. eigenvalues --    0.54986   0.56510   0.57858   0.66738   0.68825
 Alpha virt. eigenvalues --    0.78181   0.79124   0.79305   0.81121   0.82477

 Mulliken charges:
               1
     1  O   -0.510954
     2  H    0.259064
     3  H    0.251614
     4  O   -0.511952
     5  H    0.259113
     6  H    0.253114
 Sum of Mulliken charges =  -0.00000

 Dipole moment (field-independent basis, Debye):
    X=             -2.9308    Y=              2.6378    Z=              0.0000  Tot=              3.9431
 Quadrupole moment (field-independent basis, Debye-Ang):
   XX=            -10.3991   YY=             -8.2208   ZZ=            -14.7131
   XY=              2.8917   XZ=              0.0000   YZ=              0.0000

 Normal termination of Gaussian 16 at Sat Aug 27 01:05:55 2022.
