 Gaussian 16, Revision A.03,
 Gaussian 16:  ES64L-G16RevA.03 25-Dec-2016

 ------------------
 #p CCSD(T)/cc-pVTZ
 ------------------

 ------------
 H2O_H2O_2772
 ------------
 Symbolic Z-matrix:
 Charge =  0 Multiplicity = 1

                         Standard orientation:
 ---------------------------------------------------------------------
 Center     Atomic      Atomic             Coordinates (Angstroms)
 Number     Number       Type             X           Y           Z
 ---------------------------------------------------------------------
      1          8           0       -0.019877    2.202430    0.000000
      2          1           0       -0.016950    1.219833    0.000000
      3          1           0        0.908662    2.523864    0.000000
      4          8           0       -0.019877   -2.035334    0.000000
      5          1           0       -0.993686   -2.166491    0.000000
      6          1           0        0.420006   -2.913975    0.000000
 ---------------------------------------------------------------------

 SCF Done:  E(RHF) =  -152.110253156     A.U. after   10 cycles
 E2 =    -0.5259787687D+00 EUMP2 =    -0.15263623192427D+03
 CCSD(T)
 CCSD(T)= -0.15266336231D+03

 The electronic state is 1-A'.
 Alpha  occ. eigenvalues --  -20.56746 -20.54466  -1.34026  -1.31790  -0.71432
 Alpha  occ. eigenvalues --   -0.69196  -0.57586  -0.55282  -0.51156  -0.48931
 Alpha virt. eigenvalues --    0.12291   0.16132   0.19287   0.23535   0.53685
 Alpha virt. eigenvalues --    0.55589   0.56367   0.58464   0.68739   0.69611
 Alpha virt. eigenvalues --    0.77680   0.79052   0.79909   0.80447   0.83324

 Mulliken charges:
               1
     1  O   -0.521994
     2  H    0.264197
     3  H    0.254067
     4  O   -0.513970
     5  H    0.259289
     6  H    0.258412
 Sum of Mulliken charges =  -0.00000

 Dipole moment (field-independent basis, Debye):
    X=              0.6805    Y=             -3.0274    Z=              0.0000  Tot=              3.1030
 Quadrupole moment (field-independent basis, Debye-Ang):
   XX=             -9.4469   YY=             -7.7767   ZZ=            -14.7208
   XY=              5.6150   XZ=              0.0000   YZ=              0.0000

 Normal termination of Gaussian 16 at Fri Aug 26 17:12:40 2022.
