 Gaussian 16, Revision A.03,
 Gaussian 16:  ES64L-G16RevA.03 25-Dec-2016

 ------------------
 #p CCSD(T)/cc-pVTZ
 ------------------

 ------------
 H2O_H2O_1469
 ------------
 Symbolic Z-matrix:
 Charge =  0 Multiplicity = 1

                         Standard orientation:
 ---------------------------------------------------------------------
 Center     Atomic      Atomic             Coordinates (Angstroms)
 Number     Number       Type             X           Y           Z
 ---------------------------------------------------------------------
      1          8           0        0.030276    1.688482    0.000000
      2          1           0        0.026948    0.705887    0.000000
      3          1           0       -0.898133    2.010295    0.000000
      4          8           0        0.030276   -1.512935   -0.000000
      5          1           0        0.959656   -1.831931   -0.000000
      6          1           0       -0.572885   -2.288630   -0.000000
 ---------------------------------------------------------------------

 SCF Done:  E(RHF) =  -152.113928282     A.U. after   10 cycles
 E2 =    -0.5271563673D+00 EUMP2 =    -0.15264108464933D+03
 CCSD(T)
 CCSD(T)= -0.15266807685D+03

 The electronic state is 1-A'.
 Alpha  occ. eigenvalues --  -20.57972 -20.52928  -1.35275  -1.30382  -0.72644
 Alpha  occ. eigenvalues --   -0.68043  -0.59110  -0.53711  -0.52400  -0.47537
 Alpha virt. eigenvalues --    0.12124   0.17747   0.18922   0.29204   0.50334
 Alpha virt. eigenvalues --    0.54323   0.55938   0.60341   0.68831   0.72672
 Alpha virt. eigenvalues --    0.74160   0.77063   0.81549   0.82959   0.84632

 Mulliken charges:
               1
     1  O   -0.545374
     2  H    0.277857
     3  H    0.249267
     4  O   -0.504434
     5  H    0.264848
     6  H    0.257836
 Sum of Mulliken charges =  -0.00000

 Dipole moment (field-independent basis, Debye):
    X=             -1.0181    Y=             -3.4563    Z=             -0.0000  Tot=              3.6032
 Quadrupole moment (field-independent basis, Debye-Ang):
   XX=             -9.2294   YY=             -8.3509   ZZ=            -14.7344
   XY=             -4.0368   XZ=             -0.0000   YZ=             -0.0000

 Normal termination of Gaussian 16 at Sat Aug 27 00:46:25 2022.
