 Gaussian 16, Revision A.03,
 Gaussian 16:  ES64L-G16RevA.03 25-Dec-2016

 ------------------
 #p CCSD(T)/cc-pVTZ
 ------------------

 ------------
 H2O_H2O_4564
 ------------
 Symbolic Z-matrix:
 Charge =  0 Multiplicity = 1

                         Standard orientation:
 ---------------------------------------------------------------------
 Center     Atomic      Atomic             Coordinates (Angstroms)
 Number     Number       Type             X           Y           Z
 ---------------------------------------------------------------------
      1          8           0        0.048552    2.927639   -0.000000
      2          1           0        0.047224    1.945039   -0.000000
      3          1           0       -0.880510    3.247561   -0.000000
      4          8           0        0.048552   -2.747218    0.000000
      5          1           0        0.827294   -3.346439    0.000000
      6          1           0       -0.770837   -3.289536    0.000000
 ---------------------------------------------------------------------

 SCF Done:  E(RHF) =  -152.108387227     A.U. after   10 cycles
 E2 =    -0.5258084988D+00 EUMP2 =    -0.15263419572555D+03
 CCSD(T)
 CCSD(T)= -0.15266139381D+03

 The electronic state is 1-A'.
 Alpha  occ. eigenvalues --  -20.56174 -20.54955  -1.33476  -1.32263  -0.70880
 Alpha  occ. eigenvalues --   -0.69664  -0.56968  -0.55733  -0.50594  -0.49385
 Alpha virt. eigenvalues --    0.13395   0.14908   0.19708   0.21017   0.53671
 Alpha virt. eigenvalues --    0.54843   0.56672   0.57795   0.66868   0.68722
 Alpha virt. eigenvalues --    0.78292   0.79471   0.79696   0.80171   0.82639

 Mulliken charges:
               1
     1  O   -0.513743
     2  H    0.260344
     3  H    0.253289
     4  O   -0.514483
     5  H    0.258210
     6  H    0.256383
 Sum of Mulliken charges =  -0.00000

 Dipole moment (field-independent basis, Debye):
    X=             -1.6653    Y=             -3.1655    Z=              0.0000  Tot=              3.5769
 Quadrupole moment (field-independent basis, Debye-Ang):
   XX=             -9.1821   YY=             -6.1748   ZZ=            -14.7147
   XY=             -5.6069   XZ=              0.0000   YZ=             -0.0000

 Normal termination of Gaussian 16 at Sun Aug 28 03:55:33 2022.
