 Gaussian 16, Revision A.03,
 Gaussian 16:  ES64L-G16RevA.03 25-Dec-2016

 ------------------
 #p CCSD(T)/cc-pVTZ
 ------------------

 ------------
 H2O_H2O_3171
 ------------
 Symbolic Z-matrix:
 Charge =  0 Multiplicity = 1

                         Standard orientation:
 ---------------------------------------------------------------------
 Center     Atomic      Atomic             Coordinates (Angstroms)
 Number     Number       Type             X           Y           Z
 ---------------------------------------------------------------------
      1          8           0       -0.023208    2.363767    0.000000
      2          1           0       -0.020610    1.381169    0.000000
      3          1           0        0.905439    2.684889    0.000000
      4          8           0       -0.023208   -2.193379    0.000000
      5          1           0       -0.986419   -2.387623    0.000000
      6          1           0        0.472916   -3.041535    0.000000
 ---------------------------------------------------------------------

 SCF Done:  E(RHF) =  -152.109648398     A.U. after   10 cycles
 E2 =    -0.5258887119D+00 EUMP2 =    -0.15263553711040D+03
 CCSD(T)
 CCSD(T)= -0.15266268937D+03

 The electronic state is 1-A'.
 Alpha  occ. eigenvalues --  -20.56556 -20.54614  -1.33843  -1.31932  -0.71247
 Alpha  occ. eigenvalues --   -0.69336  -0.57378  -0.55421  -0.50970  -0.49067
 Alpha virt. eigenvalues --    0.12468   0.15791   0.19354   0.22563   0.53445
 Alpha virt. eigenvalues --    0.55458   0.56473   0.58209   0.67678   0.69346
 Alpha virt. eigenvalues --    0.77929   0.78778   0.79767   0.80201   0.83106

 Mulliken charges:
               1
     1  O   -0.519087
     2  H    0.262979
     3  H    0.253997
     4  O   -0.515558
     5  H    0.259033
     6  H    0.258636
 Sum of Mulliken charges =  -0.00000

 Dipole moment (field-independent basis, Debye):
    X=              0.7942    Y=             -3.0525    Z=              0.0000  Tot=              3.1541
 Quadrupole moment (field-independent basis, Debye-Ang):
   XX=             -9.3612   YY=             -7.4597   ZZ=            -14.7191
   XY=              5.8466   XZ=              0.0000   YZ=              0.0000

 Normal termination of Gaussian 16 at Fri Aug 26 20:12:07 2022.
