 Gaussian 16, Revision A.03,
 Gaussian 16:  ES64L-G16RevA.03 25-Dec-2016

 ------------------
 #p CCSD(T)/cc-pVTZ
 ------------------

 ------------
 H2O_H2O_1797
 ------------
 Symbolic Z-matrix:
 Charge =  0 Multiplicity = 1

                         Standard orientation:
 ---------------------------------------------------------------------
 Center     Atomic      Atomic             Coordinates (Angstroms)
 Number     Number       Type             X           Y           Z
 ---------------------------------------------------------------------
      1          8           0       -0.019933    1.813513    0.000000
      2          1           0       -0.016348    0.830919    0.000000
      3          1           0        0.908391    2.135569    0.000000
      4          8           0       -0.019933   -1.646444    0.000000
      5          1           0       -0.993654   -1.778253    0.000000
      6          1           0        0.420539   -2.524789    0.000000
 ---------------------------------------------------------------------

 SCF Done:  E(RHF) =  -152.112696496     A.U. after   10 cycles
 E2 =    -0.5266094477D+00 EUMP2 =    -0.15263930594392D+03
 CCSD(T)
 CCSD(T)= -0.15266635522D+03

 The electronic state is 1-A'.
 Alpha  occ. eigenvalues --  -20.57520 -20.53655  -1.34799  -1.31035  -0.72221
 Alpha  occ. eigenvalues --   -0.68497  -0.58534  -0.54463  -0.51929  -0.48192
 Alpha virt. eigenvalues --    0.12198   0.17203   0.19162   0.27285   0.51876
 Alpha virt. eigenvalues --    0.54374   0.55966   0.59533   0.68936   0.73328
 Alpha virt. eigenvalues --    0.75444   0.77895   0.80847   0.83239   0.84268

 Mulliken charges:
               1
     1  O   -0.535230
     2  H    0.269756
     3  H    0.252923
     4  O   -0.507648
     5  H    0.262365
     6  H    0.257834
 Sum of Mulliken charges =  -0.00000

 Dipole moment (field-independent basis, Debye):
    X=              0.6792    Y=             -3.1861    Z=              0.0000  Tot=              3.2577
 Quadrupole moment (field-independent basis, Debye-Ang):
   XX=             -9.4483   YY=             -8.2635   ZZ=            -14.7300
   XY=              4.6308   XZ=              0.0000   YZ=              0.0000

 Normal termination of Gaussian 16 at Sun Aug 28 01:40:22 2022.
