 Gaussian 16, Revision A.03,
 Gaussian 16:  ES64L-G16RevA.03 25-Dec-2016

 ------------------
 #p CCSD(T)/cc-pVTZ
 ------------------

 ------------
 H2O_H2O_1613
 ------------
 Symbolic Z-matrix:
 Charge =  0 Multiplicity = 1

                         Standard orientation:
 ---------------------------------------------------------------------
 Center     Atomic      Atomic             Coordinates (Angstroms)
 Number     Number       Type             X           Y           Z
 ---------------------------------------------------------------------
      1          8           0        0.052349    1.750636    0.000000
      2          1           0        0.050271    0.768037    0.000000
      3          1           0       -0.876468    2.071267    0.000000
      4          8           0        0.052349   -1.570804   -0.000000
      5          1           0        0.789736   -2.220239   -0.000000
      6          1           0       -0.801127   -2.057718   -0.000000
 ---------------------------------------------------------------------

 SCF Done:  E(RHF) =  -152.113434467     A.U. after   10 cycles
 E2 =    -0.5269452604D+00 EUMP2 =    -0.15264037972757D+03
 CCSD(T)
 CCSD(T)= -0.15266739737D+03

 The electronic state is 1-A'.
 Alpha  occ. eigenvalues --  -20.57805 -20.53154  -1.35073  -1.30568  -0.72429
 Alpha  occ. eigenvalues --   -0.68128  -0.58859  -0.53949  -0.52207  -0.47718
 Alpha virt. eigenvalues --    0.12069   0.17383   0.19070   0.28311   0.50182
 Alpha virt. eigenvalues --    0.54811   0.56272   0.59250   0.69138   0.72202
 Alpha virt. eigenvalues --    0.74785   0.76826   0.81304   0.83126   0.84676

 Mulliken charges:
               1
     1  O   -0.537173
     2  H    0.275273
     3  H    0.245787
     4  O   -0.506201
     5  H    0.264373
     6  H    0.257942
 Sum of Mulliken charges =  -0.00000

 Dipole moment (field-independent basis, Debye):
    X=             -1.7582    Y=             -3.4870    Z=             -0.0000  Tot=              3.9052
 Quadrupole moment (field-independent basis, Debye-Ang):
   XX=             -9.2339   YY=             -8.1775   ZZ=            -14.7338
   XY=             -3.7156   XZ=             -0.0000   YZ=              0.0000

 Normal termination of Gaussian 16 at Sat Aug 27 23:54:02 2022.
