 Gaussian 16, Revision A.03,
 Gaussian 16:  ES64L-G16RevA.03 25-Dec-2016

 ------------------
 #p CCSD(T)/cc-pVTZ
 ------------------

 ------------
 H2O_H2O_1617
 ------------
 Symbolic Z-matrix:
 Charge =  0 Multiplicity = 1

                         Standard orientation:
 ---------------------------------------------------------------------
 Center     Atomic      Atomic             Coordinates (Angstroms)
 Number     Number       Type             X           Y           Z
 ---------------------------------------------------------------------
      1          8           0        0.037515    1.750137   -0.000000
      2          1           0        0.034678    0.767539   -0.000000
      3          1           0       -0.891054    2.071485   -0.000000
      4          8           0        0.037515   -1.571230    0.000000
      5          1           0        0.917526   -2.008366    0.000000
      6          1           0       -0.661390   -2.261909    0.000000
 ---------------------------------------------------------------------

 SCF Done:  E(RHF) =  -152.113666488     A.U. after   10 cycles
 E2 =    -0.5268899373D+00 EUMP2 =    -0.15264055642501D+03
 CCSD(T)
 CCSD(T)= -0.15266757162D+03

 The electronic state is 1-A'.
 Alpha  occ. eigenvalues --  -20.57786 -20.53136  -1.35057  -1.30554  -0.72416
 Alpha  occ. eigenvalues --   -0.68120  -0.58866  -0.53937  -0.52193  -0.47710
 Alpha virt. eigenvalues --    0.12145   0.17536   0.18981   0.28350   0.50636
 Alpha virt. eigenvalues --    0.54423   0.56132   0.59623   0.68966   0.72321
 Alpha virt. eigenvalues --    0.74787   0.76997   0.81314   0.83146   0.84705

 Mulliken charges:
               1
     1  O   -0.539653
     2  H    0.274846
     3  H    0.248532
     4  O   -0.507269
     5  H    0.264453
     6  H    0.259092
 Sum of Mulliken charges =  -0.00000

 Dipole moment (field-independent basis, Debye):
    X=             -1.2623    Y=             -3.4694    Z=              0.0000  Tot=              3.6919
 Quadrupole moment (field-independent basis, Debye-Ang):
   XX=             -9.1611   YY=             -8.1883   ZZ=            -14.7345
   XY=             -4.0103   XZ=              0.0000   YZ=             -0.0000

 Normal termination of Gaussian 16 at Sat Aug 27 23:55:47 2022.
