 Gaussian 16, Revision A.03,
 Gaussian 16:  ES64L-G16RevA.03 25-Dec-2016

 ------------------
 #p CCSD(T)/cc-pVTZ
 ------------------

 ------------
 H2O_H2O_1347
 ------------
 Symbolic Z-matrix:
 Charge =  0 Multiplicity = 1

                         Standard orientation:
 ---------------------------------------------------------------------
 Center     Atomic      Atomic             Coordinates (Angstroms)
 Number     Number       Type             X           Y           Z
 ---------------------------------------------------------------------
      1          8           0       -0.019968    1.634011    0.000000
      2          1           0       -0.015968    0.651418    0.000000
      3          1           0        0.908220    1.956459    0.000000
      4          8           0       -0.019968   -1.466959    0.000000
      5          1           0       -0.993633   -1.599179    0.000000
      6          1           0        0.420874   -2.345118    0.000000
 ---------------------------------------------------------------------

 SCF Done:  E(RHF) =  -152.113570055     A.U. after   10 cycles
 E2 =    -0.5274435269D+00 EUMP2 =    -0.15264101358213D+03
 CCSD(T)
 CCSD(T)= -0.15266798983D+03

 The electronic state is 1-A'.
 Alpha  occ. eigenvalues --  -20.58115 -20.52882  -1.35474  -1.30368  -0.72933
 Alpha  occ. eigenvalues --   -0.68057  -0.59302  -0.53636  -0.52575  -0.47517
 Alpha virt. eigenvalues --    0.12115   0.17805   0.18997   0.29893   0.50143
 Alpha virt. eigenvalues --    0.54464   0.55746   0.61264   0.68753   0.73614
 Alpha virt. eigenvalues --    0.73723   0.76974   0.81666   0.82595   0.84371

 Mulliken charges:
               1
     1  O   -0.550771
     2  H    0.279549
     3  H    0.251397
     4  O   -0.495278
     5  H    0.263891
     6  H    0.251212
 Sum of Mulliken charges =  -0.00000

 Dipole moment (field-independent basis, Debye):
    X=              0.6763    Y=             -3.3376    Z=              0.0000  Tot=              3.4054
 Quadrupole moment (field-independent basis, Debye-Ang):
   XX=             -9.4447   YY=             -8.5472   ZZ=            -14.7302
   XY=              4.1714   XZ=              0.0000   YZ=              0.0000

 Normal termination of Gaussian 16 at Sat Aug 27 00:00:45 2022.
