 Gaussian 16, Revision A.03,
 Gaussian 16:  ES64L-G16RevA.03 25-Dec-2016

 ------------------
 #p CCSD(T)/cc-pVTZ
 ------------------

 ------------
 H2O_H2O_3079
 ------------
 Symbolic Z-matrix:
 Charge =  0 Multiplicity = 1

                         Standard orientation:
 ---------------------------------------------------------------------
 Center     Atomic      Atomic             Coordinates (Angstroms)
 Number     Number       Type             X           Y           Z
 ---------------------------------------------------------------------
      1          8           0        0.082804   -2.325222    0.000000
      2          1           0        0.082421   -1.342621    0.000000
      3          1           0       -0.846565   -2.644251    0.000000
      4          8           0        0.082804    2.170705    0.000000
      5          1           0        0.336750    3.119925    0.000000
      6          1           0       -0.897468    2.103086    0.000000
 ---------------------------------------------------------------------

 SCF Done:  E(RHF) =  -152.108706394     A.U. after   10 cycles
 E2 =    -0.5260089538D+00 EUMP2 =    -0.15263471534755D+03
 CCSD(T)
 CCSD(T)= -0.15266188437D+03

 The electronic state is 1-A'.
 Alpha  occ. eigenvalues --  -20.56617 -20.54860  -1.33907  -1.32169  -0.71328
 Alpha  occ. eigenvalues --   -0.69552  -0.57399  -0.55632  -0.51022  -0.49289
 Alpha virt. eigenvalues --    0.11986   0.15645   0.19388   0.22680   0.53936
 Alpha virt. eigenvalues --    0.54940   0.56395   0.58287   0.67799   0.69183
 Alpha virt. eigenvalues --    0.77875   0.78637   0.79568   0.80791   0.82792

 Mulliken charges:
               1
     1  O   -0.513293
     2  H    0.261716
     3  H    0.249702
     4  O   -0.510626
     5  H    0.259841
     6  H    0.252660
 Sum of Mulliken charges =  -0.00000

 Dipole moment (field-independent basis, Debye):
    X=             -2.8222    Y=              2.7716    Z=              0.0000  Tot=              3.9556
 Quadrupole moment (field-independent basis, Debye-Ang):
   XX=            -10.2542   YY=             -8.1841   ZZ=            -14.7154
   XY=              2.9953   XZ=              0.0000   YZ=              0.0000

 CCSD(T)=-152.6618844\RMSD=7.108e-09\PG=CS [SG(H4O2)]\\@
 Normal termination of Gaussian 16 at Fri Aug 26 19:39:15 2022.
