 Gaussian 16, Revision A.03,
 Gaussian 16:  ES64L-G16RevA.03 25-Dec-2016

 ------------------
 #p CCSD(T)/cc-pVTZ
 ------------------

 -----------
 H2O_H2O_323
 -----------
 Symbolic Z-matrix:
 Charge =  0 Multiplicity = 1

                         Standard orientation:
 ---------------------------------------------------------------------
 Center     Atomic      Atomic             Coordinates (Angstroms)
 Number     Number       Type             X           Y           Z
 ---------------------------------------------------------------------
      1          8           0        0.016860   -1.223129    0.000000
      2          1           0        0.011187   -0.240544    0.000000
      3          1           0       -0.910777   -1.547157    0.000000
      4          8           0        0.016860    1.059835    0.000000
      5          1           0        0.996971    1.129759    0.000000
      6          1           0       -0.367144    1.964294    0.000000
 ---------------------------------------------------------------------

 SCF Done:  E(RHF) =  -152.081454607     A.U. after   11 cycles
 E2 =    -0.5337318012D+00 EUMP2 =    -0.15261518640814D+03
 CCSD(T)
 CCSD(T)= -0.15264124061D+03

 The electronic state is 1-A'.
 Alpha  occ. eigenvalues --  -20.60734 -20.47673  -1.40398  -1.26627  -0.78592
 Alpha  occ. eigenvalues --   -0.70798  -0.58206  -0.56353  -0.48018  -0.43505
 Alpha virt. eigenvalues --    0.11209   0.17656   0.20076   0.34084   0.47620
 Alpha virt. eigenvalues --    0.52601   0.59319   0.68620   0.71914   0.72170
 Alpha virt. eigenvalues --    0.76017   0.77399   0.77809   0.84056   0.84937

 Mulliken charges:
               1
     1  O   -0.640285
     2  H    0.290149
     3  H    0.234889
     4  O   -0.376177
     5  H    0.260377
     6  H    0.231048
 Sum of Mulliken charges =  -0.00000

 Dipole moment (field-independent basis, Debye):
    X=             -0.5356    Y=              4.2225    Z=              0.0000  Tot=              4.2563
 Quadrupole moment (field-independent basis, Debye-Ang):
   XX=             -9.4584   YY=             -9.6530   ZZ=            -14.6212
   XY=              3.1380   XZ=              0.0000   YZ=              0.0000

 Normal termination of Gaussian 16 at Fri Aug 26 17:25:58 2022.
