 Gaussian 16, Revision A.03,
 Gaussian 16:  ES64L-G16RevA.03 25-Dec-2016

 ------------------
 #p CCSD(T)/cc-pVTZ
 ------------------

 ------------
 H2O_H2O_4183
 ------------
 Symbolic Z-matrix:
 Charge =  0 Multiplicity = 1

                         Standard orientation:
 ---------------------------------------------------------------------
 Center     Atomic      Atomic             Coordinates (Angstroms)
 Number     Number       Type             X           Y           Z
 ---------------------------------------------------------------------
      1          8           0        0.070187    2.772541    0.000000
      2          1           0        0.069468    1.789940    0.000000
      3          1           0       -0.859073    3.091887    0.000000
      4          8           0        0.070187   -2.602277   -0.000000
      5          1           0        0.560865   -3.453594   -0.000000
      6          1           0       -0.894249   -2.790344   -0.000000
 ---------------------------------------------------------------------

 SCF Done:  E(RHF) =  -152.108316292     A.U. after   10 cycles
 E2 =    -0.5258402341D+00 EUMP2 =    -0.15263415652560D+03
 CCSD(T)
 CCSD(T)= -0.15266135304D+03

 The electronic state is 1-A'.
 Alpha  occ. eigenvalues --  -20.56257 -20.54970  -1.33557  -1.32277  -0.70965
 Alpha  occ. eigenvalues --   -0.69673  -0.57044  -0.55743  -0.50674  -0.49398
 Alpha virt. eigenvalues --    0.13049   0.15021   0.19507   0.21259   0.53415
 Alpha virt. eigenvalues --    0.54936   0.56577   0.57819   0.66725   0.68898
 Alpha virt. eigenvalues --    0.78218   0.79234   0.79460   0.80414   0.82702

 Mulliken charges:
               1
     1  O   -0.512879
     2  H    0.260421
     3  H    0.252196
     4  O   -0.513791
     5  H    0.259035
     6  H    0.255019
 Sum of Mulliken charges =  -0.00000

 Dipole moment (field-independent basis, Debye):
    X=             -2.4046    Y=             -2.9982    Z=             -0.0000  Tot=              3.8433
 Quadrupole moment (field-independent basis, Debye-Ang):
   XX=             -9.6798   YY=             -6.9740   ZZ=            -14.7144
   XY=             -4.0952   XZ=             -0.0000   YZ=              0.0000

 Normal termination of Gaussian 16 at Sun Aug 28 00:29:14 2022.
