 Gaussian 16, Revision A.03,
 Gaussian 16:  ES64L-G16RevA.03 25-Dec-2016

 ------------------
 #p CCSD(T)/cc-pVTZ
 ------------------

 ------------
 H2O_H2O_1046
 ------------
 Symbolic Z-matrix:
 Charge =  0 Multiplicity = 1

                         Standard orientation:
 ---------------------------------------------------------------------
 Center     Atomic      Atomic             Coordinates (Angstroms)
 Number     Number       Type             X           Y           Z
 ---------------------------------------------------------------------
      1          8           0       -0.023341    1.516121    0.000000
      2          1           0       -0.019205    0.533528    0.000000
      3          1           0        0.904802    1.838697    0.000000
      4          8           0       -0.023341   -1.345806    0.000000
      5          1           0       -0.986248   -1.541557    0.000000
      6          1           0        0.474109   -2.193184    0.000000
 ---------------------------------------------------------------------

 SCF Done:  E(RHF) =  -152.113076603     A.U. after   10 cycles
 E2 =    -0.5284349567D+00 EUMP2 =    -0.15264151155968D+03
 CCSD(T)
 CCSD(T)= -0.15266837873D+03

 The electronic state is 1-A'.
 Alpha  occ. eigenvalues --  -20.58678 -20.51928  -1.36193  -1.29585  -0.73628
 Alpha  occ. eigenvalues --   -0.67936  -0.59806  -0.53237  -0.52618  -0.46710
 Alpha virt. eigenvalues --    0.11972   0.18314   0.18760   0.31781   0.48967
 Alpha virt. eigenvalues --    0.54643   0.56076   0.62945   0.68398   0.72743
 Alpha virt. eigenvalues --    0.73292   0.76983   0.81856   0.82602   0.84396

 Mulliken charges:
               1
     1  O   -0.568530
     2  H    0.290831
     3  H    0.247847
     4  O   -0.480985
     5  H    0.263650
     6  H    0.247186
 Sum of Mulliken charges =  -0.00000

 Dipole moment (field-independent basis, Debye):
    X=              0.7803    Y=             -3.5688    Z=              0.0000  Tot=              3.6531
 Quadrupole moment (field-independent basis, Debye-Ang):
   XX=             -9.3520   YY=             -8.7657   ZZ=            -14.7228
   XY=              3.7841   XZ=              0.0000   YZ=              0.0000

 Normal termination of Gaussian 16 at Fri Aug 26 22:07:49 2022.
