 Gaussian 16, Revision A.03,
 Gaussian 16:  ES64L-G16RevA.03 25-Dec-2016

 ------------------
 #p CCSD(T)/cc-pVTZ
 ------------------

 ------------
 H2O_H2O_4736
 ------------
 Symbolic Z-matrix:
 Charge =  0 Multiplicity = 1

                         Standard orientation:
 ---------------------------------------------------------------------
 Center     Atomic      Atomic             Coordinates (Angstroms)
 Number     Number       Type             X           Y           Z
 ---------------------------------------------------------------------
      1          8           0        0.059616    2.995843    0.000000
      2          1           0        0.058643    2.013242    0.000000
      3          1           0       -0.869561    3.315429    0.000000
      4          8           0        0.059616   -2.818364   -0.000000
      5          1           0        0.706759   -3.557764   -0.000000
      6          1           0       -0.849695   -3.190736   -0.000000
 ---------------------------------------------------------------------

 SCF Done:  E(RHF) =  -152.108218771     A.U. after   10 cycles
 E2 =    -0.5258169025D+00 EUMP2 =    -0.15263403567367D+03
 CCSD(T)
 CCSD(T)= -0.15266123802D+03

 The electronic state is 1-A'.
 Alpha  occ. eigenvalues --  -20.56150 -20.55019  -1.33451  -1.32325  -0.70857
 Alpha  occ. eigenvalues --   -0.69725  -0.56936  -0.55791  -0.50569  -0.49446
 Alpha virt. eigenvalues --    0.13438   0.14811   0.19688   0.20950   0.53667
 Alpha virt. eigenvalues --    0.54821   0.56682   0.57764   0.66970   0.68598
 Alpha virt. eigenvalues --    0.78317   0.79415   0.79677   0.80429   0.82412

 Mulliken charges:
               1
     1  O   -0.512857
     2  H    0.259779
     3  H    0.253013
     4  O   -0.513649
     5  H    0.258114
     6  H    0.255599
 Sum of Mulliken charges =  -0.00000

 Dipole moment (field-independent basis, Debye):
    X=             -2.0456    Y=             -3.1097    Z=             -0.0000  Tot=              3.7222
 Quadrupole moment (field-independent basis, Debye-Ang):
   XX=             -9.3615   YY=             -6.2429   ZZ=            -14.7141
   XY=             -5.0056   XZ=             -0.0000   YZ=              0.0000

 Normal termination of Gaussian 16 at Sun Aug 28 05:29:01 2022.
