 Gaussian 16, Revision A.03,
 Gaussian 16:  ES64L-G16RevA.03 25-Dec-2016

 ------------------
 #p CCSD(T)/cc-pVTZ
 ------------------

 ------------
 H2O_H2O_1779
 ------------
 Symbolic Z-matrix:
 Charge =  0 Multiplicity = 1

                         Standard orientation:
 ---------------------------------------------------------------------
 Center     Atomic      Atomic             Coordinates (Angstroms)
 Number     Number       Type             X           Y           Z
 ---------------------------------------------------------------------
      1          8           0        0.082813   -1.806673    0.000000
      2          1           0        0.082315   -0.824071    0.000000
      3          1           0       -0.846519   -2.125810    0.000000
      4          8           0        0.082813    1.652175    0.000000
      5          1           0        0.336648    2.601424    0.000000
      6          1           0       -0.897451    1.584440    0.000000
 ---------------------------------------------------------------------

 SCF Done:  E(RHF) =  -152.110671036     A.U. after   10 cycles
 E2 =    -0.5268939770D+00 EUMP2 =    -0.15263756501309D+03
 CCSD(T)
 CCSD(T)= -0.15266464554D+03

 The electronic state is 1-A'.
 Alpha  occ. eigenvalues --  -20.57554 -20.54131  -1.34848  -1.31479  -0.72344
 Alpha  occ. eigenvalues --   -0.68847  -0.58440  -0.54888  -0.51951  -0.48603
 Alpha virt. eigenvalues --    0.11723   0.16501   0.19801   0.26697   0.50844
 Alpha virt. eigenvalues --    0.55434   0.56921   0.57940   0.68885   0.74068
 Alpha virt. eigenvalues --    0.75325   0.78034   0.80525   0.82948   0.83536

 Mulliken charges:
               1
     1  O   -0.522825
     2  H    0.269751
     3  H    0.243169
     4  O   -0.498023
     5  H    0.257569
     6  H    0.250359
 Sum of Mulliken charges =  -0.00000

 Dipole moment (field-independent basis, Debye):
    X=             -2.7848    Y=              2.9408    Z=              0.0000  Tot=              4.0502
 Quadrupole moment (field-independent basis, Debye-Ang):
   XX=            -10.2804   YY=             -8.5501   ZZ=            -14.7214
   XY=              2.8007   XZ=              0.0000   YZ=              0.0000

 Normal termination of Gaussian 16 at Sun Aug 28 01:29:47 2022.
