 Gaussian 16, Revision A.03,
 Gaussian 16:  ES64L-G16RevA.03 25-Dec-2016

 ------------------
 #p CCSD(T)/cc-pVTZ
 ------------------

 ------------
 H2O_H2O_3990
 ------------
 Symbolic Z-matrix:
 Charge =  0 Multiplicity = 1

                         Standard orientation:
 ---------------------------------------------------------------------
 Center     Atomic      Atomic             Coordinates (Angstroms)
 Number     Number       Type             X           Y           Z
 ---------------------------------------------------------------------
      1          8           0        0.044836    2.698286    0.000000
      2          1           0        0.043271    1.715686    0.000000
      3          1           0       -0.884148    3.018433   -0.000000
      4          8           0        0.044836   -2.517864    0.000000
      5          1           0        0.860970   -3.065069    0.000000
      6          1           0       -0.737472   -3.112423   -0.000000
 ---------------------------------------------------------------------

 SCF Done:  E(RHF) =  -152.108765333     A.U. after   10 cycles
 E2 =    -0.5258194411D+00 EUMP2 =    -0.15263458477425D+03
 CCSD(T)
 CCSD(T)= -0.15266176955D+03

 The electronic state is 1-A'.
 Alpha  occ. eigenvalues --  -20.56294 -20.54809  -1.33591  -1.32120  -0.70994
 Alpha  occ. eigenvalues --   -0.69519  -0.57098  -0.55596  -0.50713  -0.49246
 Alpha virt. eigenvalues --    0.13083   0.15208   0.19639   0.21329   0.53555
 Alpha virt. eigenvalues --    0.54918   0.56587   0.57836   0.66678   0.69107
 Alpha virt. eigenvalues --    0.78181   0.79489   0.79602   0.79622   0.82891

 Mulliken charges:
               1
     1  O   -0.515239
     2  H    0.261693
     3  H    0.253067
     4  O   -0.515614
     5  H    0.258990
     6  H    0.257102
 Sum of Mulliken charges =  -0.00000

 Dipole moment (field-independent basis, Debye):
    X=             -1.5354    Y=             -3.1852    Z=             -0.0000  Tot=              3.5360
 Quadrupole moment (field-independent basis, Debye-Ang):
   XX=             -9.1568   YY=             -6.5464   ZZ=            -14.7161
   XY=             -5.4491   XZ=              0.0000   YZ=             -0.0000

 CCSD(T)=-152.6617696\RMSD=7.087e-09\PG=CS [SG(H4O2)]\\@
 Normal termination of Gaussian 16 at Sat Aug 27 00:52:08 2022.
