 Gaussian 16, Revision A.03,
 Gaussian 16:  ES64L-G16RevA.03 25-Dec-2016

 ------------------
 #p CCSD(T)/cc-pVTZ
 ------------------

 -----------
 H2O_H2O_197
 -----------
 Symbolic Z-matrix:
 Charge =  0 Multiplicity = 1

                         Standard orientation:
 ---------------------------------------------------------------------
 Center     Atomic      Atomic             Coordinates (Angstroms)
 Number     Number       Type             X           Y           Z
 ---------------------------------------------------------------------
      1          8           0        0.020111   -1.175274    0.000000
      2          1           0        0.014430   -0.192689    0.000000
      3          1           0       -0.907524   -1.499308    0.000000
      4          8           0        0.020111    1.008290    0.000000
      5          1           0        0.993549    1.142175    0.000000
      6          1           0       -0.422233    1.885694    0.000000
 ---------------------------------------------------------------------

 SCF Done:  E(RHF) =  -152.064494560     A.U. after   11 cycles
 E2 =    -0.5349203628D+00 EUMP2 =    -0.15259941492322D+03
 CCSD(T)
 CCSD(T)= -0.15262520524D+03

 The electronic state is 1-A'.
 Alpha  occ. eigenvalues --  -20.61290 -20.46122  -1.41909  -1.25635  -0.79898
 Alpha  occ. eigenvalues --   -0.72674  -0.57345  -0.56894  -0.46356  -0.42382
 Alpha virt. eigenvalues --    0.10899   0.17289   0.20488   0.33830   0.47392
 Alpha virt. eigenvalues --    0.52235   0.60052   0.68844   0.71506   0.71681
 Alpha virt. eigenvalues --    0.76555   0.77589   0.79521   0.84878   0.85200

 Mulliken charges:
               1
     1  O   -0.659338
     2  H    0.286525
     3  H    0.227034
     4  O   -0.348740
     5  H    0.262801
     6  H    0.231717
 Sum of Mulliken charges =  -0.00000

 Dipole moment (field-independent basis, Debye):
    X=             -0.6221    Y=              4.5337    Z=              0.0000  Tot=              4.5762
 Quadrupole moment (field-independent basis, Debye-Ang):
   XX=             -9.3455   YY=             -9.8831   ZZ=            -14.5889
   XY=              2.9358   XZ=              0.0000   YZ=              0.0000

 Normal termination of Gaussian 16 at Fri Aug 26 16:32:06 2022.
