 Gaussian 16, Revision A.03,
 Gaussian 16:  ES64L-G16RevA.03 25-Dec-2016

 ------------------
 #p CCSD(T)/cc-pVTZ
 ------------------

 ------------
 H2O_H2O_1775
 ------------
 Symbolic Z-matrix:
 Charge =  0 Multiplicity = 1

                         Standard orientation:
 ---------------------------------------------------------------------
 Center     Atomic      Atomic             Coordinates (Angstroms)
 Number     Number       Type             X           Y           Z
 ---------------------------------------------------------------------
      1          8           0        0.092949   -1.794879    0.000000
      2          1           0        0.092949   -0.812278    0.000000
      3          1           0       -0.836544   -2.113545    0.000000
      4          8           0        0.092949    1.662092    0.000000
      5          1           0        0.092949    2.644693    0.000000
      6          1           0       -0.836544    1.343425    0.000000
 ---------------------------------------------------------------------

 SCF Done:  E(RHF) =  -152.108924765     A.U. after   10 cycles
 E2 =    -0.5270851385D+00 EUMP2 =    -0.15263600990328D+03
 CCSD(T)
 CCSD(T)= -0.15266313254D+03

 The electronic state is 1-A'.
 Alpha  occ. eigenvalues --  -20.57527 -20.54714  -1.34845  -1.32035  -0.72472
 Alpha  occ. eigenvalues --   -0.69296  -0.58336  -0.55439  -0.51922  -0.49140
 Alpha virt. eigenvalues --    0.11451   0.16183   0.20379   0.26445   0.51090
 Alpha virt. eigenvalues --    0.54912   0.57351   0.57577   0.67836   0.74117
 Alpha virt. eigenvalues --    0.75062   0.78147   0.80112   0.82375   0.83316

 Mulliken charges:
               1
     1  O   -0.516630
     2  H    0.268092
     3  H    0.242459
     4  O   -0.492698
     5  H    0.255754
     6  H    0.243022
 Sum of Mulliken charges =  -0.00000

 Dipole moment (field-independent basis, Debye):
    X=             -3.1210    Y=              2.5196    Z=              0.0000  Tot=              4.0111
 Quadrupole moment (field-independent basis, Debye-Ang):
   XX=            -10.8890   YY=             -9.1447   ZZ=            -14.7126
   XY=              2.1281   XZ=              0.0000   YZ=              0.0000

 Normal termination of Gaussian 16 at Sun Aug 28 01:28:18 2022.
