 Gaussian 16, Revision A.03,
 Gaussian 16:  ES64L-G16RevA.03 25-Dec-2016

 ------------------
 #p CCSD(T)/cc-pVTZ
 ------------------

 ------------
 H2O_H2O_3672
 ------------
 Symbolic Z-matrix:
 Charge =  0 Multiplicity = 1

                         Standard orientation:
 ---------------------------------------------------------------------
 Center     Atomic      Atomic             Coordinates (Angstroms)
 Number     Number       Type             X           Y           Z
 ---------------------------------------------------------------------
      1          8           0       -0.019841    2.561427    0.000000
      2          1           0       -0.017338    1.578828    0.000000
      3          1           0        0.908837    2.882460    0.000000
      4          8           0       -0.019841   -2.394313    0.000000
      5          1           0       -0.993706   -2.525050    0.000000
      6          1           0        0.419663   -3.273144    0.000000
 ---------------------------------------------------------------------

 SCF Done:  E(RHF) =  -152.109028749     A.U. after   10 cycles
 E2 =    -0.5258288869D+00 EUMP2 =    -0.15263485763574D+03
 CCSD(T)
 CCSD(T)= -0.15266203350D+03

 The electronic state is 1-A'.
 Alpha  occ. eigenvalues --  -20.56373 -20.54829  -1.33669  -1.32142  -0.71074
 Alpha  occ. eigenvalues --   -0.69547  -0.57183  -0.55625  -0.50792  -0.49272
 Alpha virt. eigenvalues --    0.12701   0.15398   0.19347   0.21910   0.53284
 Alpha virt. eigenvalues --    0.55234   0.56570   0.57911   0.66809   0.69198
 Alpha virt. eigenvalues --    0.78106   0.78812   0.79573   0.80482   0.82892

 Mulliken charges:
               1
     1  O   -0.516671
     2  H    0.261324
     3  H    0.254524
     4  O   -0.516110
     5  H    0.258185
     6  H    0.258749
 Sum of Mulliken charges =  -0.00000

 Dipole moment (field-independent basis, Debye):
    X=              0.6807    Y=             -2.9622    Z=              0.0000  Tot=              3.0394
 Quadrupole moment (field-independent basis, Debye-Ang):
   XX=             -9.4467   YY=             -7.3669   ZZ=            -14.7169
   XY=              6.5204   XZ=              0.0000   YZ=              0.0000

 CCSD(T)=-152.6620335\RMSD=7.028e-09\PG=CS [SG(H4O2)]\\@
 Normal termination of Gaussian 16 at Fri Aug 26 23:01:11 2022.
