 Gaussian 16, Revision A.03,
 Gaussian 16:  ES64L-G16RevA.03 25-Dec-2016

 ------------------
 #p CCSD(T)/cc-pVTZ
 ------------------

 ------------
 H2O_H2O_1198
 ------------
 Symbolic Z-matrix:
 Charge =  0 Multiplicity = 1

                         Standard orientation:
 ---------------------------------------------------------------------
 Center     Atomic      Atomic             Coordinates (Angstroms)
 Number     Number       Type             X           Y           Z
 ---------------------------------------------------------------------
      1          8           0       -0.016750    1.572165    0.000000
      2          1           0       -0.012405    0.589573    0.000000
      3          1           0        0.911325    1.894938    0.000000
      4          8           0       -0.016750   -1.408825    0.000000
      5          1           0       -0.996954   -1.477426    0.000000
      6          1           0        0.366032   -2.313803    0.000000
 ---------------------------------------------------------------------

 SCF Done:  E(RHF) =  -152.113127563     A.U. after   10 cycles
 E2 =    -0.5279015111D+00 EUMP2 =    -0.15264102907416D+03
 CCSD(T)
 CCSD(T)= -0.15266796943D+03

 The electronic state is 1-A'.
 Alpha  occ. eigenvalues --  -20.58348 -20.52617  -1.35784  -1.30164  -0.73330
 Alpha  occ. eigenvalues --   -0.67969  -0.59574  -0.53336  -0.52853  -0.47303
 Alpha virt. eigenvalues --    0.12075   0.17936   0.19014   0.30819   0.49657
 Alpha virt. eigenvalues --    0.54639   0.55649   0.62169   0.68592   0.73056
 Alpha virt. eigenvalues --    0.74112   0.76705   0.81833   0.82245   0.84308

 Mulliken charges:
               1
     1  O   -0.558236
     2  H    0.283054
     3  H    0.251608
     4  O   -0.483836
     5  H    0.262674
     6  H    0.244736
 Sum of Mulliken charges =  -0.00000

 Dipole moment (field-independent basis, Debye):
    X=              0.5696    Y=             -3.3350    Z=              0.0000  Tot=              3.3833
 Quadrupole moment (field-independent basis, Debye-Ang):
   XX=             -9.5379   YY=             -8.6986   ZZ=            -14.7250
   XY=              4.1095   XZ=              0.0000   YZ=              0.0000

 Normal termination of Gaussian 16 at Fri Aug 26 23:04:27 2022.
