 Gaussian 16, Revision A.03,
 Gaussian 16:  ES64L-G16RevA.03 25-Dec-2016

 ------------------
 #p CCSD(T)/cc-pVTZ
 ------------------

 ------------
 H2O_H2O_4814
 ------------
 Symbolic Z-matrix:
 Charge =  0 Multiplicity = 1

                         Standard orientation:
 ---------------------------------------------------------------------
 Center     Atomic      Atomic             Coordinates (Angstroms)
 Number     Number       Type             X           Y           Z
 ---------------------------------------------------------------------
      1          8           0        0.048548    3.027361   -0.000000
      2          1           0        0.047265    2.044760   -0.000000
      3          1           0       -0.880529    3.347240   -0.000000
      4          8           0        0.048548   -2.846935    0.000000
      5          1           0        0.827317   -3.446121    0.000000
      6          1           0       -0.770816   -3.389290    0.000000
 ---------------------------------------------------------------------

 SCF Done:  E(RHF) =  -152.108278713     A.U. after   10 cycles
 E2 =    -0.5258081543D+00 EUMP2 =    -0.15263408686763D+03
 CCSD(T)
 CCSD(T)= -0.15266128836D+03

 The electronic state is 1-A'.
 Alpha  occ. eigenvalues --  -20.56134 -20.55006  -1.33436  -1.32313  -0.70841
 Alpha  occ. eigenvalues --   -0.69714  -0.56924  -0.55781  -0.50554  -0.49434
 Alpha virt. eigenvalues --    0.13494   0.14811   0.19733   0.20929   0.53711
 Alpha virt. eigenvalues --    0.54816   0.56703   0.57776   0.67002   0.68575
 Alpha virt. eigenvalues --    0.78330   0.79425   0.79739   0.80405   0.82373

 Mulliken charges:
               1
     1  O   -0.513291
     2  H    0.259811
     3  H    0.253426
     4  O   -0.513976
     5  H    0.257855
     6  H    0.256175
 Sum of Mulliken charges =  -0.00000

 Dipole moment (field-independent basis, Debye):
    X=             -1.6662    Y=             -3.1595    Z=              0.0000  Tot=              3.5720
 Quadrupole moment (field-independent basis, Debye-Ang):
   XX=             -9.1821   YY=             -6.0106   ZZ=            -14.7144
   XY=             -5.7601   XZ=              0.0000   YZ=             -0.0000

 Normal termination of Gaussian 16 at Sun Aug 28 06:06:09 2022.
