 Gaussian 16, Revision A.03,
 Gaussian 16:  ES64L-G16RevA.03 25-Dec-2016

 ------------------
 #p CCSD(T)/cc-pVTZ
 ------------------

 -----------
 H2O_H2O_990
 -----------
 Symbolic Z-matrix:
 Charge =  0 Multiplicity = 1

                         Standard orientation:
 ---------------------------------------------------------------------
 Center     Atomic      Atomic             Coordinates (Angstroms)
 Number     Number       Type             X           Y           Z
 ---------------------------------------------------------------------
      1          8           0        0.044958    1.501596    0.000000
      2          1           0        0.042066    0.518999    0.000000
      3          1           0       -0.883593    1.822997    0.000000
      4          8           0        0.044958   -1.321296    0.000000
      5          1           0        0.860351   -1.869603    0.000000
      6          1           0       -0.738152   -1.914797    0.000000
 ---------------------------------------------------------------------

 SCF Done:  E(RHF) =  -152.113310636     A.U. after   10 cycles
 E2 =    -0.5286868652D+00 EUMP2 =    -0.15264199750144D+03
 CCSD(T)
 CCSD(T)= -0.15266882696D+03

 The electronic state is 1-A'.
 Alpha  occ. eigenvalues --  -20.58871 -20.51465  -1.36388  -1.29183  -0.73564
 Alpha  occ. eigenvalues --   -0.68155  -0.59732  -0.53438  -0.52165  -0.46290
 Alpha virt. eigenvalues --    0.11814   0.18098   0.18941   0.32062   0.48408
 Alpha virt. eigenvalues --    0.54646   0.56930   0.61279   0.69157   0.71598
 Alpha virt. eigenvalues --    0.72725   0.77522   0.82362   0.82679   0.84818

 Mulliken charges:
               1
     1  O   -0.570213
     2  H    0.298968
     3  H    0.240171
     4  O   -0.492218
     5  H    0.265939
     6  H    0.257352
 Sum of Mulliken charges =  -0.00000

 Dipole moment (field-independent basis, Debye):
    X=             -1.4826    Y=             -3.8106    Z=              0.0000  Tot=              4.0888
 Quadrupole moment (field-independent basis, Debye-Ang):
   XX=             -9.1535   YY=             -8.7806   ZZ=            -14.7255
   XY=             -3.4243   XZ=              0.0000   YZ=              0.0000

 Normal termination of Gaussian 16 at Fri Aug 26 21:46:19 2022.
