 Gaussian 16, Revision A.03,
 Gaussian 16:  ES64L-G16RevA.03 25-Dec-2016

 ------------------
 #p CCSD(T)/cc-pVTZ
 ------------------

 -----------
 H2O_H2O_811
 -----------
 Symbolic Z-matrix:
 Charge =  0 Multiplicity = 1

                         Standard orientation:
 ---------------------------------------------------------------------
 Center     Atomic      Atomic             Coordinates (Angstroms)
 Number     Number       Type             X           Y           Z
 ---------------------------------------------------------------------
      1          8           0        0.059718    1.430182   -0.000000
      2          1           0        0.057611    0.447583   -0.000000
      3          1           0       -0.869089    1.750841    0.000000
      4          8           0        0.059718   -1.252841   -0.000000
      5          1           0        0.706007   -1.992988   -0.000000
      6          1           0       -0.850022   -1.624162    0.000000
 ---------------------------------------------------------------------

 SCF Done:  E(RHF) =  -152.110359659     A.U. after   10 cycles
 E2 =    -0.5297182185D+00 EUMP2 =    -0.15264007787777D+03
 CCSD(T)
 CCSD(T)= -0.15266679641D+03

 The electronic state is 1-A'.
 Alpha  occ. eigenvalues --  -20.59296 -20.50890  -1.37034  -1.28773  -0.74192
 Alpha  occ. eigenvalues --   -0.68750  -0.59579  -0.53984  -0.51556  -0.45832
 Alpha virt. eigenvalues --    0.11572   0.17541   0.19496   0.32684   0.48005
 Alpha virt. eigenvalues --    0.54290   0.59438   0.60394   0.70159   0.72443
 Alpha virt. eigenvalues --    0.72514   0.77550   0.81688   0.83016   0.84481

 Mulliken charges:
               1
     1  O   -0.578661
     2  H    0.306016
     3  H    0.232464
     4  O   -0.470890
     5  H    0.258478
     6  H    0.252593
 Sum of Mulliken charges =  -0.00000

 Dipole moment (field-independent basis, Debye):
    X=             -1.9479    Y=             -3.8879    Z=              0.0000  Tot=              4.3486
 Quadrupole moment (field-independent basis, Debye-Ang):
   XX=             -9.3709   YY=             -8.9857   ZZ=            -14.7092
   XY=             -3.1483   XZ=             -0.0000   YZ=              0.0000

 Normal termination of Gaussian 16 at Fri Aug 26 20:39:33 2022.
