 Gaussian 16, Revision A.03,
 Gaussian 16:  ES64L-G16RevA.03 25-Dec-2016

 ------------------
 #p CCSD(T)/cc-pVTZ
 ------------------

 ------------
 H2O_H2O_1654
 ------------
 Symbolic Z-matrix:
 Charge =  0 Multiplicity = 1

                         Standard orientation:
 ---------------------------------------------------------------------
 Center     Atomic      Atomic             Coordinates (Angstroms)
 Number     Number       Type             X           Y           Z
 ---------------------------------------------------------------------
      1          8           0        0.082814   -1.756811    0.000000
      2          1           0        0.082301   -0.774210    0.000000
      3          1           0       -0.846513   -2.075963    0.000000
      4          8           0        0.082814    1.602316    0.000000
      5          1           0        0.336635    2.551569    0.000000
      6          1           0       -0.897450    1.534567    0.000000
 ---------------------------------------------------------------------

 SCF Done:  E(RHF) =  -152.110852770     A.U. after   10 cycles
 E2 =    -0.5271018843D+00 EUMP2 =    -0.15263795465448D+03
 CCSD(T)
 CCSD(T)= -0.15266502191D+03

 The electronic state is 1-A'.
 Alpha  occ. eigenvalues --  -20.57699 -20.53995  -1.35006  -1.31358  -0.72526
 Alpha  occ. eigenvalues --   -0.68736  -0.58610  -0.54746  -0.52102  -0.48479
 Alpha virt. eigenvalues --    0.11706   0.16562   0.19835   0.27334   0.50346
 Alpha virt. eigenvalues --    0.55266   0.57183   0.58016   0.68957   0.74386
 Alpha virt. eigenvalues --    0.74793   0.77665   0.80704   0.82756   0.83663

 Mulliken charges:
               1
     1  O   -0.525085
     2  H    0.271839
     3  H    0.242032
     4  O   -0.494549
     5  H    0.255791
     6  H    0.249973
 Sum of Mulliken charges =  -0.00000

 Dipole moment (field-independent basis, Debye):
    X=             -2.7783    Y=              2.9721    Z=              0.0000  Tot=              4.0685
 Quadrupole moment (field-independent basis, Debye-Ang):
   XX=            -10.2836   YY=             -8.5935   ZZ=            -14.7214
   XY=              2.7802   XZ=              0.0000   YZ=              0.0000

 Normal termination of Gaussian 16 at Sun Aug 28 00:21:59 2022.
