 Gaussian 16, Revision A.03,
 Gaussian 16:  ES64L-G16RevA.03 25-Dec-2016

 ------------------
 #p CCSD(T)/cc-pVTZ
 ------------------

 -----------
 H2O_H2O_229
 -----------
 Symbolic Z-matrix:
 Charge =  0 Multiplicity = 1

                         Standard orientation:
 ---------------------------------------------------------------------
 Center     Atomic      Atomic             Coordinates (Angstroms)
 Number     Number       Type             X           Y           Z
 ---------------------------------------------------------------------
      1          8           0        0.082835   -1.188389    0.000000
      2          1           0        0.082060   -0.205788    0.000000
      3          1           0       -0.846407   -1.507789    0.000000
      4          8           0        0.082835    1.033938    0.000000
      5          1           0        0.336403    1.983259    0.000000
      6          1           0       -0.897411    0.965928    0.000000
 ---------------------------------------------------------------------

 SCF Done:  E(RHF) =  -152.065968962     A.U. after   11 cycles
 E2 =    -0.5359939848D+00 EUMP2 =    -0.15260196294710D+03
 CCSD(T)
 CCSD(T)= -0.15262789921D+03

 The electronic state is 1-A'.
 Alpha  occ. eigenvalues --  -20.61125 -20.47994  -1.41566  -1.26985  -0.80353
 Alpha  occ. eigenvalues --   -0.71065  -0.57234  -0.56961  -0.48627  -0.43801
 Alpha virt. eigenvalues --    0.10782   0.16178   0.21219   0.32352   0.49239
 Alpha virt. eigenvalues --    0.51766   0.59722   0.65300   0.71575   0.72686
 Alpha virt. eigenvalues --    0.76556   0.77314   0.80054   0.84310   0.85714

 Mulliken charges:
               1
     1  O   -0.605263
     2  H    0.279507
     3  H    0.200922
     4  O   -0.339774
     5  H    0.229002
     6  H    0.235605
 Sum of Mulliken charges =  -0.00000

 Dipole moment (field-independent basis, Debye):
    X=             -2.5850    Y=              4.1255    Z=              0.0000  Tot=              4.8684
 Quadrupole moment (field-independent basis, Debye-Ang):
   XX=            -10.2363   YY=             -9.7237   ZZ=            -14.5785
   XY=              2.4148   XZ=              0.0000   YZ=              0.0000

 Normal termination of Gaussian 16 at Fri Aug 26 16:46:04 2022.
