 Gaussian 16, Revision A.03,
 Gaussian 16:  ES64L-G16RevA.03 25-Dec-2016

 ------------------
 #p CCSD(T)/cc-pVTZ
 ------------------

 ------------
 H2O_H2O_2648
 ------------
 Symbolic Z-matrix:
 Charge =  0 Multiplicity = 1

                         Standard orientation:
 ---------------------------------------------------------------------
 Center     Atomic      Atomic             Coordinates (Angstroms)
 Number     Number       Type             X           Y           Z
 ---------------------------------------------------------------------
      1          8           0       -0.016649    2.150553    0.000000
      2          1           0       -0.013519    1.167957    0.000000
      3          1           0        0.911824    2.472179    0.000000
      4          8           0       -0.016649   -1.987172    0.000000
      5          1           0       -0.996938   -2.054561    0.000000
      6          1           0        0.365013   -2.892623    0.000000
 ---------------------------------------------------------------------

 SCF Done:  E(RHF) =  -152.110411813     A.U. after   10 cycles
 E2 =    -0.5260201246D+00 EUMP2 =    -0.15263643193796D+03
 CCSD(T)
 CCSD(T)= -0.15266355655D+03

 The electronic state is 1-A'.
 Alpha  occ. eigenvalues --  -20.56812 -20.54453  -1.34092  -1.31778  -0.71502
 Alpha  occ. eigenvalues --   -0.69186  -0.57659  -0.55269  -0.51221  -0.48921
 Alpha virt. eigenvalues --    0.12223   0.16229   0.19262   0.23953   0.53871
 Alpha virt. eigenvalues --    0.55535   0.56271   0.58479   0.68754   0.70081
 Alpha virt. eigenvalues --    0.77557   0.79145   0.79932   0.80676   0.83442

 Mulliken charges:
               1
     1  O   -0.523001
     2  H    0.264328
     3  H    0.254413
     4  O   -0.513281
     5  H    0.259136
     6  H    0.258404
 Sum of Mulliken charges =  -0.00000

 Dipole moment (field-independent basis, Debye):
    X=              0.5717    Y=             -2.9717    Z=              0.0000  Tot=              3.0262
 Quadrupole moment (field-independent basis, Debye-Ang):
   XX=             -9.5434   YY=             -7.9616   ZZ=            -14.7212
   XY=              5.6424   XZ=              0.0000   YZ=              0.0000

 Normal termination of Gaussian 16 at Fri Aug 26 16:17:22 2022.
