 Gaussian 16, Revision A.03,
 Gaussian 16:  ES64L-G16RevA.03 25-Dec-2016

 ------------------
 #p CCSD(T)/cc-pVTZ
 ------------------

 ------------
 H2O_H2O_3382
 ------------
 Symbolic Z-matrix:
 Charge =  0 Multiplicity = 1

                         Standard orientation:
 ---------------------------------------------------------------------
 Center     Atomic      Atomic             Coordinates (Angstroms)
 Number     Number       Type             X           Y           Z
 ---------------------------------------------------------------------
      1          8           0        0.073533    2.451638    0.000000
      2          1           0        0.072837    1.469036    0.000000
      3          1           0       -0.855734    2.770962    0.000000
      4          8           0        0.073533   -2.284691   -0.000000
      5          1           0        0.507503   -3.166267   -0.000000
      6          1           0       -0.901135   -2.409302   -0.000000
 ---------------------------------------------------------------------

 SCF Done:  E(RHF) =  -152.108804555     A.U. after   10 cycles
 E2 =    -0.5259190096D+00 EUMP2 =    -0.15263472356421D+03
 CCSD(T)
 CCSD(T)= -0.15266189665D+03

 The electronic state is 1-A'.
 Alpha  occ. eigenvalues --  -20.56492 -20.54789  -1.33783  -1.32100  -0.71195
 Alpha  occ. eigenvalues --   -0.69489  -0.57284  -0.55570  -0.50903  -0.49224
 Alpha virt. eigenvalues --    0.12415   0.15513   0.19415   0.22038   0.53435
 Alpha virt. eigenvalues --    0.55103   0.56407   0.58167   0.67159   0.69265
 Alpha virt. eigenvalues --    0.78004   0.78695   0.79624   0.80339   0.82888

 Mulliken charges:
               1
     1  O   -0.514134
     2  H    0.261931
     3  H    0.250831
     4  O   -0.513126
     5  H    0.259956
     6  H    0.254542
 Sum of Mulliken charges =  -0.00000

 Dipole moment (field-independent basis, Debye):
    X=             -2.5111    Y=             -2.9765    Z=             -0.0000  Tot=              3.8943
 Quadrupole moment (field-independent basis, Debye-Ang):
   XX=             -9.8137   YY=             -7.5196   ZZ=            -14.7161
   XY=             -3.6501   XZ=             -0.0000   YZ=              0.0000

 Normal termination of Gaussian 16 at Fri Aug 26 21:23:29 2022.
