 Gaussian 16, Revision A.03,
 Gaussian 16:  ES64L-G16RevA.03 25-Dec-2016

 ------------------
 #p CCSD(T)/cc-pVTZ
 ------------------

 ------------
 H2O_H2O_1381
 ------------
 Symbolic Z-matrix:
 Charge =  0 Multiplicity = 1

                         Standard orientation:
 ---------------------------------------------------------------------
 Center     Atomic      Atomic             Coordinates (Angstroms)
 Number     Number       Type             X           Y           Z
 ---------------------------------------------------------------------
      1          8           0        0.076780    1.651832    0.000000
      2          1           0        0.075905    0.669231    0.000000
      3          1           0       -0.852428    1.971326   -0.000000
      4          8           0        0.076780   -1.488665    0.000000
      5          1           0        0.451998   -2.396805    0.000000
      6          1           0       -0.903962   -1.549084   -0.000000
 ---------------------------------------------------------------------

 SCF Done:  E(RHF) =  -152.111914822     A.U. after   10 cycles
 E2 =    -0.5276280767D+00 EUMP2 =    -0.15263954289908D+03
 CCSD(T)
 CCSD(T)= -0.15266654997D+03

 The electronic state is 1-A'.
 Alpha  occ. eigenvalues --  -20.58092 -20.53311  -1.35441  -1.30746  -0.72942
 Alpha  occ. eigenvalues --   -0.68306  -0.59096  -0.54053  -0.52526  -0.47866
 Alpha virt. eigenvalues --    0.11746   0.16874   0.19652   0.29111   0.49242
 Alpha virt. eigenvalues --    0.54996   0.57613   0.58551   0.69563   0.73725
 Alpha virt. eigenvalues --    0.74346   0.76773   0.81364   0.82480   0.84059

 Mulliken charges:
               1
     1  O   -0.535542
     2  H    0.279260
     3  H    0.239670
     4  O   -0.487530
     5  H    0.252877
     6  H    0.251265
 Sum of Mulliken charges =  -0.00000

 Dipole moment (field-independent basis, Debye):
    X=             -2.5609    Y=             -3.2347    Z=             -0.0000  Tot=              4.1257
 Quadrupole moment (field-independent basis, Debye-Ang):
   XX=             -9.9855   YY=             -8.5665   ZZ=            -14.7237
   XY=             -2.9844   XZ=              0.0000   YZ=             -0.0000

 CCSD(T)=-152.66655\RMSD=7.127e-09\PG=CS [SG(H4O2)]\\@
 Normal termination of Gaussian 16 at Sat Aug 27 00:14:19 2022.
