 Gaussian 16, Revision A.03,
 Gaussian 16:  ES64L-G16RevA.03 25-Dec-2016

 ------------------
 #p CCSD(T)/cc-pVTZ
 ------------------

 ------------
 H2O_H2O_1982
 ------------
 Symbolic Z-matrix:
 Charge =  0 Multiplicity = 1

                         Standard orientation:
 ---------------------------------------------------------------------
 Center     Atomic      Atomic             Coordinates (Angstroms)
 Number     Number       Type             X           Y           Z
 ---------------------------------------------------------------------
      1          8           0        0.073551    1.893193   -0.000000
      2          1           0        0.072641    0.910592   -0.000000
      3          1           0       -0.855646    2.212721   -0.000000
      4          8           0        0.073551   -1.726279    0.000000
      5          1           0        0.507329   -2.607950    0.000000
      6          1           0       -0.901144   -1.850677    0.000000
 ---------------------------------------------------------------------

 SCF Done:  E(RHF) =  -152.111189687     A.U. after   10 cycles
 E2 =    -0.5265569834D+00 EUMP2 =    -0.15263774667083D+03
 CCSD(T)
 CCSD(T)= -0.15266482759D+03

 The electronic state is 1-A'.
 Alpha  occ. eigenvalues --  -20.57365 -20.54008  -1.34633  -1.31353  -0.72059
 Alpha  occ. eigenvalues --   -0.68746  -0.58253  -0.54793  -0.51756  -0.48489
 Alpha virt. eigenvalues --    0.11938   0.16617   0.19468   0.25965   0.51521
 Alpha virt. eigenvalues --    0.55646   0.56207   0.58342   0.68985   0.72772
 Alpha virt. eigenvalues --    0.76149   0.78303   0.80499   0.83319   0.83643

 Mulliken charges:
               1
     1  O   -0.523493
     2  H    0.268269
     3  H    0.245513
     4  O   -0.504190
     5  H    0.260383
     6  H    0.253518
 Sum of Mulliken charges =  -0.00000

 Dipole moment (field-independent basis, Debye):
    X=             -2.4834    Y=             -3.1379    Z=              0.0000  Tot=              4.0017
 Quadrupole moment (field-independent basis, Debye-Ang):
   XX=             -9.8314   YY=             -8.1692   ZZ=            -14.7243
   XY=             -3.2683   XZ=              0.0000   YZ=             -0.0000

 Normal termination of Gaussian 16 at Sun Aug 28 03:19:18 2022.
