 Gaussian 16, Revision A.03,
 Gaussian 16:  ES64L-G16RevA.03 25-Dec-2016

 ------------------
 #p CCSD(T)/cc-pVTZ
 ------------------

 -----------
 H2O_H2O_521
 -----------
 Symbolic Z-matrix:
 Charge =  0 Multiplicity = 1

                         Standard orientation:
 ---------------------------------------------------------------------
 Center     Atomic      Atomic             Coordinates (Angstroms)
 Number     Number       Type             X           Y           Z
 ---------------------------------------------------------------------
      1          8           0       -0.023403    1.306696    0.000000
      2          1           0       -0.018557    0.324106    0.000000
      3          1           0        0.904508    1.629941    0.000000
      4          8           0       -0.023403   -1.136415    0.000000
      5          1           0       -0.986167   -1.332861    0.000000
      6          1           0        0.474660   -1.983434    0.000000
 ---------------------------------------------------------------------

 SCF Done:  E(RHF) =  -152.099685549     A.U. after   11 cycles
 E2 =    -0.5316655113D+00 EUMP2 =    -0.15263135106020D+03
 CCSD(T)
 CCSD(T)= -0.15265774341D+03

 The electronic state is 1-A'.
 Alpha  occ. eigenvalues --  -20.60074 -20.49115  -1.38614  -1.27537  -0.76104
 Alpha  occ. eigenvalues --   -0.69925  -0.59067  -0.55193  -0.49609  -0.44513
 Alpha virt. eigenvalues --    0.11451   0.17961   0.19587   0.33904   0.47551
 Alpha virt. eigenvalues --    0.53552   0.58815   0.68262   0.69027   0.72203
 Alpha virt. eigenvalues --    0.74214   0.77280   0.79647   0.83861   0.84060

 Mulliken charges:
               1
     1  O   -0.617210
     2  H    0.301647
     3  H    0.237400
     4  O   -0.421059
     5  H    0.260645
     6  H    0.238577
 Sum of Mulliken charges =  -0.00000

 Dipole moment (field-independent basis, Debye):
    X=              0.7580    Y=             -4.0797    Z=              0.0000  Tot=              4.1495
 Quadrupole moment (field-independent basis, Debye-Ang):
   XX=             -9.3163   YY=             -9.3761   ZZ=            -14.6687
   XY=              3.2446   XZ=              0.0000   YZ=              0.0000

 Normal termination of Gaussian 16 at Fri Aug 26 18:48:38 2022.
