 Gaussian 16, Revision A.03,
 Gaussian 16:  ES64L-G16RevA.03 25-Dec-2016

 ------------------
 #p CCSD(T)/cc-pVTZ
 ------------------

 ------------
 H2O_H2O_1264
 ------------
 Symbolic Z-matrix:
 Charge =  0 Multiplicity = 1

                         Standard orientation:
 ---------------------------------------------------------------------
 Center     Atomic      Atomic             Coordinates (Angstroms)
 Number     Number       Type             X           Y           Z
 ---------------------------------------------------------------------
      1          8           0        0.048657    1.611290    0.000000
      2          1           0        0.046181    0.628691    0.000000
      3          1           0       -0.880030    1.932297    0.000000
      4          8           0        0.048657   -1.430981   -0.000000
      5          1           0        0.826698   -2.031114   -0.000000
      6          1           0       -0.771365   -1.972341   -0.000000
 ---------------------------------------------------------------------

 SCF Done:  E(RHF) =  -152.114140342     A.U. after   10 cycles
 E2 =    -0.5277281646D+00 EUMP2 =    -0.15264186850706D+03
 CCSD(T)
 CCSD(T)= -0.15266881128D+03

 The electronic state is 1-A'.
 Alpha  occ. eigenvalues --  -20.58334 -20.52379  -1.35681  -1.29911  -0.72969
 Alpha  occ. eigenvalues --   -0.67912  -0.59446  -0.53133  -0.52791  -0.47049
 Alpha virt. eigenvalues --    0.11955   0.17826   0.18945   0.30466   0.49126
 Alpha virt. eigenvalues --    0.54771   0.56183   0.60088   0.69171   0.71603
 Alpha virt. eigenvalues --    0.73440   0.76990   0.82027   0.82772   0.84961

 Mulliken charges:
               1
     1  O   -0.551836
     2  H    0.286500
     3  H    0.243226
     4  O   -0.502447
     5  H    0.265860
     6  H    0.258697
 Sum of Mulliken charges =  -0.00000

 Dipole moment (field-independent basis, Debye):
    X=             -1.6204    Y=             -3.6403    Z=             -0.0000  Tot=              3.9846
 Quadrupole moment (field-independent basis, Debye-Ang):
   XX=             -9.1869   YY=             -8.4871   ZZ=            -14.7339
   XY=             -3.5657   XZ=             -0.0000   YZ=              0.0000

 Normal termination of Gaussian 16 at Fri Aug 26 23:28:36 2022.
