 Gaussian 16, Revision A.03,
 Gaussian 16:  ES64L-G16RevA.03 25-Dec-2016

 ------------------
 #p CCSD(T)/cc-pVTZ
 ------------------

 ------------
 H2O_H2O_3670
 ------------
 Symbolic Z-matrix:
 Charge =  0 Multiplicity = 1

                         Standard orientation:
 ---------------------------------------------------------------------
 Center     Atomic      Atomic             Coordinates (Angstroms)
 Number     Number       Type             X           Y           Z
 ---------------------------------------------------------------------
      1          8           0        0.026638    2.564752    0.000000
      2          1           0        0.024367    1.582153    0.000000
      3          1           0       -0.902116    2.885565   -0.000000
      4          8           0        0.026638   -2.391514    0.000000
      5          1           0        0.975168   -2.648024    0.000000
      6          1           0       -0.523624   -3.205590   -0.000000
 ---------------------------------------------------------------------

 SCF Done:  E(RHF) =  -152.109079919     A.U. after   10 cycles
 E2 =    -0.5258296934D+00 EUMP2 =    -0.15263490961251D+03
 CCSD(T)
 CCSD(T)= -0.15266208363D+03

 The electronic state is 1-A'.
 Alpha  occ. eigenvalues --  -20.56377 -20.54769  -1.33672  -1.32082  -0.71075
 Alpha  occ. eigenvalues --   -0.69485  -0.57188  -0.55565  -0.50795  -0.49212
 Alpha virt. eigenvalues --    0.12792   0.15415   0.19464   0.21764   0.53348
 Alpha virt. eigenvalues --    0.55163   0.56558   0.57918   0.66819   0.69235
 Alpha virt. eigenvalues --    0.78104   0.78877   0.79630   0.80155   0.82943

 Mulliken charges:
               1
     1  O   -0.516751
     2  H    0.261871
     3  H    0.253994
     4  O   -0.516177
     5  H    0.258665
     6  H    0.258398
 Sum of Mulliken charges =  -0.00000

 Dipole moment (field-independent basis, Debye):
    X=             -0.9123    Y=             -3.0721    Z=              0.0000  Tot=              3.2047
 Quadrupole moment (field-independent basis, Debye-Ang):
   XX=             -9.2885   YY=             -7.0767   ZZ=            -14.7171
   XY=             -6.1375   XZ=              0.0000   YZ=             -0.0000

 Normal termination of Gaussian 16 at Fri Aug 26 23:00:10 2022.
