 Gaussian 16, Revision A.03,
 Gaussian 16:  ES64L-G16RevA.03 25-Dec-2016

 ------------------
 #p CCSD(T)/cc-pVTZ
 ------------------

 ------------
 H2O_H2O_1170
 ------------
 Symbolic Z-matrix:
 Charge =  0 Multiplicity = 1

                         Standard orientation:
 ---------------------------------------------------------------------
 Center     Atomic      Atomic             Coordinates (Angstroms)
 Number     Number       Type             X           Y           Z
 ---------------------------------------------------------------------
      1          8           0        0.026773    1.567521   -0.000000
      2          1           0        0.022973    0.584927   -0.000000
      3          1           0       -0.901482    1.889779   -0.000000
      4          8           0        0.026773   -1.394367    0.000000
      5          1           0        0.974903   -1.652351    0.000000
      6          1           0       -0.524755   -2.207586    0.000000
 ---------------------------------------------------------------------

 SCF Done:  E(RHF) =  -152.113834284     A.U. after   10 cycles
 E2 =    -0.5279627910D+00 EUMP2 =    -0.15264179707537D+03
 CCSD(T)
 CCSD(T)= -0.15266871224D+03

 The electronic state is 1-A'.
 Alpha  occ. eigenvalues --  -20.58452 -20.52249  -1.35870  -1.29828  -0.73248
 Alpha  occ. eigenvalues --   -0.67913  -0.59625  -0.52975  -0.52954  -0.46966
 Alpha virt. eigenvalues --    0.12022   0.18195   0.18757   0.31043   0.49330
 Alpha virt. eigenvalues --    0.54614   0.55882   0.61929   0.68511   0.72908
 Alpha virt. eigenvalues --    0.73088   0.77085   0.82106   0.82493   0.84553

 Mulliken charges:
               1
     1  O   -0.560395
     2  H    0.287346
     3  H    0.247971
     4  O   -0.492077
     5  H    0.264903
     6  H    0.252252
 Sum of Mulliken charges =  -0.00000

 Dipole moment (field-independent basis, Debye):
    X=             -0.8954    Y=             -3.5500    Z=              0.0000  Tot=              3.6612
 Quadrupole moment (field-independent basis, Debye-Ang):
   XX=             -9.2831   YY=             -8.6309   ZZ=            -14.7293
   XY=             -3.8347   XZ=              0.0000   YZ=             -0.0000

 CCSD(T)=-152.6687122\RMSD=6.645e-09\PG=CS [SG(H4O2)]\\@
 Normal termination of Gaussian 16 at Fri Aug 26 22:53:04 2022.
