 Gaussian 16, Revision A.03,
 Gaussian 16:  ES64L-G16RevA.03 25-Dec-2016

 ------------------
 #p CCSD(T)/cc-pVTZ
 ------------------

 ------------
 H2O_H2O_1040
 ------------
 Symbolic Z-matrix:
 Charge =  0 Multiplicity = 1

                         Standard orientation:
 ---------------------------------------------------------------------
 Center     Atomic      Atomic             Coordinates (Angstroms)
 Number     Number       Type             X           Y           Z
 ---------------------------------------------------------------------
      1          8           0        0.044954    1.521542    0.000000
      2          1           0        0.042102    0.538945    0.000000
      3          1           0       -0.883610    1.842905   -0.000000
      4          8           0        0.044954   -1.341238    0.000000
      5          1           0        0.860371   -1.889511    0.000000
      6          1           0       -0.738132   -1.934771   -0.000000
 ---------------------------------------------------------------------

 SCF Done:  E(RHF) =  -152.113647149     A.U. after   10 cycles
 E2 =    -0.5284788058D+00 EUMP2 =    -0.15264212595457D+03
 CCSD(T)
 CCSD(T)= -0.15266898150D+03

 The electronic state is 1-A'.
 Alpha  occ. eigenvalues --  -20.58763 -20.51655  -1.36237  -1.29331  -0.73440
 Alpha  occ. eigenvalues --   -0.68057  -0.59713  -0.53303  -0.52367  -0.46446
 Alpha virt. eigenvalues --    0.11849   0.18089   0.18906   0.31798   0.48546
 Alpha virt. eigenvalues --    0.54699   0.56658   0.61081   0.69106   0.71569
 Alpha virt. eigenvalues --    0.72824   0.77427   0.82429   0.82588   0.84867

 Mulliken charges:
               1
     1  O   -0.566541
     2  H    0.296541
     3  H    0.241018
     4  O   -0.494881
     5  H    0.266115
     6  H    0.257747
 Sum of Mulliken charges =  -0.00000

 Dipole moment (field-independent basis, Debye):
    X=             -1.4857    Y=             -3.7749    Z=              0.0000  Tot=              4.0567
 Quadrupole moment (field-independent basis, Debye-Ang):
   XX=             -9.1548   YY=             -8.7237   ZZ=            -14.7279
   XY=             -3.4606   XZ=              0.0000   YZ=              0.0000

 Normal termination of Gaussian 16 at Fri Aug 26 22:05:31 2022.
