 Gaussian 16, Revision A.03,
 Gaussian 16:  ES64L-G16RevA.03 25-Dec-2016

 ------------------
 #p CCSD(T)/cc-pVTZ
 ------------------

 ------------
 H2O_H2O_1864
 ------------
 Symbolic Z-matrix:
 Charge =  0 Multiplicity = 1

                         Standard orientation:
 ---------------------------------------------------------------------
 Center     Atomic      Atomic             Coordinates (Angstroms)
 Number     Number       Type             X           Y           Z
 ---------------------------------------------------------------------
      1          8           0        0.048626    1.850632    0.000000
      2          1           0        0.046487    0.868033    0.000000
      3          1           0       -0.880171    2.171322    0.000000
      4          8           0        0.048626   -1.670291   -0.000000
      5          1           0        0.826873   -2.270156   -0.000000
      6          1           0       -0.771209   -2.211931   -0.000000
 ---------------------------------------------------------------------

 SCF Done:  E(RHF) =  -152.112763681     A.U. after   10 cycles
 E2 =    -0.5265696626D+00 EUMP2 =    -0.15263933334380D+03
 CCSD(T)
 CCSD(T)= -0.15266638209D+03

 The electronic state is 1-A'.
 Alpha  occ. eigenvalues --  -20.57504 -20.53501  -1.34756  -1.30877  -0.72130
 Alpha  occ. eigenvalues --   -0.68336  -0.58487  -0.54315  -0.51896  -0.48029
 Alpha virt. eigenvalues --    0.12169   0.17147   0.19120   0.26946   0.51118
 Alpha virt. eigenvalues --    0.54903   0.56369   0.59056   0.69064   0.72381
 Alpha virt. eigenvalues --    0.75773   0.77217   0.80924   0.83334   0.84468

 Mulliken charges:
               1
     1  O   -0.531948
     2  H    0.271033
     3  H    0.247912
     4  O   -0.507510
     5  H    0.262951
     6  H    0.257562
 Sum of Mulliken charges =  -0.00000

 Dipole moment (field-independent basis, Debye):
    X=             -1.6407    Y=             -3.4261    Z=             -0.0000  Tot=              3.7987
 Quadrupole moment (field-independent basis, Debye-Ang):
   XX=             -9.1878   YY=             -7.9706   ZZ=            -14.7310
   XY=             -3.9469   XZ=             -0.0000   YZ=              0.0000

 Normal termination of Gaussian 16 at Sun Aug 28 02:17:45 2022.
