 Gaussian 16, Revision A.03,
 Gaussian 16:  ES64L-G16RevA.03 25-Dec-2016

 ------------------
 #p CCSD(T)/cc-pVTZ
 ------------------

 -----------
 H2O_H2O_778
 -----------
 Symbolic Z-matrix:
 Charge =  0 Multiplicity = 1

                         Standard orientation:
 ---------------------------------------------------------------------
 Center     Atomic      Atomic             Coordinates (Angstroms)
 Number     Number       Type             X           Y           Z
 ---------------------------------------------------------------------
      1          8           0        0.085616   -1.405115    0.000000
      2          1           0        0.085147   -0.422514    0.000000
      3          1           0       -0.843725   -1.724225    0.000000
      4          8           0        0.085616    1.255552    0.000000
      5          1           0        0.276852    2.219364    0.000000
      6          1           0       -0.888124    1.123880    0.000000
 ---------------------------------------------------------------------

 SCF Done:  E(RHF) =  -152.104633751     A.U. after   10 cycles
 E2 =    -0.5306562655D+00 EUMP2 =    -0.15263529001627D+03
 CCSD(T)
 CCSD(T)= -0.15266206910D+03

 The electronic state is 1-A'.
 Alpha  occ. eigenvalues --  -20.59257 -20.52110  -1.37201  -1.29868  -0.75405
 Alpha  occ. eigenvalues --   -0.68156  -0.59723  -0.53979  -0.52810  -0.46901
 Alpha virt. eigenvalues --    0.11392   0.16604   0.20428   0.31961   0.48258
 Alpha virt. eigenvalues --    0.53152   0.58658   0.62138   0.69258   0.71795
 Alpha virt. eigenvalues --    0.74195   0.77959   0.79666   0.82838   0.83359

 Mulliken charges:
               1
     1  O   -0.555822
     2  H    0.291442
     3  H    0.225820
     4  O   -0.430429
     5  H    0.234431
     6  H    0.234558
 Sum of Mulliken charges =  -0.00000

 Dipole moment (field-independent basis, Debye):
    X=             -2.7887    Y=              3.3149    Z=              0.0000  Tot=              4.3319
 Quadrupole moment (field-independent basis, Debye-Ang):
   XX=            -10.4466   YY=             -9.1186   ZZ=            -14.6811
   XY=              2.4819   XZ=              0.0000   YZ=              0.0000

 Normal termination of Gaussian 16 at Fri Aug 26 20:27:13 2022.
