 Gaussian 16, Revision A.03,
 Gaussian 16:  ES64L-G16RevA.03 25-Dec-2016

 ------------------
 #p CCSD(T)/cc-pVTZ
 ------------------

 -----------
 H2O_H2O_383
 -----------
 Symbolic Z-matrix:
 Charge =  0 Multiplicity = 1

                         Standard orientation:
 ---------------------------------------------------------------------
 Center     Atomic      Atomic             Coordinates (Angstroms)
 Number     Number       Type             X           Y           Z
 ---------------------------------------------------------------------
      1          8           0        0.070267    1.256742    0.000000
      2          1           0        0.068619    0.274142    0.000000
      3          1           0       -0.858690    1.576967    0.000000
      4          8           0        0.070267   -1.086611   -0.000000
      5          1           0        0.560141   -1.938391   -0.000000
      6          1           0       -0.894346   -1.273766   -0.000000
 ---------------------------------------------------------------------

 SCF Done:  E(RHF) =  -152.089145994     A.U. after   11 cycles
 E2 =    -0.5333979316D+00 EUMP2 =    -0.15262254392605D+03
 CCSD(T)
 CCSD(T)= -0.15264874445D+03

 The electronic state is 1-A'.
 Alpha  occ. eigenvalues --  -20.60627 -20.48460  -1.39725  -1.27148  -0.77172
 Alpha  occ. eigenvalues --   -0.71441  -0.57865  -0.55984  -0.49047  -0.44020
 Alpha virt. eigenvalues --    0.10988   0.16728   0.20528   0.33051   0.48443
 Alpha virt. eigenvalues --    0.52897   0.60212   0.63895   0.72025   0.72313
 Alpha virt. eigenvalues --    0.75321   0.78962   0.79361   0.84072   0.84079

 Mulliken charges:
               1
     1  O   -0.609234
     2  H    0.300423
     3  H    0.213962
     4  O   -0.386601
     5  H    0.239887
     6  H    0.241564
 Sum of Mulliken charges =  -0.00000

 Dipole moment (field-independent basis, Debye):
    X=             -2.2153    Y=             -4.2376    Z=             -0.0000  Tot=              4.7817
 Quadrupole moment (field-independent basis, Debye-Ang):
   XX=             -9.6823   YY=             -9.5417   ZZ=            -14.6363
   XY=             -2.7754   XZ=             -0.0000   YZ=              0.0000

 Normal termination of Gaussian 16 at Fri Aug 26 17:50:57 2022.
