 Gaussian 16, Revision A.03,
 Gaussian 16:  ES64L-G16RevA.03 25-Dec-2016

 ------------------
 #p CCSD(T)/cc-pVTZ
 ------------------

 ------------
 H2O_H2O_1105
 ------------
 Symbolic Z-matrix:
 Charge =  0 Multiplicity = 1

                         Standard orientation:
 ---------------------------------------------------------------------
 Center     Atomic      Atomic             Coordinates (Angstroms)
 Number     Number       Type             X           Y           Z
 ---------------------------------------------------------------------
      1          8           0        0.079874   -1.539887    0.000000
      2          1           0        0.079113   -0.557285    0.000000
      3          1           0       -0.849372   -1.859273    0.000000
      4          8           0        0.079874    1.380869    0.000000
      5          1           0        0.395001    2.311569    0.000000
      6          1           0       -0.902721    1.377129    0.000000
 ---------------------------------------------------------------------

 SCF Done:  E(RHF) =  -152.110760690     A.U. after   10 cycles
 E2 =    -0.5286344436D+00 EUMP2 =    -0.15263939513373D+03
 CCSD(T)
 CCSD(T)= -0.15266633254D+03

 The electronic state is 1-A'.
 Alpha  occ. eigenvalues --  -20.58557 -20.52835  -1.36049  -1.30373  -0.73698
 Alpha  occ. eigenvalues --   -0.68185  -0.59496  -0.53547  -0.53067  -0.47466
 Alpha virt. eigenvalues --    0.11606   0.16823   0.19896   0.30636   0.48544
 Alpha virt. eigenvalues --    0.54437   0.58518   0.59197   0.69325   0.72704
 Alpha virt. eigenvalues --    0.74590   0.76972   0.81501   0.82018   0.83871

 Mulliken charges:
               1
     1  O   -0.544521
     2  H    0.286573
     3  H    0.234882
     4  O   -0.464930
     5  H    0.242203
     6  H    0.245792
 Sum of Mulliken charges =  -0.00000

 Dipole moment (field-independent basis, Debye):
    X=             -2.6395    Y=              3.2814    Z=              0.0000  Tot=              4.2113
 Quadrupole moment (field-independent basis, Debye-Ang):
   XX=            -10.1394   YY=             -8.7942   ZZ=            -14.7127
   XY=              2.7994   XZ=              0.0000   YZ=              0.0000

 Normal termination of Gaussian 16 at Fri Aug 26 22:29:39 2022.
