 Gaussian 16, Revision A.03,
 Gaussian 16:  ES64L-G16RevA.03 25-Dec-2016

 ------------------
 #p CCSD(T)/cc-pVTZ
 ------------------

 ------------
 H2O_H2O_3841
 ------------
 Symbolic Z-matrix:
 Charge =  0 Multiplicity = 1

                         Standard orientation:
 ---------------------------------------------------------------------
 Center     Atomic      Atomic             Coordinates (Angstroms)
 Number     Number       Type             X           Y           Z
 ---------------------------------------------------------------------
      1          8           0        0.041121    2.638195   -0.000000
      2          1           0        0.039395    1.655595   -0.000000
      3          1           0       -0.887811    2.958493   -0.000000
      4          8           0        0.041121   -2.458252    0.000000
      5          1           0        0.891215   -2.951047    0.000000
      6          1           0       -0.700732   -3.102582    0.000000
 ---------------------------------------------------------------------

 SCF Done:  E(RHF) =  -152.108910308     A.U. after   10 cycles
 E2 =    -0.5258247354D+00 EUMP2 =    -0.15263473504302D+03
 CCSD(T)
 CCSD(T)= -0.15266191468D+03

 The electronic state is 1-A'.
 Alpha  occ. eigenvalues --  -20.56333 -20.54766  -1.33628  -1.32078  -0.71031
 Alpha  occ. eigenvalues --   -0.69477  -0.57140  -0.55557  -0.50751  -0.49206
 Alpha virt. eigenvalues --    0.12986   0.15305   0.19609   0.21460   0.53504
 Alpha virt. eigenvalues --    0.54970   0.56566   0.57866   0.66714   0.69191
 Alpha virt. eigenvalues --    0.78146   0.79272   0.79639   0.79669   0.82937

 Mulliken charges:
               1
     1  O   -0.515841
     2  H    0.262024
     3  H    0.253153
     4  O   -0.515871
     5  H    0.259090
     6  H    0.257445
 Sum of Mulliken charges =   0.00000

 Dipole moment (field-independent basis, Debye):
    X=             -1.4076    Y=             -3.1835    Z=              0.0000  Tot=              3.4808
 Quadrupole moment (field-independent basis, Debye-Ang):
   XX=             -9.1491   YY=             -6.6639   ZZ=            -14.7166
   XY=             -5.5361   XZ=              0.0000   YZ=             -0.0000

 Normal termination of Gaussian 16 at Fri Aug 26 23:59:25 2022.
