 Gaussian 16, Revision A.03,
 Gaussian 16:  ES64L-G16RevA.03 25-Dec-2016

 ------------------
 #p CCSD(T)/cc-pVTZ
 ------------------

 -----------
 H2O_H2O_961
 -----------
 Symbolic Z-matrix:
 Charge =  0 Multiplicity = 1

                         Standard orientation:
 ---------------------------------------------------------------------
 Center     Atomic      Atomic             Coordinates (Angstroms)
 Number     Number       Type             X           Y           Z
 ---------------------------------------------------------------------
      1          8           0        0.059710    1.490019   -0.000000
      2          1           0        0.057693    0.507420   -0.000000
      3          1           0       -0.869127    1.810593   -0.000000
      4          8           0        0.059710   -1.312667    0.000000
      5          1           0        0.706067   -2.052756    0.000000
      6          1           0       -0.849996   -1.684072    0.000000
 ---------------------------------------------------------------------

 SCF Done:  E(RHF) =  -152.112377173     A.U. after   10 cycles
 E2 =    -0.5289359171D+00 EUMP2 =    -0.15264131309015D+03
 CCSD(T)
 CCSD(T)= -0.15266813549D+03

 The electronic state is 1-A'.
 Alpha  occ. eigenvalues --  -20.58931 -20.51555  -1.36482  -1.29273  -0.73722
 Alpha  occ. eigenvalues --   -0.68245  -0.59688  -0.53508  -0.52251  -0.46366
 Alpha virt. eigenvalues --    0.11698   0.17587   0.19331   0.32033   0.48214
 Alpha virt. eigenvalues --    0.54564   0.58241   0.60053   0.69893   0.72298
 Alpha virt. eigenvalues --    0.72645   0.77214   0.82083   0.82706   0.84626

 Mulliken charges:
               1
     1  O   -0.566737
     2  H    0.299547
     3  H    0.235926
     4  O   -0.483363
     5  H    0.260155
     6  H    0.254472
 Sum of Mulliken charges =  -0.00000

 Dipole moment (field-independent basis, Debye):
    X=             -1.9634    Y=             -3.7636    Z=              0.0000  Tot=              4.2449
 Quadrupole moment (field-independent basis, Debye-Ang):
   XX=             -9.3744   YY=             -8.8105   ZZ=            -14.7203
   XY=             -3.2303   XZ=              0.0000   YZ=             -0.0000

 Normal termination of Gaussian 16 at Fri Aug 26 21:35:39 2022.
