 Gaussian 16, Revision A.03,
 Gaussian 16:  ES64L-G16RevA.03 25-Dec-2016

 ------------------
 #p CCSD(T)/cc-pVTZ
 ------------------

 ------------
 H2O_H2O_3566
 ------------
 Symbolic Z-matrix:
 Charge =  0 Multiplicity = 1

                         Standard orientation:
 ---------------------------------------------------------------------
 Center     Atomic      Atomic             Coordinates (Angstroms)
 Number     Number       Type             X           Y           Z
 ---------------------------------------------------------------------
      1          8           0        0.041128    2.528500    0.000000
      2          1           0        0.039324    1.545901    0.000000
      3          1           0       -0.887779    2.848872    0.000000
      4          8           0        0.041128   -2.348564   -0.000000
      5          1           0        0.891183   -2.841427   -0.000000
      6          1           0       -0.700775   -2.992836   -0.000000
 ---------------------------------------------------------------------

 SCF Done:  E(RHF) =  -152.109179675     A.U. after   10 cycles
 E2 =    -0.5258464872D+00 EUMP2 =    -0.15263502616220D+03
 CCSD(T)
 CCSD(T)= -0.15266219527D+03

 The electronic state is 1-A'.
 Alpha  occ. eigenvalues --  -20.56417 -20.54673  -1.33708  -1.31987  -0.71110
 Alpha  occ. eigenvalues --   -0.69385  -0.57229  -0.55470  -0.50833  -0.49117
 Alpha virt. eigenvalues --    0.12812   0.15496   0.19563   0.21745   0.53424
 Alpha virt. eigenvalues --    0.55085   0.56512   0.57980   0.66943   0.69312
 Alpha virt. eigenvalues --    0.78069   0.79077   0.79569   0.79721   0.83029

 Mulliken charges:
               1
     1  O   -0.516787
     2  H    0.262720
     3  H    0.252907
     4  O   -0.515859
     5  H    0.259443
     6  H    0.257576
 Sum of Mulliken charges =   0.00000

 Dipole moment (field-independent basis, Debye):
    X=             -1.4063    Y=             -3.1984    Z=             -0.0000  Tot=              3.4939
 Quadrupole moment (field-independent basis, Debye-Ang):
   XX=             -9.1491   YY=             -6.8386   ZZ=            -14.7176
   XY=             -5.3395   XZ=             -0.0000   YZ=              0.0000

 Normal termination of Gaussian 16 at Fri Aug 26 22:25:36 2022.
