 Gaussian 16, Revision A.03,
 Gaussian 16:  ES64L-G16RevA.03 25-Dec-2016

 ------------------
 #p CCSD(T)/cc-pVTZ
 ------------------

 -----------
 H2O_H2O_488
 -----------
 Symbolic Z-matrix:
 Charge =  0 Multiplicity = 1

                         Standard orientation:
 ---------------------------------------------------------------------
 Center     Atomic      Atomic             Coordinates (Angstroms)
 Number     Number       Type             X           Y           Z
 ---------------------------------------------------------------------
      1          8           0        0.052420    1.301859    0.000000
      2          1           0        0.049572    0.319262    0.000000
      3          1           0       -0.876146    1.623217    0.000000
      4          8           0        0.052420   -1.122109   -0.000000
      5          1           0        0.789298   -1.772122   -0.000000
      6          1           0       -0.801437   -1.608356   -0.000000
 ---------------------------------------------------------------------

 SCF Done:  E(RHF) =  -152.099093611     A.U. after   11 cycles
 E2 =    -0.5318896546D+00 EUMP2 =    -0.15263098326531D+03
 CCSD(T)
 CCSD(T)= -0.15265732417D+03

 The electronic state is 1-A'.
 Alpha  occ. eigenvalues --  -20.60299 -20.48640  -1.38838  -1.27175  -0.75410
 Alpha  occ. eigenvalues --   -0.71507  -0.58312  -0.55434  -0.49210  -0.44099
 Alpha virt. eigenvalues --    0.11198   0.17402   0.19970   0.33471   0.47520
 Alpha virt. eigenvalues --    0.53513   0.61616   0.62899   0.70768   0.72236
 Alpha virt. eigenvalues --    0.74226   0.78819   0.81073   0.82535   0.84049

 Mulliken charges:
               1
     1  O   -0.614635
     2  H    0.313619
     3  H    0.223854
     4  O   -0.429878
     5  H    0.257530
     6  H    0.249510
 Sum of Mulliken charges =  -0.00000

 Dipole moment (field-independent basis, Debye):
    X=             -1.6693    Y=             -4.3187    Z=             -0.0000  Tot=              4.6300
 Quadrupole moment (field-independent basis, Debye-Ang):
   XX=             -9.2091   YY=             -9.4559   ZZ=            -14.6700
   XY=             -3.0031   XZ=              0.0000   YZ=              0.0000

 Normal termination of Gaussian 16 at Fri Aug 26 18:36:09 2022.
