 Gaussian 16, Revision A.03,
 Gaussian 16:  ES64L-G16RevA.03 25-Dec-2016

 ------------------
 #p CCSD(T)/cc-pVTZ
 ------------------

 ------------
 H2O_H2O_2720
 ------------
 Symbolic Z-matrix:
 Charge =  0 Multiplicity = 1

                         Standard orientation:
 ---------------------------------------------------------------------
 Center     Atomic      Atomic             Coordinates (Angstroms)
 Number     Number       Type             X           Y           Z
 ---------------------------------------------------------------------
      1          8           0        0.026674    2.185808    0.000000
      2          1           0        0.023994    1.203210    0.000000
      3          1           0       -0.901946    2.507009    0.000000
      4          8           0        0.026674   -2.012593    0.000000
      5          1           0        0.975097   -2.269498    0.000000
      6          1           0       -0.523927   -2.826439    0.000000
 ---------------------------------------------------------------------

 SCF Done:  E(RHF) =  -152.110463773     A.U. after   10 cycles
 E2 =    -0.5259945202D+00 EUMP2 =    -0.15263645829271D+03
 CCSD(T)
 CCSD(T)= -0.15266358187D+03

 The electronic state is 1-A'.
 Alpha  occ. eigenvalues --  -20.56786 -20.54351  -1.34060  -1.31677  -0.71461
 Alpha  occ. eigenvalues --   -0.69080  -0.57631  -0.55170  -0.51193  -0.48820
 Alpha virt. eigenvalues --    0.12356   0.16215   0.19324   0.23566   0.53369
 Alpha virt. eigenvalues --    0.55592   0.56401   0.58607   0.68937   0.69719
 Alpha virt. eigenvalues --    0.77630   0.79081   0.80015   0.80270   0.83408

 Mulliken charges:
               1
     1  O   -0.522486
     2  H    0.265014
     3  H    0.253186
     4  O   -0.513603
     5  H    0.259860
     6  H    0.258029
 Sum of Mulliken charges =  -0.00000

 Dipole moment (field-independent basis, Debye):
    X=             -0.9100    Y=             -3.1464    Z=              0.0000  Tot=              3.2754
 Quadrupole moment (field-independent basis, Debye-Ang):
   XX=             -9.2883   YY=             -7.5939   ZZ=            -14.7216
   XY=             -5.2695   XZ=             -0.0000   YZ=              0.0000

 Normal termination of Gaussian 16 at Fri Aug 26 16:48:29 2022.
