 Gaussian 16, Revision A.03,
 Gaussian 16:  ES64L-G16RevA.03 25-Dec-2016

 ------------------
 #p CCSD(T)/cc-pVTZ
 ------------------

 -----------
 H2O_H2O_671
 -----------
 Symbolic Z-matrix:
 Charge =  0 Multiplicity = 1

                         Standard orientation:
 ---------------------------------------------------------------------
 Center     Atomic      Atomic             Coordinates (Angstroms)
 Number     Number       Type             X           Y           Z
 ---------------------------------------------------------------------
      1          8           0       -0.023383    1.366532    0.000000
      2          1           0       -0.018764    0.383942    0.000000
      3          1           0        0.904602    1.689564    0.000000
      4          8           0       -0.023383   -1.196241    0.000000
      5          1           0       -0.986192   -1.392464    0.000000
      6          1           0        0.474483   -2.043374    0.000000
 ---------------------------------------------------------------------

 SCF Done:  E(RHF) =  -152.106484333     A.U. after   10 cycles
 E2 =    -0.5305012128D+00 EUMP2 =    -0.15263698554545D+03
 CCSD(T)
 CCSD(T)= -0.15266356971D+03

 The electronic state is 1-A'.
 Alpha  occ. eigenvalues --  -20.59603 -20.50154  -1.37683  -1.28261  -0.75148
 Alpha  occ. eigenvalues --   -0.68924  -0.59640  -0.54482  -0.50716  -0.45301
 Alpha virt. eigenvalues --    0.11650   0.18195   0.19224   0.33555   0.47856
 Alpha virt. eigenvalues --    0.53995   0.57909   0.66824   0.68208   0.72279
 Alpha virt. eigenvalues --    0.73584   0.77180   0.80413   0.83699   0.84021

 Mulliken charges:
               1
     1  O   -0.601132
     2  H    0.301752
     3  H    0.241465
     4  O   -0.444653
     5  H    0.261213
     6  H    0.241355
 Sum of Mulliken charges =  -0.00000

 Dipole moment (field-independent basis, Debye):
    X=              0.7670    Y=             -3.8959    Z=              0.0000  Tot=              3.9707
 Quadrupole moment (field-independent basis, Debye-Ang):
   XX=             -9.3307   YY=             -9.1752   ZZ=            -14.6910
   XY=              3.4021   XZ=              0.0000   YZ=              0.0000

 Normal termination of Gaussian 16 at Fri Aug 26 19:45:20 2022.
