 Gaussian 16, Revision A.03,
 Gaussian 16:  ES64L-G16RevA.03 25-Dec-2016

 ------------------
 #p CCSD(T)/cc-pVTZ
 ------------------

 ------------
 H2O_H2O_2991
 ------------
 Symbolic Z-matrix:
 Charge =  0 Multiplicity = 1

                         Standard orientation:
 ---------------------------------------------------------------------
 Center     Atomic      Atomic             Coordinates (Angstroms)
 Number     Number       Type             X           Y           Z
 ---------------------------------------------------------------------
      1          8           0        0.041145    2.299139    0.000000
      2          1           0        0.039154    1.316539    0.000000
      3          1           0       -0.887700    2.619688    0.000000
      4          8           0        0.041145   -2.119219   -0.000000
      5          1           0        0.891106   -2.612242   -0.000000
      6          1           0       -0.700881   -2.763348   -0.000000
 ---------------------------------------------------------------------

 SCF Done:  E(RHF) =  -152.109972408     A.U. after   10 cycles
 E2 =    -0.5259331921D+00 EUMP2 =    -0.15263590559968D+03
 CCSD(T)
 CCSD(T)= -0.15266304527D+03

 The electronic state is 1-A'.
 Alpha  occ. eigenvalues --  -20.56654 -20.54422  -1.33931  -1.31743  -0.71330
 Alpha  occ. eigenvalues --   -0.69139  -0.57481  -0.55233  -0.51062  -0.48880
 Alpha virt. eigenvalues --    0.12514   0.15971   0.19445   0.22736   0.53176
 Alpha virt. eigenvalues --    0.55475   0.56382   0.58550   0.68341   0.69329
 Alpha virt. eigenvalues --    0.77829   0.79089   0.79421   0.79947   0.83275

 Mulliken charges:
               1
     1  O   -0.519738
     2  H    0.264527
     3  H    0.252142
     4  O   -0.514473
     5  H    0.260051
     6  H    0.257490
 Sum of Mulliken charges =  -0.00000

 Dipole moment (field-independent basis, Debye):
    X=             -1.4030    Y=             -3.2421    Z=             -0.0000  Tot=              3.5327
 Quadrupole moment (field-independent basis, Debye-Ang):
   XX=             -9.1492   YY=             -7.2049   ZZ=            -14.7202
   XY=             -4.9280   XZ=             -0.0000   YZ=              0.0000

 Normal termination of Gaussian 16 at Fri Aug 26 19:05:27 2022.
