 Gaussian 16, Revision A.03,
 Gaussian 16:  ES64L-G16RevA.03 25-Dec-2016

 ------------------
 #p CCSD(T)/cc-pVTZ
 ------------------

 ------------
 H2O_H2O_4500
 ------------
 Symbolic Z-matrix:
 Charge =  0 Multiplicity = 1

                         Standard orientation:
 ---------------------------------------------------------------------
 Center     Atomic      Atomic             Coordinates (Angstroms)
 Number     Number       Type             X           Y           Z
 ---------------------------------------------------------------------
      1          8           0        0.092949   -2.881820    0.000000
      2          1           0        0.092949   -1.899218    0.000000
      3          1           0       -0.836544   -3.200486    0.000000
      4          8           0        0.092949    2.749033    0.000000
      5          1           0        0.092949    3.731634    0.000000
      6          1           0       -0.836544    2.430365    0.000000
 ---------------------------------------------------------------------

 SCF Done:  E(RHF) =  -152.107615804     A.U. after   10 cycles
 E2 =    -0.5258786723D+00 EUMP2 =    -0.15263349447643D+03
 CCSD(T)
 CCSD(T)= -0.15266070951D+03

 The electronic state is 1-A'.
 Alpha  occ. eigenvalues --  -20.56212 -20.55353  -1.33513  -1.32654  -0.70929
 Alpha  occ. eigenvalues --   -0.70051  -0.56972  -0.56105  -0.50624  -0.49766
 Alpha virt. eigenvalues --    0.12714   0.14732   0.18866   0.21728   0.53242
 Alpha virt. eigenvalues --    0.54799   0.56545   0.57661   0.66926   0.68430
 Alpha virt. eigenvalues --    0.78268   0.79108   0.79649   0.81313   0.81607

 Mulliken charges:
               1
     1  O   -0.509409
     2  H    0.257193
     3  H    0.252161
     4  O   -0.510408
     5  H    0.258150
     6  H    0.252314
 Sum of Mulliken charges =   0.00000

 Dipole moment (field-independent basis, Debye):
    X=             -3.1876    Y=              2.3296    Z=              0.0000  Tot=              3.9482
 Quadrupole moment (field-independent basis, Debye-Ang):
   XX=            -10.8452   YY=             -9.2865   ZZ=            -14.7117
   XY=              2.1575   XZ=              0.0000   YZ=              0.0000

 Normal termination of Gaussian 16 at Sun Aug 28 03:23:00 2022.
