 Gaussian 16, Revision A.03,
 Gaussian 16:  ES64L-G16RevA.03 25-Dec-2016

 ------------------
 #p CCSD(T)/cc-pVTZ
 ------------------

 ------------
 H2O_H2O_2145
 ------------
 Symbolic Z-matrix:
 Charge =  0 Multiplicity = 1

                         Standard orientation:
 ---------------------------------------------------------------------
 Center     Atomic      Atomic             Coordinates (Angstroms)
 Number     Number       Type             X           Y           Z
 ---------------------------------------------------------------------
      1          8           0        0.026703    1.956446   -0.000000
      2          1           0        0.023694    0.973849   -0.000000
      3          1           0       -0.901810    2.277957    0.000000
      4          8           0        0.026703   -1.783249   -0.000000
      5          1           0        0.975040   -2.040471   -0.000000
      6          1           0       -0.524171   -2.596911    0.000000
 ---------------------------------------------------------------------

 SCF Done:  E(RHF) =  -152.111896955     A.U. after   10 cycles
 E2 =    -0.5262742704D+00 EUMP2 =    -0.15263817122504D+03
 CCSD(T)
 CCSD(T)= -0.15266524957D+03

 The electronic state is 1-A'.
 Alpha  occ. eigenvalues --  -20.57199 -20.53919  -1.34460  -1.31268  -0.71858
 Alpha  occ. eigenvalues --   -0.68690  -0.58120  -0.54742  -0.51597  -0.48421
 Alpha virt. eigenvalues --    0.12260   0.16839   0.19202   0.25630   0.52658
 Alpha virt. eigenvalues --    0.54990   0.56294   0.58780   0.68979   0.72207
 Alpha virt. eigenvalues --    0.76642   0.78367   0.80489   0.83534   0.83709

 Mulliken charges:
               1
     1  O   -0.528950
     2  H    0.267540
     3  H    0.252284
     4  O   -0.510086
     5  H    0.261166
     6  H    0.258046
 Sum of Mulliken charges =  -0.00000

 Dipole moment (field-independent basis, Debye):
    X=             -0.9077    Y=             -3.2292    Z=              0.0000  Tot=              3.3544
 Quadrupole moment (field-independent basis, Debye-Ang):
   XX=             -9.2893   YY=             -7.9260   ZZ=            -14.7269
   XY=             -4.7425   XZ=              0.0000   YZ=              0.0000

 Normal termination of Gaussian 16 at Sun Aug 28 04:42:19 2022.
