 Gaussian 16, Revision A.03,
 Gaussian 16:  ES64L-G16RevA.03 25-Dec-2016

 ------------------
 #p CCSD(T)/cc-pVTZ
 ------------------

 ------------
 H2O_H2O_2754
 ------------
 Symbolic Z-matrix:
 Charge =  0 Multiplicity = 1

                         Standard orientation:
 ---------------------------------------------------------------------
 Center     Atomic      Atomic             Coordinates (Angstroms)
 Number     Number       Type             X           Y           Z
 ---------------------------------------------------------------------
      1          8           0        0.082806   -2.195586    0.000000
      2          1           0        0.082399   -1.212984    0.000000
      3          1           0       -0.846555   -2.514637    0.000000
      4          8           0        0.082806    2.041072    0.000000
      5          1           0        0.336729    2.990298    0.000000
      6          1           0       -0.897465    1.973429    0.000000
 ---------------------------------------------------------------------

 SCF Done:  E(RHF) =  -152.109070170     A.U. after   10 cycles
 E2 =    -0.5261114119D+00 EUMP2 =    -0.15263518158219D+03
 CCSD(T)
 CCSD(T)= -0.15266233366D+03

 The electronic state is 1-A'.
 Alpha  occ. eigenvalues --  -20.56779 -20.54745  -1.34064  -1.32056  -0.71491
 Alpha  occ. eigenvalues --   -0.69433  -0.57568  -0.55518  -0.51180  -0.49178
 Alpha virt. eigenvalues --    0.11868   0.15869   0.19501   0.23301   0.54049
 Alpha virt. eigenvalues --    0.55089   0.56387   0.58336   0.68615   0.69536
 Alpha virt. eigenvalues --    0.77654   0.78890   0.79692   0.80660   0.82929

 Mulliken charges:
               1
     1  O   -0.514735
     2  H    0.263078
     3  H    0.248628
     4  O   -0.508683
     5  H    0.259592
     6  H    0.252121
 Sum of Mulliken charges =  -0.00000

 Dipole moment (field-independent basis, Debye):
    X=             -2.8159    Y=              2.7976    Z=              0.0000  Tot=              3.9693
 Quadrupole moment (field-independent basis, Debye-Ang):
   XX=            -10.2587   YY=             -8.2702   ZZ=            -14.7164
   XY=              2.9483   XZ=              0.0000   YZ=              0.0000

 CCSD(T)=-152.6623337\RMSD=7.032e-09\PG=CS [SG(H4O2)]\\@
 Normal termination of Gaussian 16 at Fri Aug 26 17:04:52 2022.
