 Gaussian 16, Revision A.03,
 Gaussian 16:  ES64L-G16RevA.03 25-Dec-2016

 ------------------
 #p CCSD(T)/cc-pVTZ
 ------------------

 ------------
 H2O_H2O_2399
 ------------
 Symbolic Z-matrix:
 Charge =  0 Multiplicity = 1

                         Standard orientation:
 ---------------------------------------------------------------------
 Center     Atomic      Atomic             Coordinates (Angstroms)
 Number     Number       Type             X           Y           Z
 ---------------------------------------------------------------------
      1          8           0       -0.013555    2.048591    0.000000
      2          1           0       -0.010132    1.065996    0.000000
      3          1           0        0.914822    2.370493    0.000000
      4          8           0       -0.013555   -1.889342    0.000000
      5          1           0       -0.996152   -1.892764    0.000000
      6          1           0        0.308347   -2.817719    0.000000
 ---------------------------------------------------------------------

 SCF Done:  E(RHF) =  -152.110822788     A.U. after   10 cycles
 E2 =    -0.5261284553D+00 EUMP2 =    -0.15263695124336D+03
 CCSD(T)
 CCSD(T)= -0.15266406174D+03

 The electronic state is 1-A'.
 Alpha  occ. eigenvalues --  -20.56966 -20.54368  -1.34245  -1.31699  -0.71666
 Alpha  occ. eigenvalues --   -0.69110  -0.57835  -0.55184  -0.51374  -0.48845
 Alpha virt. eigenvalues --    0.12161   0.16446   0.19261   0.24800   0.53958
 Alpha virt. eigenvalues --    0.55161   0.56089   0.58604   0.68632   0.71372
 Alpha virt. eigenvalues --    0.77192   0.79338   0.80049   0.81181   0.83658

 Mulliken charges:
               1
     1  O   -0.525276
     2  H    0.264815
     3  H    0.254778
     4  O   -0.511812
     5  H    0.259165
     6  H    0.258331
 Sum of Mulliken charges =   0.00000

 Dipole moment (field-independent basis, Debye):
    X=              0.4681    Y=             -2.9246    Z=              0.0000  Tot=              2.9618
 Quadrupole moment (field-independent basis, Debye-Ang):
   XX=             -9.6493   YY=             -8.1961   ZZ=            -14.7224
   XY=              5.5294   XZ=              0.0000   YZ=              0.0000

 Normal termination of Gaussian 16 at Sun Aug 28 06:57:59 2022.
