 Gaussian 16, Revision A.03,
 Gaussian 16:  ES64L-G16RevA.03 25-Dec-2016

 ------------------
 #p CCSD(T)/cc-pVTZ
 ------------------

 ------------
 H2O_H2O_3653
 ------------
 Symbolic Z-matrix:
 Charge =  0 Multiplicity = 1

                         Standard orientation:
 ---------------------------------------------------------------------
 Center     Atomic      Atomic             Coordinates (Angstroms)
 Number     Number       Type             X           Y           Z
 ---------------------------------------------------------------------
      1          8           0        0.085599   -2.551906    0.000000
      2          1           0        0.085347   -1.569305    0.000000
      3          1           0       -0.843812   -2.870811    0.000000
      4          8           0        0.085599    2.402305    0.000000
      5          1           0        0.277049    3.366076    0.000000
      6          1           0       -0.888169    2.270848    0.000000
 ---------------------------------------------------------------------

 SCF Done:  E(RHF) =  -152.108152984     A.U. after   10 cycles
 E2 =    -0.5259154595D+00 EUMP2 =    -0.15263406844380D+03
 CCSD(T)
 CCSD(T)= -0.15266126236D+03

 The electronic state is 1-A'.
 Alpha  occ. eigenvalues --  -20.56404 -20.55071  -1.33702  -1.32376  -0.71119
 Alpha  occ. eigenvalues --   -0.69766  -0.57178  -0.55835  -0.50815  -0.49492
 Alpha virt. eigenvalues --    0.12246   0.15247   0.19165   0.22093   0.53266
 Alpha virt. eigenvalues --    0.55025   0.56461   0.57990   0.66832   0.69005
 Alpha virt. eigenvalues --    0.78088   0.78763   0.79370   0.81090   0.82591

 Mulliken charges:
               1
     1  O   -0.511322
     2  H    0.259708
     3  H    0.250992
     4  O   -0.511756
     5  H    0.259581
     6  H    0.252797
 Sum of Mulliken charges =   0.00000

 Dipole moment (field-independent basis, Debye):
    X=             -2.9263    Y=              2.6516    Z=              0.0000  Tot=              3.9489
 Quadrupole moment (field-independent basis, Debye-Ang):
   XX=            -10.4017   YY=             -8.2957   ZZ=            -14.7136
   XY=              2.8521   XZ=              0.0000   YZ=              0.0000

 Normal termination of Gaussian 16 at Fri Aug 26 22:54:20 2022.
