 Gaussian 16, Revision A.03,
 Gaussian 16:  ES64L-G16RevA.03 25-Dec-2016

 ------------------
 #p CCSD(T)/cc-pVTZ
 ------------------

 -----------
 H2O_H2O_966
 -----------
 Symbolic Z-matrix:
 Charge =  0 Multiplicity = 1

                         Standard orientation:
 ---------------------------------------------------------------------
 Center     Atomic      Atomic             Coordinates (Angstroms)
 Number     Number       Type             X           Y           Z
 ---------------------------------------------------------------------
      1          8           0        0.041250    1.491367   -0.000000
      2          1           0        0.038112    0.508770   -0.000000
      3          1           0       -0.887220    1.813000   -0.000000
      4          8           0        0.041250   -1.311542    0.000000
      5          1           0        0.890635   -1.805558    0.000000
      6          1           0       -0.701529   -1.954805    0.000000
 ---------------------------------------------------------------------

 SCF Done:  E(RHF) =  -152.113142352     A.U. after   10 cycles
 E2 =    -0.5287758571D+00 EUMP2 =    -0.15264191820936D+03
 CCSD(T)
 CCSD(T)= -0.15266873346D+03

 The electronic state is 1-A'.
 Alpha  occ. eigenvalues --  -20.58920 -20.51364  -1.36462  -1.29107  -0.73636
 Alpha  occ. eigenvalues --   -0.68193  -0.59753  -0.53503  -0.52056  -0.46212
 Alpha virt. eigenvalues --    0.11817   0.18215   0.18872   0.32206   0.48392
 Alpha virt. eigenvalues --    0.54624   0.56879   0.61784   0.68902   0.71770
 Alpha virt. eigenvalues --    0.72679   0.77586   0.82263   0.82764   0.84756

 Mulliken charges:
               1
     1  O   -0.572972
     2  H    0.299657
     3  H    0.240803
     4  O   -0.490228
     5  H    0.266036
     6  H    0.256705
 Sum of Mulliken charges =   0.00000

 Dipole moment (field-independent basis, Debye):
    X=             -1.3599    Y=             -3.8201    Z=              0.0000  Tot=              4.0549
 Quadrupole moment (field-independent basis, Debye-Ang):
   XX=             -9.1426   YY=             -8.8108   ZZ=            -14.7242
   XY=             -3.4464   XZ=              0.0000   YZ=              0.0000

 Normal termination of Gaussian 16 at Fri Aug 26 21:37:33 2022.
