 Gaussian 16, Revision A.03,
 Gaussian 16:  ES64L-G16RevA.03 25-Dec-2016

 ------------------
 #p CCSD(T)/cc-pVTZ
 ------------------

 ------------
 H2O_H2O_1692
 ------------
 Symbolic Z-matrix:
 Charge =  0 Multiplicity = 1

                         Standard orientation:
 ---------------------------------------------------------------------
 Center     Atomic      Atomic             Coordinates (Angstroms)
 Number     Number       Type             X           Y           Z
 ---------------------------------------------------------------------
      1          8           0        0.037510    1.780054    0.000000
      2          1           0        0.034724    0.797456    0.000000
      3          1           0       -0.891075    2.101355    0.000000
      4          8           0        0.037510   -1.601144   -0.000000
      5          1           0        0.917543   -2.038234   -0.000000
      6          1           0       -0.661359   -2.291860   -0.000000
 ---------------------------------------------------------------------

 SCF Done:  E(RHF) =  -152.113442009     A.U. after   10 cycles
 E2 =    -0.5267695623D+00 EUMP2 =    -0.15264021157143D+03
 CCSD(T)
 CCSD(T)= -0.15266723746D+03

 The electronic state is 1-A'.
 Alpha  occ. eigenvalues --  -20.57691 -20.53259  -1.34955  -1.30662  -0.72320
 Alpha  occ. eigenvalues --   -0.68188  -0.58745  -0.54066  -0.52093  -0.47819
 Alpha virt. eigenvalues --    0.12167   0.17434   0.19016   0.27919   0.50890
 Alpha virt. eigenvalues --    0.54471   0.56200   0.59442   0.69016   0.72394
 Alpha virt. eigenvalues --    0.75093   0.77065   0.81186   0.83212   0.84656

 Mulliken charges:
               1
     1  O   -0.537500
     2  H    0.273329
     3  H    0.248928
     4  O   -0.507687
     5  H    0.263957
     6  H    0.258973
 Sum of Mulliken charges =  -0.00000

 Dipole moment (field-independent basis, Debye):
    X=             -1.2638    Y=             -3.4460    Z=             -0.0000  Tot=              3.6704
 Quadrupole moment (field-independent basis, Debye-Ang):
   XX=             -9.1613   YY=             -8.1281   ZZ=            -14.7337
   XY=             -4.0691   XZ=             -0.0000   YZ=              0.0000

 Normal termination of Gaussian 16 at Sun Aug 28 00:43:51 2022.
