 Gaussian 16, Revision A.03,
 Gaussian 16:  ES64L-G16RevA.03 25-Dec-2016

 ------------------
 #p CCSD(T)/cc-pVTZ
 ------------------

 ------------
 H2O_H2O_1500
 ------------
 Symbolic Z-matrix:
 Charge =  0 Multiplicity = 1

                         Standard orientation:
 ---------------------------------------------------------------------
 Center     Atomic      Atomic             Coordinates (Angstroms)
 Number     Number       Type             X           Y           Z
 ---------------------------------------------------------------------
      1          8           0        0.092949   -1.685188    0.000000
      2          1           0        0.092949   -0.702586    0.000000
      3          1           0       -0.836544   -2.003854    0.000000
      4          8           0        0.092949    1.552401    0.000000
      5          1           0        0.092949    2.535002    0.000000
      6          1           0       -0.836544    1.233733    0.000000
 ---------------------------------------------------------------------

 SCF Done:  E(RHF) =  -152.108771719     A.U. after   10 cycles
 E2 =    -0.5276842651D+00 EUMP2 =    -0.15263645598392D+03
 CCSD(T)
 CCSD(T)= -0.15266355489D+03

 The electronic state is 1-A'.
 Alpha  occ. eigenvalues --  -20.57856 -20.54472  -1.35225  -1.31824  -0.73011
 Alpha  occ. eigenvalues --   -0.69014  -0.58700  -0.55188  -0.52272  -0.48918
 Alpha virt. eigenvalues --    0.11466   0.16277   0.20532   0.27757   0.49841
 Alpha virt. eigenvalues --    0.54240   0.57586   0.58283   0.67777   0.73696
 Alpha virt. eigenvalues --    0.74157   0.78065   0.80475   0.81739   0.83298

 Mulliken charges:
               1
     1  O   -0.519972
     2  H    0.272091
     3  H    0.239448
     4  O   -0.481519
     5  H    0.250027
     6  H    0.239924
 Sum of Mulliken charges =  -0.00000

 Dipole moment (field-independent basis, Debye):
    X=             -3.1038    Y=              2.5872    Z=              0.0000  Tot=              4.0407
 Quadrupole moment (field-independent basis, Debye-Ang):
   XX=            -10.8970   YY=             -9.1474   ZZ=            -14.7093
   XY=              2.1170   XZ=              0.0000   YZ=              0.0000

 Normal termination of Gaussian 16 at Sat Aug 27 00:57:44 2022.
