 Gaussian 16, Revision A.03,
 Gaussian 16:  ES64L-G16RevA.03 25-Dec-2016

 ------------------
 #p CCSD(T)/cc-pVTZ
 ------------------

 ------------
 H2O_H2O_2561
 ------------
 Symbolic Z-matrix:
 Charge =  0 Multiplicity = 1

                         Standard orientation:
 ---------------------------------------------------------------------
 Center     Atomic      Atomic             Coordinates (Angstroms)
 Number     Number       Type             X           Y           Z
 ---------------------------------------------------------------------
      1          8           0        0.059653    2.128260   -0.000000
      2          1           0        0.058267    1.145660   -0.000000
      3          1           0       -0.869389    2.448238   -0.000000
      4          8           0        0.059653   -1.950832    0.000000
      5          1           0        0.706485   -2.690504    0.000000
      6          1           0       -0.849814   -2.322820    0.000000
 ---------------------------------------------------------------------

 SCF Done:  E(RHF) =  -152.110498512     A.U. after   10 cycles
 E2 =    -0.5261002391D+00 EUMP2 =    -0.15263659875098D+03
 CCSD(T)
 CCSD(T)= -0.15266371485D+03

 The electronic state is 1-A'.
 Alpha  occ. eigenvalues --  -20.56908 -20.54233  -1.34174  -1.31561  -0.71575
 Alpha  occ. eigenvalues --   -0.68949  -0.57747  -0.55041  -0.51305  -0.48699
 Alpha virt. eigenvalues --    0.12274   0.16305   0.19369   0.23859   0.52880
 Alpha virt. eigenvalues --    0.55674   0.56123   0.58940   0.68979   0.70340
 Alpha virt. eigenvalues --    0.77451   0.78829   0.80145   0.80587   0.83511

 Mulliken charges:
               1
     1  O   -0.521053
     2  H    0.266121
     3  H    0.249468
     4  O   -0.510547
     5  H    0.260278
     6  H    0.255733
 Sum of Mulliken charges =  -0.00000

 Dipole moment (field-independent basis, Debye):
    X=             -2.0273    Y=             -3.2442    Z=              0.0000  Tot=              3.8256
 Quadrupole moment (field-independent basis, Debye-Ang):
   XX=             -9.3674   YY=             -7.5604   ZZ=            -14.7216
   XY=             -4.0011   XZ=              0.0000   YZ=             -0.0000

 Normal termination of Gaussian 16 at Fri Aug 26 15:37:30 2022.
