 Gaussian 16, Revision A.03,
 Gaussian 16:  ES64L-G16RevA.03 25-Dec-2016

 ------------------
 #p CCSD(T)/cc-pVTZ
 ------------------

 ------------
 H2O_H2O_4541
 ------------
 Symbolic Z-matrix:
 Charge =  0 Multiplicity = 1

                         Standard orientation:
 ---------------------------------------------------------------------
 Center     Atomic      Atomic             Coordinates (Angstroms)
 Number     Number       Type             X           Y           Z
 ---------------------------------------------------------------------
      1          8           0        0.041105    2.917416    0.000000
      2          1           0        0.039550    1.934815    0.000000
      3          1           0       -0.887882    3.237553    0.000000
      4          8           0        0.041105   -2.737459    0.000000
      5          1           0        0.891285   -3.230106    0.000000
      6          1           0       -0.700636   -3.381918    0.000000
 ---------------------------------------------------------------------

 SCF Done:  E(RHF) =  -152.108439319     A.U. after   10 cycles
 E2 =    -0.5258040679D+00 EUMP2 =    -0.15263424338653D+03
 CCSD(T)
 CCSD(T)= -0.15266144038D+03

 The electronic state is 1-A'.
 Alpha  occ. eigenvalues --  -20.56176 -20.54950  -1.33478  -1.32257  -0.70882
 Alpha  occ. eigenvalues --   -0.69659  -0.56972  -0.55729  -0.50597  -0.49381
 Alpha virt. eigenvalues --    0.13387   0.14925   0.19705   0.21036   0.53663
 Alpha virt. eigenvalues --    0.54850   0.56674   0.57800   0.66853   0.68735
 Alpha virt. eigenvalues --    0.78289   0.79475   0.79675   0.80176   0.82654

 Mulliken charges:
               1
     1  O   -0.514076
     2  H    0.260377
     3  H    0.253582
     4  O   -0.514758
     5  H    0.258070
     6  H    0.256805
 Sum of Mulliken charges =  -0.00000

 Dipole moment (field-independent basis, Debye):
    X=             -1.4100    Y=             -3.1578    Z=             -0.0000  Tot=              3.4583
 Quadrupole moment (field-independent basis, Debye-Ang):
   XX=             -9.1495   YY=             -6.2145   ZZ=            -14.7149
   XY=             -6.0365   XZ=             -0.0000   YZ=             -0.0000

 Normal termination of Gaussian 16 at Sun Aug 28 03:43:29 2022.
