 Gaussian 16, Revision A.03,
 Gaussian 16:  ES64L-G16RevA.03 25-Dec-2016

 ------------------
 #p CCSD(T)/cc-pVTZ
 ------------------

 ------------
 H2O_H2O_3645
 ------------
 Symbolic Z-matrix:
 Charge =  0 Multiplicity = 1

                         Standard orientation:
 ---------------------------------------------------------------------
 Center     Atomic      Atomic             Coordinates (Angstroms)
 Number     Number       Type             X           Y           Z
 ---------------------------------------------------------------------
      1          8           0        0.026639    2.554779   -0.000000
      2          1           0        0.024359    1.572181   -0.000000
      3          1           0       -0.902113    2.875601   -0.000000
      4          8           0        0.026639   -2.381543    0.000000
      5          1           0        0.975167   -2.638060    0.000000
      6          1           0       -0.523631   -3.195613    0.000000
 ---------------------------------------------------------------------

 SCF Done:  E(RHF) =  -152.109104697     A.U. after   10 cycles
 E2 =    -0.5258317498D+00 EUMP2 =    -0.15263493644715D+03
 CCSD(T)
 CCSD(T)= -0.15266210950D+03

 The electronic state is 1-A'.
 Alpha  occ. eigenvalues --  -20.56385 -20.54761  -1.33679  -1.32074  -0.71082
 Alpha  occ. eigenvalues --   -0.69477  -0.57196  -0.55557  -0.50803  -0.49204
 Alpha virt. eigenvalues --    0.12776   0.15432   0.19460   0.21793   0.53347
 Alpha virt. eigenvalues --    0.55175   0.56554   0.57927   0.66842   0.69246
 Alpha virt. eigenvalues --    0.78097   0.78863   0.79638   0.80148   0.82951

 Mulliken charges:
               1
     1  O   -0.516843
     2  H    0.261930
     3  H    0.253982
     4  O   -0.516176
     5  H    0.258696
     6  H    0.258412
 Sum of Mulliken charges =  -0.00000

 Dipole moment (field-independent basis, Debye):
    X=             -0.9122    Y=             -3.0734    Z=              0.0000  Tot=              3.2060
 Quadrupole moment (field-independent basis, Debye-Ang):
   XX=             -9.2884   YY=             -7.0902   ZZ=            -14.7172
   XY=             -6.1146   XZ=              0.0000   YZ=             -0.0000

 Normal termination of Gaussian 16 at Fri Aug 26 22:51:44 2022.
