 Gaussian 16, Revision A.03,
 Gaussian 16:  ES64L-G16RevA.03 25-Dec-2016

 ------------------
 #p CCSD(T)/cc-pVTZ
 ------------------

 ------------
 H2O_H2O_2334
 ------------
 Symbolic Z-matrix:
 Charge =  0 Multiplicity = 1

                         Standard orientation:
 ---------------------------------------------------------------------
 Center     Atomic      Atomic             Coordinates (Angstroms)
 Number     Number       Type             X           Y           Z
 ---------------------------------------------------------------------
      1          8           0        0.066774    2.036151   -0.000000
      2          1           0        0.065634    1.053551   -0.000000
      3          1           0       -0.862348    2.355896   -0.000000
      4          8           0        0.066774   -1.863069    0.000000
      5          1           0        0.611731   -2.680705    0.000000
      6          1           0       -0.883404   -2.113404    0.000000
 ---------------------------------------------------------------------

 SCF Done:  E(RHF) =  -152.110744572     A.U. after   10 cycles
 E2 =    -0.5262407911D+00 EUMP2 =    -0.15263698536288D+03
 CCSD(T)
 CCSD(T)= -0.15266408896D+03

 The electronic state is 1-A'.
 Alpha  occ. eigenvalues --  -20.57068 -20.54163  -1.34331  -1.31495  -0.71738
 Alpha  occ. eigenvalues --   -0.68881  -0.57919  -0.54964  -0.51461  -0.48632
 Alpha virt. eigenvalues --    0.12124   0.16442   0.19373   0.24603   0.52634
 Alpha virt. eigenvalues --    0.55795   0.55963   0.58732   0.68869   0.71355
 Alpha virt. eigenvalues --    0.77088   0.78654   0.80249   0.82102   0.83570

 Mulliken charges:
               1
     1  O   -0.521719
     2  H    0.266757
     3  H    0.247977
     4  O   -0.507978
     5  H    0.260213
     6  H    0.254751
 Sum of Mulliken charges =  -0.00000

 Dipole moment (field-independent basis, Debye):
    X=             -2.2645    Y=             -3.1944    Z=              0.0000  Tot=              3.9156
 Quadrupole moment (field-independent basis, Debye-Ang):
   XX=             -9.5716   YY=             -7.8212   ZZ=            -14.7224
   XY=             -3.6444   XZ=              0.0000   YZ=             -0.0000

 Normal termination of Gaussian 16 at Sun Aug 28 06:23:27 2022.
