 Gaussian 16, Revision A.03,
 Gaussian 16:  ES64L-G16RevA.03 25-Dec-2016

 ------------------
 #p CCSD(T)/cc-pVTZ
 ------------------

 ------------
 H2O_H2O_2329
 ------------
 Symbolic Z-matrix:
 Charge =  0 Multiplicity = 1

                         Standard orientation:
 ---------------------------------------------------------------------
 Center     Atomic      Atomic             Coordinates (Angstroms)
 Number     Number       Type             X           Y           Z
 ---------------------------------------------------------------------
      1          8           0        0.082808   -2.026060    0.000000
      2          1           0        0.082367   -1.043458    0.000000
      3          1           0       -0.846541   -2.345144    0.000000
      4          8           0        0.082808    1.871552    0.000000
      5          1           0        0.336699    2.820787    0.000000
      6          1           0       -0.897459    1.803874    0.000000
 ---------------------------------------------------------------------

 SCF Done:  E(RHF) =  -152.109699162     A.U. after   10 cycles
 E2 =    -0.5263314636D+00 EUMP2 =    -0.15263603062604D+03
 CCSD(T)
 CCSD(T)= -0.15266315547D+03

 The electronic state is 1-A'.
 Alpha  occ. eigenvalues --  -20.57054 -20.54544  -1.34333  -1.31862  -0.71775
 Alpha  occ. eigenvalues --   -0.69230  -0.57864  -0.55316  -0.51448  -0.48987
 Alpha virt. eigenvalues --    0.11786   0.16162   0.19641   0.24462   0.53067
 Alpha virt. eigenvalues --    0.55694   0.56383   0.57995   0.68667   0.71668
 Alpha virt. eigenvalues --    0.77055   0.79298   0.79948   0.81114   0.83358

 Mulliken charges:
               1
     1  O   -0.517140
     2  H    0.265023
     3  H    0.246776
     4  O   -0.505186
     5  H    0.259270
     6  H    0.251258
 Sum of Mulliken charges =  -0.00000

 Dipole moment (field-independent basis, Debye):
    X=             -2.8054    Y=              2.8443    Z=              0.0000  Tot=              3.9950
 Quadrupole moment (field-independent basis, Debye-Ang):
   XX=            -10.2668   YY=             -8.3855   ZZ=            -14.7183
   XY=              2.8858   XZ=              0.0000   YZ=              0.0000

 Normal termination of Gaussian 16 at Sun Aug 28 06:21:09 2022.
