 Gaussian 16, Revision A.03,
 Gaussian 16:  ES64L-G16RevA.03 25-Dec-2016

 ------------------
 #p CCSD(T)/cc-pVTZ
 ------------------

 -----------
 H2O_H2O_796
 -----------
 Symbolic Z-matrix:
 Charge =  0 Multiplicity = 1

                         Standard orientation:
 ---------------------------------------------------------------------
 Center     Atomic      Atomic             Coordinates (Angstroms)
 Number     Number       Type             X           Y           Z
 ---------------------------------------------------------------------
      1          8           0       -0.023368    1.416395    0.000000
      2          1           0       -0.018922    0.433804    0.000000
      3          1           0        0.904674    1.739264    0.000000
      4          8           0       -0.023368   -1.246095    0.000000
      5          1           0       -0.986212   -1.442150    0.000000
      6          1           0        0.474350   -2.093317    0.000000
 ---------------------------------------------------------------------

 SCF Done:  E(RHF) =  -152.109884812     A.U. after   10 cycles
 E2 =    -0.5296863918D+00 EUMP2 =    -0.15263957120355D+03
 CCSD(T)
 CCSD(T)= -0.15266627664D+03

 The electronic state is 1-A'.
 Alpha  occ. eigenvalues --  -20.59258 -20.50859  -1.37080  -1.28773  -0.74532
 Alpha  occ. eigenvalues --   -0.68381  -0.59866  -0.53995  -0.51469  -0.45850
 Alpha virt. eigenvalues --    0.11782   0.18341   0.18965   0.33085   0.48179
 Alpha virt. eigenvalues --    0.54299   0.57174   0.65247   0.68208   0.72365
 Alpha virt. eigenvalues --    0.73391   0.77097   0.80981   0.83331   0.84171

 Mulliken charges:
               1
     1  O   -0.588955
     2  H    0.299252
     3  H    0.244126
     4  O   -0.459775
     5  H    0.261984
     6  H    0.243368
 Sum of Mulliken charges =  -0.00000

 Dipole moment (field-independent basis, Debye):
    X=              0.7726    Y=             -3.7681    Z=              0.0000  Tot=              3.8465
 Quadrupole moment (field-independent basis, Debye-Ang):
   XX=             -9.3398   YY=             -9.0255   ZZ=            -14.7050
   XY=              3.5311   XZ=              0.0000   YZ=              0.0000

 Normal termination of Gaussian 16 at Fri Aug 26 20:33:53 2022.
