 Gaussian 16, Revision A.03,
 Gaussian 16:  ES64L-G16RevA.03 25-Dec-2016

 ------------------
 #p CCSD(T)/cc-pVTZ
 ------------------

 ------------
 H2O_H2O_1019
 ------------
 Symbolic Z-matrix:
 Charge =  0 Multiplicity = 1

                         Standard orientation:
 ---------------------------------------------------------------------
 Center     Atomic      Atomic             Coordinates (Angstroms)
 Number     Number       Type             X           Y           Z
 ---------------------------------------------------------------------
      1          8           0        0.030313    1.508976   -0.000000
      2          1           0        0.026565    0.526381   -0.000000
      3          1           0       -0.897957    1.831185   -0.000000
      4          8           0        0.030313   -1.333454    0.000000
      5          1           0        0.959557   -1.652848    0.000000
      6          1           0       -0.573180   -2.108891    0.000000
 ---------------------------------------------------------------------

 SCF Done:  E(RHF) =  -152.113322399     A.U. after   10 cycles
 E2 =    -0.5285304142D+00 EUMP2 =    -0.15264185281326D+03
 CCSD(T)
 CCSD(T)= -0.15266869983D+03

 The electronic state is 1-A'.
 Alpha  occ. eigenvalues --  -20.58769 -20.51674  -1.36284  -1.29363  -0.73591
 Alpha  occ. eigenvalues --   -0.68010  -0.59794  -0.53333  -0.52367  -0.46482
 Alpha virt. eigenvalues --    0.11917   0.18504   0.18581   0.31947   0.48738
 Alpha virt. eigenvalues --    0.54663   0.56277   0.62615   0.68391   0.72535
 Alpha virt. eigenvalues --    0.72742   0.77325   0.82058   0.82713   0.84569

 Mulliken charges:
               1
     1  O   -0.570444
     2  H    0.294515
     3  H    0.245070
     4  O   -0.486794
     5  H    0.265124
     6  H    0.252529
 Sum of Mulliken charges =  -0.00000

 Dipole moment (field-independent basis, Debye):
    X=             -1.0059    Y=             -3.6944    Z=              0.0000  Tot=              3.8289
 Quadrupole moment (field-independent basis, Debye-Ang):
   XX=             -9.2204   YY=             -8.7661   ZZ=            -14.7247
   XY=             -3.6317   XZ=              0.0000   YZ=             -0.0000

 Normal termination of Gaussian 16 at Fri Aug 26 21:56:36 2022.
