 Gaussian 16, Revision A.03,
 Gaussian 16:  ES64L-G16RevA.03 25-Dec-2016

 ------------------
 #p CCSD(T)/cc-pVTZ
 ------------------

 ------------
 H2O_H2O_1214
 ------------
 Symbolic Z-matrix:
 Charge =  0 Multiplicity = 1

                         Standard orientation:
 ---------------------------------------------------------------------
 Center     Atomic      Atomic             Coordinates (Angstroms)
 Number     Number       Type             X           Y           Z
 ---------------------------------------------------------------------
      1          8           0        0.048660    1.591344   -0.000000
      2          1           0        0.046152    0.608746   -0.000000
      3          1           0       -0.880016    1.912383   -0.000000
      4          8           0        0.048660   -1.411039    0.000000
      5          1           0        0.826682   -2.011197    0.000000
      6          1           0       -0.771379   -1.952371    0.000000
 ---------------------------------------------------------------------

 SCF Done:  E(RHF) =  -152.114110025     A.U. after   10 cycles
 E2 =    -0.5278793566D+00 EUMP2 =    -0.15264198938154D+03
 CCSD(T)
 CCSD(T)= -0.15266891659D+03

 The electronic state is 1-A'.
 Alpha  occ. eigenvalues --  -20.58423 -20.52241  -1.35791  -1.29798  -0.73065
 Alpha  occ. eigenvalues --   -0.67917  -0.59519  -0.52987  -0.52894  -0.46932
 Alpha virt. eigenvalues --    0.11930   0.17870   0.18944   0.30769   0.48975
 Alpha virt. eigenvalues --    0.54781   0.56260   0.60222   0.69207   0.71554
 Alpha virt. eigenvalues --    0.73279   0.77065   0.82142   0.82709   0.84960

 Mulliken charges:
               1
     1  O   -0.554519
     2  H    0.288622
     3  H    0.242611
     4  O   -0.501149
     5  H    0.265874
     6  H    0.258560
 Sum of Mulliken charges =  -0.00000

 Dipole moment (field-independent basis, Debye):
    X=             -1.6179    Y=             -3.6666    Z=              0.0000  Tot=              4.0077
 Quadrupole moment (field-independent basis, Debye-Ang):
   XX=             -9.1863   YY=             -8.5369   ZZ=            -14.7330
   XY=             -3.5330   XZ=              0.0000   YZ=             -0.0000

 Normal termination of Gaussian 16 at Fri Aug 26 23:10:18 2022.
