 Gaussian 16, Revision A.03,
 Gaussian 16:  ES64L-G16RevA.03 25-Dec-2016

 ------------------
 #p CCSD(T)/cc-pVTZ
 ------------------

 -----------
 H2O_H2O_539
 -----------
 Symbolic Z-matrix:
 Charge =  0 Multiplicity = 1

                         Standard orientation:
 ---------------------------------------------------------------------
 Center     Atomic      Atomic             Coordinates (Angstroms)
 Number     Number       Type             X           Y           Z
 ---------------------------------------------------------------------
      1          8           0        0.048711    1.322076   -0.000000
      2          1           0        0.045653    0.339479   -0.000000
      3          1           0       -0.879787    1.643633   -0.000000
      4          8           0        0.048711   -1.141825    0.000000
      5          1           0        0.826396   -1.742418    0.000000
      6          1           0       -0.771631   -1.682700    0.000000
 ---------------------------------------------------------------------

 SCF Done:  E(RHF) =  -152.102107030     A.U. after   11 cycles
 E2 =    -0.5314254327D+00 EUMP2 =    -0.15263353246308D+03
 CCSD(T)
 CCSD(T)= -0.15265994454D+03

 The electronic state is 1-A'.
 Alpha  occ. eigenvalues --  -20.60121 -20.48978  -1.38478  -1.27394  -0.75115
 Alpha  occ. eigenvalues --   -0.70967  -0.58618  -0.55165  -0.49558  -0.44349
 Alpha virt. eigenvalues --    0.11295   0.17584   0.19793   0.33494   0.47473
 Alpha virt. eigenvalues --    0.53682   0.60990   0.63178   0.70302   0.72286
 Alpha virt. eigenvalues --    0.73631   0.78634   0.81379   0.82505   0.84111

 Mulliken charges:
               1
     1  O   -0.611080
     2  H    0.314229
     3  H    0.227056
     4  O   -0.441156
     5  H    0.260147
     6  H    0.250804
 Sum of Mulliken charges =  -0.00000

 Dipole moment (field-independent basis, Debye):
    X=             -1.5594    Y=             -4.2632    Z=              0.0000  Tot=              4.5394
 Quadrupole moment (field-independent basis, Debye-Ang):
   XX=             -9.1641   YY=             -9.3826   ZZ=            -14.6796
   XY=             -3.0607   XZ=              0.0000   YZ=             -0.0000

 Normal termination of Gaussian 16 at Fri Aug 26 18:55:32 2022.
