 Gaussian 16, Revision A.03,
 Gaussian 16:  ES64L-G16RevA.03 25-Dec-2016

 ------------------
 #p CCSD(T)/cc-pVTZ
 ------------------

 ------------
 H2O_H2O_3497
 ------------
 Symbolic Z-matrix:
 Charge =  0 Multiplicity = 1

                         Standard orientation:
 ---------------------------------------------------------------------
 Center     Atomic      Atomic             Coordinates (Angstroms)
 Number     Number       Type             X           Y           Z
 ---------------------------------------------------------------------
      1          8           0       -0.019847    2.491622    0.000000
      2          1           0       -0.017271    1.509024    0.000000
      3          1           0        0.908807    2.812724    0.000000
      4          8           0       -0.019847   -2.324512    0.000000
      5          1           0       -0.993703   -2.455320    0.000000
      6          1           0        0.419722   -3.203310    0.000000
 ---------------------------------------------------------------------

 SCF Done:  E(RHF) =  -152.109204955     A.U. after   10 cycles
 E2 =    -0.5258448803D+00 EUMP2 =    -0.15263504983582D+03
 CCSD(T)
 CCSD(T)= -0.15266221881D+03

 The electronic state is 1-A'.
 Alpha  occ. eigenvalues --  -20.56429 -20.54773  -1.33723  -1.32087  -0.71128
 Alpha  occ. eigenvalues --   -0.69493  -0.57242  -0.55573  -0.50847  -0.49219
 Alpha virt. eigenvalues --    0.12588   0.15524   0.19330   0.22128   0.53329
 Alpha virt. eigenvalues --    0.55319   0.56541   0.57977   0.67000   0.69271
 Alpha virt. eigenvalues --    0.78054   0.78729   0.79622   0.80450   0.82953

 Mulliken charges:
               1
     1  O   -0.517359
     2  H    0.261731
     3  H    0.254473
     4  O   -0.516062
     5  H    0.258383
     6  H    0.258834
 Sum of Mulliken charges =  -0.00000

 Dipole moment (field-independent basis, Debye):
    X=              0.6806    Y=             -2.9715    Z=              0.0000  Tot=              3.0485
 Quadrupole moment (field-independent basis, Debye-Ang):
   XX=             -9.4466   YY=             -7.4461   ZZ=            -14.7175
   XY=              6.3444   XZ=              0.0000   YZ=              0.0000

 Normal termination of Gaussian 16 at Fri Aug 26 22:01:35 2022.
