 Gaussian 16, Revision A.03,
 Gaussian 16:  ES64L-G16RevA.03 25-Dec-2016

 ------------------
 #p CCSD(T)/cc-pVTZ
 ------------------

 ------------
 H2O_H2O_3661
 ------------
 Symbolic Z-matrix:
 Charge =  0 Multiplicity = 1

                         Standard orientation:
 ---------------------------------------------------------------------
 Center     Atomic      Atomic             Coordinates (Angstroms)
 Number     Number       Type             X           Y           Z
 ---------------------------------------------------------------------
      1          8           0        0.059631    2.567040    0.000000
      2          1           0        0.058490    1.584439    0.000000
      3          1           0       -0.869491    2.886785    0.000000
      4          8           0        0.059631   -2.389582   -0.000000
      5          1           0        0.706647   -3.129093   -0.000000
      6          1           0       -0.849744   -2.761796   -0.000000
 ---------------------------------------------------------------------

 SCF Done:  E(RHF) =  -152.108874673     A.U. after   10 cycles
 E2 =    -0.5258582636D+00 EUMP2 =    -0.15263473293669D+03
 CCSD(T)
 CCSD(T)= -0.15266190989D+03

 The electronic state is 1-A'.
 Alpha  occ. eigenvalues --  -20.56393 -20.54749  -1.33686  -1.32061  -0.71091
 Alpha  occ. eigenvalues --   -0.69456  -0.57193  -0.55536  -0.50807  -0.49187
 Alpha virt. eigenvalues --    0.12806   0.15386   0.19554   0.21608   0.53426
 Alpha virt. eigenvalues --    0.55014   0.56495   0.57958   0.66828   0.69257
 Alpha virt. eigenvalues --    0.78094   0.78996   0.79657   0.79813   0.82947

 Mulliken charges:
               1
     1  O   -0.515107
     2  H    0.262214
     3  H    0.251965
     4  O   -0.514904
     5  H    0.259707
     6  H    0.256125
 Sum of Mulliken charges =  -0.00000

 Dipole moment (field-independent basis, Debye):
    X=             -2.0392    Y=             -3.1488    Z=             -0.0000  Tot=              3.7514
 Quadrupole moment (field-independent basis, Debye-Ang):
   XX=             -9.3629   YY=             -6.8948   ZZ=            -14.7165
   XY=             -4.5094   XZ=             -0.0000   YZ=              0.0000

 CCSD(T)=-152.6619099\RMSD=7.072e-09\PG=CS [SG(H4O2)]\\@
 Normal termination of Gaussian 16 at Fri Aug 26 22:56:57 2022.
