 Gaussian 16, Revision A.03,
 Gaussian 16:  ES64L-G16RevA.03 25-Dec-2016

 ------------------
 #p CCSD(T)/cc-pVTZ
 ------------------

 ------------
 H2O_H2O_4349
 ------------
 Symbolic Z-matrix:
 Charge =  0 Multiplicity = 1

                         Standard orientation:
 ---------------------------------------------------------------------
 Center     Atomic      Atomic             Coordinates (Angstroms)
 Number     Number       Type             X           Y           Z
 ---------------------------------------------------------------------
      1          8           0       -0.013477    2.826412    0.000000
      2          1           0       -0.011023    1.843814    0.000000
      3          1           0        0.915217    3.147399    0.000000
      4          8           0       -0.013477   -2.667136    0.000000
      5          1           0       -0.996075   -2.669590    0.000000
      6          1           0        0.307511   -3.595831    0.000000
 ---------------------------------------------------------------------

 SCF Done:  E(RHF) =  -152.108481047     A.U. after   10 cycles
 E2 =    -0.5258019342D+00 EUMP2 =    -0.15263428298137D+03
 CCSD(T)
 CCSD(T)= -0.15266147916D+03

 The electronic state is 1-A'.
 Alpha  occ. eigenvalues --  -20.56207 -20.55064  -1.33510  -1.32372  -0.70917
 Alpha  occ. eigenvalues --   -0.69779  -0.57004  -0.55846  -0.50629  -0.49496
 Alpha virt. eigenvalues --    0.13079   0.14965   0.19309   0.21464   0.53335
 Alpha virt. eigenvalues --    0.54982   0.56655   0.57788   0.66779   0.68726
 Alpha virt. eigenvalues --    0.78259   0.79361   0.79405   0.80840   0.82480

 Mulliken charges:
               1
     1  O   -0.514563
     2  H    0.259382
     3  H    0.255026
     4  O   -0.515025
     5  H    0.256927
     6  H    0.258253
 Sum of Mulliken charges =  -0.00000

 Dipole moment (field-independent basis, Debye):
    X=              0.4641    Y=             -2.7977    Z=              0.0000  Tot=              2.8359
 Quadrupole moment (field-independent basis, Debye-Ang):
   XX=             -9.6483   YY=             -7.5234   ZZ=            -14.7149
   XY=              7.6578   XZ=              0.0000   YZ=              0.0000

 9471\MP4DQ=-152.6434035\MP4SDQ=-152.6464499\CCSD=-152.6458656\CCSD(T)=
 Normal termination of Gaussian 16 at Sun Aug 28 02:08:27 2022.
