 Gaussian 16, Revision A.03,
 Gaussian 16:  ES64L-G16RevA.03 25-Dec-2016

 ------------------
 #p CCSD(T)/cc-pVTZ
 ------------------

 ------------
 H2O_H2O_1784
 ------------
 Symbolic Z-matrix:
 Charge =  0 Multiplicity = 1

                         Standard orientation:
 ---------------------------------------------------------------------
 Center     Atomic      Atomic             Coordinates (Angstroms)
 Number     Number       Type             X           Y           Z
 ---------------------------------------------------------------------
      1          8           0        0.066787    1.816760    0.000000
      2          1           0        0.065502    0.834159    0.000000
      3          1           0       -0.862289    2.136641    0.000000
      4          8           0        0.066787   -1.643697   -0.000000
      5          1           0        0.611623   -2.461412   -0.000000
      6          1           0       -0.883428   -1.893891   -0.000000
 ---------------------------------------------------------------------

 SCF Done:  E(RHF) =  -152.112199553     A.U. after   10 cycles
 E2 =    -0.5267499955D+00 EUMP2 =    -0.15263894954864D+03
 CCSD(T)
 CCSD(T)= -0.15266600132D+03

 The electronic state is 1-A'.
 Alpha  occ. eigenvalues --  -20.57583 -20.53626  -1.34850  -1.30998  -0.72255
 Alpha  occ. eigenvalues --   -0.68443  -0.58543  -0.54415  -0.51977  -0.48140
 Alpha virt. eigenvalues --    0.11990   0.16928   0.19321   0.27099   0.50644
 Alpha virt. eigenvalues --    0.55311   0.56329   0.58694   0.69226   0.72859
 Alpha virt. eigenvalues --    0.75450   0.77474   0.80878   0.83204   0.84104

 Mulliken charges:
               1
     1  O   -0.528887
     2  H    0.271202
     3  H    0.244924
     4  O   -0.504063
     5  H    0.261777
     6  H    0.255046
 Sum of Mulliken charges =  -0.00000

 Dipole moment (field-independent basis, Debye):
    X=             -2.2489    Y=             -3.3028    Z=             -0.0000  Tot=              3.9958
 Quadrupole moment (field-independent basis, Debye-Ang):
   XX=             -9.5795   YY=             -8.1554   ZZ=            -14.7286
   XY=             -3.4411   XZ=             -0.0000   YZ=             -0.0000

 Normal termination of Gaussian 16 at Sun Aug 28 01:31:49 2022.
