 Gaussian 16, Revision A.03,
 Gaussian 16:  ES64L-G16RevA.03 25-Dec-2016

 ------------------
 #p CCSD(T)/cc-pVTZ
 ------------------

 ------------
 H2O_H2O_3269
 ------------
 Symbolic Z-matrix:
 Charge =  0 Multiplicity = 1

                         Standard orientation:
 ---------------------------------------------------------------------
 Center     Atomic      Atomic             Coordinates (Angstroms)
 Number     Number       Type             X           Y           Z
 ---------------------------------------------------------------------
      1          8           0        0.030184    2.406490    0.000000
      2          1           0        0.027886    1.423892    0.000000
      3          1           0       -0.898562    2.727329    0.000000
      4          8           0        0.030184   -2.230880    0.000000
      5          1           0        0.959898   -2.548901    0.000000
      6          1           0       -0.572164   -3.007206    0.000000
 ---------------------------------------------------------------------

 SCF Done:  E(RHF) =  -152.109560254     A.U. after   10 cycles
 E2 =    -0.5258752788D+00 EUMP2 =    -0.15263543553269D+03
 CCSD(T)
 CCSD(T)= -0.15266259109D+03

 The electronic state is 1-A'.
 Alpha  occ. eigenvalues --  -20.56521 -20.54596  -1.33808  -1.31914  -0.71210
 Alpha  occ. eigenvalues --   -0.69315  -0.57341  -0.55402  -0.50935  -0.49048
 Alpha virt. eigenvalues --    0.12591   0.15726   0.19443   0.22271   0.53355
 Alpha virt. eigenvalues --    0.55350   0.56478   0.58175   0.67469   0.69350
 Alpha virt. eigenvalues --    0.77968   0.78830   0.79785   0.79876   0.83108

 Mulliken charges:
               1
     1  O   -0.518498
     2  H    0.263164
     3  H    0.253438
     4  O   -0.515730
     5  H    0.259344
     6  H    0.258282
 Sum of Mulliken charges =  -0.00000

 Dipole moment (field-independent basis, Debye):
    X=             -1.0316    Y=             -3.1401    Z=              0.0000  Tot=              3.3052
 Quadrupole moment (field-independent basis, Debye-Ang):
   XX=             -9.2295   YY=             -7.1969   ZZ=            -14.7188
   XY=             -5.6058   XZ=              0.0000   YZ=              0.0000

 Normal termination of Gaussian 16 at Fri Aug 26 20:44:37 2022.
