 Gaussian 16, Revision A.03,
 Gaussian 16:  ES64L-G16RevA.03 25-Dec-2016

 ------------------
 #p CCSD(T)/cc-pVTZ
 ------------------

 ------------
 H2O_H2O_2584
 ------------
 Symbolic Z-matrix:
 Charge =  0 Multiplicity = 1

                         Standard orientation:
 ---------------------------------------------------------------------
 Center     Atomic      Atomic             Coordinates (Angstroms)
 Number     Number       Type             X           Y           Z
 ---------------------------------------------------------------------
      1          8           0        0.066769    2.135875    0.000000
      2          1           0        0.065685    1.153274    0.000000
      3          1           0       -0.862371    2.455567   -0.000000
      4          8           0        0.066769   -1.962785    0.000000
      5          1           0        0.611771   -2.780390    0.000000
      6          1           0       -0.883395   -2.213172   -0.000000
 ---------------------------------------------------------------------

 SCF Done:  E(RHF) =  -152.110196721     A.U. after   10 cycles
 E2 =    -0.5261134534D+00 EUMP2 =    -0.15263631017477D+03
 CCSD(T)
 CCSD(T)= -0.15266343268D+03

 The electronic state is 1-A'.
 Alpha  occ. eigenvalues --  -20.56891 -20.54332  -1.34161  -1.31656  -0.71568
 Alpha  occ. eigenvalues --   -0.69041  -0.57718  -0.55132  -0.51289  -0.48791
 Alpha virt. eigenvalues --    0.12189   0.16215   0.19401   0.23740   0.53143
 Alpha virt. eigenvalues --    0.55643   0.56097   0.58805   0.68907   0.70207
 Alpha virt. eigenvalues --    0.77479   0.78967   0.80060   0.80566   0.83358

 Mulliken charges:
               1
     1  O   -0.519623
     2  H    0.265622
     3  H    0.248968
     4  O   -0.509911
     5  H    0.260024
     6  H    0.254920
 Sum of Mulliken charges =  -0.00000

 Dipole moment (field-independent basis, Debye):
    X=             -2.2692    Y=             -3.1602    Z=             -0.0000  Tot=              3.8905
 Quadrupole moment (field-independent basis, Debye-Ang):
   XX=             -9.5688   YY=             -7.6800   ZZ=            -14.7205
   XY=             -3.7358   XZ=             -0.0000   YZ=             -0.0000

 Normal termination of Gaussian 16 at Fri Aug 26 15:47:49 2022.
