 Gaussian 16, Revision A.03,
 Gaussian 16:  ES64L-G16RevA.03 25-Dec-2016

 ------------------
 #p CCSD(T)/cc-pVTZ
 ------------------

 ------------
 H2O_H2O_1203
 ------------
 Symbolic Z-matrix:
 Charge =  0 Multiplicity = 1

                         Standard orientation:
 ---------------------------------------------------------------------
 Center     Atomic      Atomic             Coordinates (Angstroms)
 Number     Number       Type             X           Y           Z
 ---------------------------------------------------------------------
      1          8           0        0.085612   -1.574643    0.000000
      2          1           0        0.085196   -0.592041    0.000000
      3          1           0       -0.843747   -1.893702    0.000000
      4          8           0        0.085612    1.425070    0.000000
      5          1           0        0.276900    2.388872    0.000000
      6          1           0       -0.888134    1.293450    0.000000
 ---------------------------------------------------------------------

 SCF Done:  E(RHF) =  -152.109984976     A.U. after   10 cycles
 E2 =    -0.5283939553D+00 EUMP2 =    -0.15263837893096D+03
 CCSD(T)
 CCSD(T)= -0.15266537551D+03

 The electronic state is 1-A'.
 Alpha  occ. eigenvalues --  -20.58347 -20.53435  -1.35804  -1.30899  -0.73569
 Alpha  occ. eigenvalues --   -0.68367  -0.59288  -0.54151  -0.52825  -0.47992
 Alpha virt. eigenvalues --    0.11569   0.16604   0.20141   0.29794   0.48853
 Alpha virt. eigenvalues --    0.54266   0.58161   0.59034   0.68720   0.72814
 Alpha virt. eigenvalues --    0.74575   0.77426   0.81291   0.81682   0.83581

 Mulliken charges:
               1
     1  O   -0.535092
     2  H    0.281305
     3  H    0.235793
     4  O   -0.466362
     5  H    0.241302
     6  H    0.243054
 Sum of Mulliken charges =  -0.00000

 Dipole moment (field-independent basis, Debye):
    X=             -2.8378    Y=              3.0365    Z=              0.0000  Tot=              4.1561
 Quadrupole moment (field-independent basis, Debye-Ang):
   XX=            -10.4496   YY=             -8.8657   ZZ=            -14.7106
   XY=              2.5639   XZ=              0.0000   YZ=              0.0000

 Normal termination of Gaussian 16 at Fri Aug 26 23:06:14 2022.
