 Gaussian 16, Revision A.03,
 Gaussian 16:  ES64L-G16RevA.03 25-Dec-2016

 ------------------
 #p CCSD(T)/cc-pVTZ
 ------------------

 ------------
 H2O_H2O_1152
 ------------
 Symbolic Z-matrix:
 Charge =  0 Multiplicity = 1

                         Standard orientation:
 ---------------------------------------------------------------------
 Center     Atomic      Atomic             Coordinates (Angstroms)
 Number     Number       Type             X           Y           Z
 ---------------------------------------------------------------------
      1          8           0        0.088239   -1.551836    0.000000
      2          1           0        0.087968   -0.569235    0.000000
      3          1           0       -0.841167   -1.870759    0.000000
      4          8           0        0.088239    1.407534    0.000000
      5          1           0        0.216225    2.381764    0.000000
      6          1           0       -0.874843    1.212651    0.000000
 ---------------------------------------------------------------------

 SCF Done:  E(RHF) =  -152.109004280     A.U. after   10 cycles
 E2 =    -0.5286898136D+00 EUMP2 =    -0.15263769409320D+03
 CCSD(T)
 CCSD(T)= -0.15266469069D+03

 The electronic state is 1-A'.
 Alpha  occ. eigenvalues --  -20.58425 -20.53518  -1.35929  -1.30990  -0.73834
 Alpha  occ. eigenvalues --   -0.68371  -0.59336  -0.54230  -0.52919  -0.48072
 Alpha virt. eigenvalues --    0.11521   0.16519   0.20331   0.29952   0.48723
 Alpha virt. eigenvalues --    0.53875   0.58119   0.59498   0.68413   0.72487
 Alpha virt. eigenvalues --    0.74377   0.77717   0.80991   0.81592   0.83392

 Mulliken charges:
               1
     1  O   -0.534002
     2  H    0.281381
     3  H    0.234497
     4  O   -0.460428
     5  H    0.239161
     6  H    0.239391
 Sum of Mulliken charges =  -0.00000

 Dipole moment (field-independent basis, Debye):
    X=             -2.9196    Y=              2.9542    Z=              0.0000  Tot=              4.1535
 Quadrupole moment (field-independent basis, Debye-Ang):
   XX=            -10.6058   YY=             -8.9736   ZZ=            -14.7051
   XY=              2.4116   XZ=              0.0000   YZ=              0.0000

 CCSD(T)=-152.6646907\RMSD=7.600e-09\PG=CS [SG(H4O2)]\\@
 Normal termination of Gaussian 16 at Fri Aug 26 22:46:26 2022.
