 Gaussian 16, Revision A.03,
 Gaussian 16:  ES64L-G16RevA.03 25-Dec-2016

 ------------------
 #p CCSD(T)/cc-pVTZ
 ------------------

 ------------
 H2O_H2O_1143
 ------------
 Symbolic Z-matrix:
 Charge =  0 Multiplicity = 1

                         Standard orientation:
 ---------------------------------------------------------------------
 Center     Atomic      Atomic             Coordinates (Angstroms)
 Number     Number       Type             X           Y           Z
 ---------------------------------------------------------------------
      1          8           0        0.033898    1.559876   -0.000000
      2          1           0        0.030485    0.577281   -0.000000
      3          1           0       -0.894482    1.881770   -0.000000
      4          8           0        0.033898   -1.382436    0.000000
      5          1           0        0.940393   -1.761612    0.000000
      6          1           0       -0.618768   -2.116964    0.000000
 ---------------------------------------------------------------------

 SCF Done:  E(RHF) =  -152.114034814     A.U. after   10 cycles
 E2 =    -0.5280592392D+00 EUMP2 =    -0.15264209405276D+03
 CCSD(T)
 CCSD(T)= -0.15266899494D+03

 The electronic state is 1-A'.
 Alpha  occ. eigenvalues --  -20.58530 -20.52052  -1.35948  -1.29654  -0.73246
 Alpha  occ. eigenvalues --   -0.67916  -0.59651  -0.53035  -0.52779  -0.46787
 Alpha virt. eigenvalues --    0.11974   0.18266   0.18694   0.31231   0.49082
 Alpha virt. eigenvalues --    0.54673   0.55974   0.61588   0.68532   0.72207
 Alpha virt. eigenvalues --    0.73050   0.77255   0.82244   0.82578   0.84754

 Mulliken charges:
               1
     1  O   -0.561612
     2  H    0.290175
     3  H    0.245529
     4  O   -0.496057
     5  H    0.265965
     6  H    0.256001
 Sum of Mulliken charges =  -0.00000

 Dipole moment (field-independent basis, Debye):
    X=             -1.1280    Y=             -3.6525    Z=              0.0000  Tot=              3.8227
 Quadrupole moment (field-independent basis, Debye-Ang):
   XX=             -9.1814   YY=             -8.6287   ZZ=            -14.7307
   XY=             -3.6863   XZ=              0.0000   YZ=             -0.0000

 Normal termination of Gaussian 16 at Fri Aug 26 22:43:11 2022.
