 Gaussian 16, Revision A.03,
 Gaussian 16:  ES64L-G16RevA.03 25-Dec-2016

 ------------------
 #p CCSD(T)/cc-pVTZ
 ------------------

 -----------
 H2O_H2O_395
 -----------
 Symbolic Z-matrix:
 Charge =  0 Multiplicity = 1

                         Standard orientation:
 ---------------------------------------------------------------------
 Center     Atomic      Atomic             Coordinates (Angstroms)
 Number     Number       Type             X           Y           Z
 ---------------------------------------------------------------------
      1          8           0        0.026861    1.258367    0.000000
      2          1           0        0.022059    0.275777    0.000000
      3          1           0       -0.901064    1.581572   -0.000000
      4          8           0        0.026861   -1.085268    0.000000
      5          1           0        0.974727   -1.344218    0.000000
      6          1           0       -0.525496   -1.897922   -0.000000
 ---------------------------------------------------------------------

 SCF Done:  E(RHF) =  -152.091098440     A.U. after   11 cycles
 E2 =    -0.5327145334D+00 EUMP2 =    -0.15262381297315D+03
 CCSD(T)
 CCSD(T)= -0.15265000019D+03

 The electronic state is 1-A'.
 Alpha  occ. eigenvalues --  -20.60555 -20.47930  -1.39622  -1.26731  -0.76869
 Alpha  occ. eigenvalues --   -0.71464  -0.58157  -0.55943  -0.48366  -0.43622
 Alpha virt. eigenvalues --    0.11208   0.17670   0.19958   0.33935   0.47246
 Alpha virt. eigenvalues --    0.53199   0.59850   0.68268   0.69895   0.72101
 Alpha virt. eigenvalues --    0.75689   0.77785   0.79339   0.83845   0.83936

 Mulliken charges:
               1
     1  O   -0.632148
     2  H    0.301336
     3  H    0.231048
     4  O   -0.400269
     5  H    0.261137
     6  H    0.238896
 Sum of Mulliken charges =  -0.00000

 Dipole moment (field-independent basis, Debye):
    X=             -0.8552    Y=             -4.3263    Z=              0.0000  Tot=              4.4100
 Quadrupole moment (field-independent basis, Debye-Ang):
   XX=             -9.2332   YY=             -9.5793   ZZ=            -14.6467
   XY=             -3.0682   XZ=              0.0000   YZ=              0.0000

 Normal termination of Gaussian 16 at Fri Aug 26 17:55:57 2022.
