 Gaussian 16, Revision A.03,
 Gaussian 16:  ES64L-G16RevA.03 25-Dec-2016

 ------------------
 #p CCSD(T)/cc-pVTZ
 ------------------

 ------------
 H2O_H2O_1984
 ------------
 Symbolic Z-matrix:
 Charge =  0 Multiplicity = 1

                         Standard orientation:
 ---------------------------------------------------------------------
 Center     Atomic      Atomic             Coordinates (Angstroms)
 Number     Number       Type             X           Y           Z
 ---------------------------------------------------------------------
      1          8           0        0.066782    1.896539    0.000000
      2          1           0        0.065554    0.913938    0.000000
      3          1           0       -0.862312    2.216367    0.000000
      4          8           0        0.066782   -1.723468   -0.000000
      5          1           0        0.611665   -2.541153   -0.000000
      6          1           0       -0.883418   -1.973718   -0.000000
 ---------------------------------------------------------------------

 SCF Done:  E(RHF) =  -152.111649361     A.U. after   10 cycles
 E2 =    -0.5265147537D+00 EUMP2 =    -0.15263816411504D+03
 CCSD(T)
 CCSD(T)= -0.15266523718D+03

 The electronic state is 1-A'.
 Alpha  occ. eigenvalues --  -20.57372 -20.53855  -1.34632  -1.31207  -0.72039
 Alpha  occ. eigenvalues --   -0.68615  -0.58283  -0.54652  -0.51762  -0.48348
 Alpha virt. eigenvalues --    0.12040   0.16758   0.19337   0.26093   0.51448
 Alpha virt. eigenvalues --    0.55504   0.56159   0.58630   0.69003   0.72515
 Alpha virt. eigenvalues --    0.76174   0.78001   0.80611   0.83363   0.83895

 Mulliken charges:
               1
     1  O   -0.525594
     2  H    0.268881
     3  H    0.246221
     4  O   -0.505569
     5  H    0.261239
     6  H    0.254821
 Sum of Mulliken charges =  -0.00000

 Dipole moment (field-independent basis, Debye):
    X=             -2.2557    Y=             -3.2566    Z=             -0.0000  Tot=              3.9615
 Quadrupole moment (field-independent basis, Debye-Ang):
   XX=             -9.5765   YY=             -8.0288   ZZ=            -14.7262
   XY=             -3.5156   XZ=             -0.0000   YZ=              0.0000

 Normal termination of Gaussian 16 at Sun Aug 28 03:20:05 2022.
