 Gaussian 16, Revision A.03,
 Gaussian 16:  ES64L-G16RevA.03 25-Dec-2016

 ------------------
 #p CCSD(T)/cc-pVTZ
 ------------------

 ------------
 H2O_H2O_1177
 ------------
 Symbolic Z-matrix:
 Charge =  0 Multiplicity = 1

                         Standard orientation:
 ---------------------------------------------------------------------
 Center     Atomic      Atomic             Coordinates (Angstroms)
 Number     Number       Type             X           Y           Z
 ---------------------------------------------------------------------
      1          8           0        0.088238   -1.561808    0.000000
      2          1           0        0.087970   -0.579207    0.000000
      3          1           0       -0.841167   -1.880729    0.000000
      4          8           0        0.088238    1.417505    0.000000
      5          1           0        0.216227    2.391735    0.000000
      6          1           0       -0.874844    1.222624    0.000000
 ---------------------------------------------------------------------

 SCF Done:  E(RHF) =  -152.109151871     A.U. after   10 cycles
 E2 =    -0.5285855137D+00 EUMP2 =    -0.15263773738509D+03
 CCSD(T)
 CCSD(T)= -0.15266474167D+03

 The electronic state is 1-A'.
 Alpha  occ. eigenvalues --  -20.58379 -20.53573  -1.35867  -1.31035  -0.73749
 Alpha  occ. eigenvalues --   -0.68403  -0.59295  -0.54286  -0.52865  -0.48119
 Alpha virt. eigenvalues --    0.11527   0.16515   0.20319   0.29808   0.48789
 Alpha virt. eigenvalues --    0.53941   0.58090   0.59355   0.68403   0.72577
 Alpha virt. eigenvalues --    0.74403   0.77700   0.81050   0.81558   0.83407

 Mulliken charges:
               1
     1  O   -0.533130
     2  H    0.280772
     3  H    0.234964
     4  O   -0.462387
     5  H    0.239861
     6  H    0.239918
 Sum of Mulliken charges =  -0.00000

 Dipole moment (field-independent basis, Debye):
    X=             -2.9220    Y=              2.9418    Z=              0.0000  Tot=              4.1463
 Quadrupole moment (field-independent basis, Debye-Ang):
   XX=            -10.6055   YY=             -8.9638   ZZ=            -14.7063
   XY=              2.4150   XZ=              0.0000   YZ=              0.0000

 Normal termination of Gaussian 16 at Fri Aug 26 22:55:27 2022.
