 Gaussian 16, Revision A.03,
 Gaussian 16:  ES64L-G16RevA.03 25-Dec-2016

 ------------------
 #p CCSD(T)/cc-pVTZ
 ------------------

 ------------
 H2O_H2O_4488
 ------------
 Symbolic Z-matrix:
 Charge =  0 Multiplicity = 1

                         Standard orientation:
 ---------------------------------------------------------------------
 Center     Atomic      Atomic             Coordinates (Angstroms)
 Number     Number       Type             X           Y           Z
 ---------------------------------------------------------------------
      1          8           0        0.052271    2.897452    0.000000
      2          1           0        0.051042    1.914851    0.000000
      3          1           0       -0.876822    3.217281   -0.000000
      4          8           0        0.052271   -2.717530    0.000000
      5          1           0        0.790220   -3.366327    0.000000
      6          1           0       -0.800783   -3.205181   -0.000000
 ---------------------------------------------------------------------

 SCF Done:  E(RHF) =  -152.108395821     A.U. after   10 cycles
 E2 =    -0.5258120337D+00 EUMP2 =    -0.15263420785460D+03
 CCSD(T)
 CCSD(T)= -0.15266140524D+03

 The electronic state is 1-A'.
 Alpha  occ. eigenvalues --  -20.56189 -20.54945  -1.33490  -1.32252  -0.70895
 Alpha  occ. eigenvalues --   -0.69652  -0.56982  -0.55722  -0.50609  -0.49375
 Alpha virt. eigenvalues --    0.13352   0.14934   0.19692   0.21045   0.53650
 Alpha virt. eigenvalues --    0.54850   0.56657   0.57796   0.66830   0.68768
 Alpha virt. eigenvalues --    0.78278   0.79481   0.79656   0.80126   0.82684

 Mulliken charges:
               1
     1  O   -0.513706
     2  H    0.260474
     3  H    0.253097
     4  O   -0.514484
     5  H    0.258393
     6  H    0.256226
 Sum of Mulliken charges =  -0.00000

 Dipole moment (field-independent basis, Debye):
    X=             -1.7925    Y=             -3.1589    Z=             -0.0000  Tot=              3.6320
 Quadrupole moment (field-independent basis, Debye-Ang):
   XX=             -9.2250   YY=             -6.2537   ZZ=            -14.7148
   XY=             -5.3396   XZ=              0.0000   YZ=             -0.0000

 Normal termination of Gaussian 16 at Sun Aug 28 03:18:28 2022.
