 Gaussian 16, Revision A.03,
 Gaussian 16:  ES64L-G16RevA.03 25-Dec-2016

 ------------------
 #p CCSD(T)/cc-pVTZ
 ------------------

 ------------
 H2O_H2O_1284
 ------------
 Symbolic Z-matrix:
 Charge =  0 Multiplicity = 1

                         Standard orientation:
 ---------------------------------------------------------------------
 Center     Atomic      Atomic             Coordinates (Angstroms)
 Number     Number       Type             X           Y           Z
 ---------------------------------------------------------------------
      1          8           0        0.066802    1.617310   -0.000000
      2          1           0        0.065350    0.634709   -0.000000
      3          1           0       -0.862219    1.937349   -0.000000
      4          8           0        0.066802   -1.444269    0.000000
      5          1           0        0.611498   -2.262078    0.000000
      6          1           0       -0.883456   -1.694302    0.000000
 ---------------------------------------------------------------------

 SCF Done:  E(RHF) =  -152.113039324     A.U. after   10 cycles
 E2 =    -0.5277906490D+00 EUMP2 =    -0.15264082997317D+03
 CCSD(T)
 CCSD(T)= -0.15266779368D+03

 The electronic state is 1-A'.
 Alpha  occ. eigenvalues --  -20.58279 -20.52748  -1.35637  -1.30244  -0.73027
 Alpha  occ. eigenvalues --   -0.68064  -0.59333  -0.53493  -0.52730  -0.47369
 Alpha virt. eigenvalues --    0.11825   0.17258   0.19352   0.30028   0.48891
 Alpha virt. eigenvalues --    0.54928   0.57286   0.59127   0.69805   0.73157
 Alpha virt. eigenvalues --    0.73460   0.76540   0.81791   0.82586   0.84518

 Mulliken charges:
               1
     1  O   -0.544333
     2  H    0.284310
     3  H    0.239930
     4  O   -0.492953
     5  H    0.258547
     6  H    0.254500
 Sum of Mulliken charges =  -0.00000

 Dipole moment (field-independent basis, Debye):
    X=             -2.2233    Y=             -3.4780    Z=              0.0000  Tot=              4.1279
 Quadrupole moment (field-independent basis, Debye-Ang):
   XX=             -9.5847   YY=             -8.5204   ZZ=            -14.7285
   XY=             -3.2476   XZ=              0.0000   YZ=             -0.0000

 Normal termination of Gaussian 16 at Fri Aug 26 23:36:02 2022.
