 Gaussian 16, Revision A.03,
 Gaussian 16:  ES64L-G16RevA.03 25-Dec-2016

 ------------------
 #p CCSD(T)/cc-pVTZ
 ------------------

 ------------
 H2O_H2O_4922
 ------------
 Symbolic Z-matrix:
 Charge =  0 Multiplicity = 1

                         Standard orientation:
 ---------------------------------------------------------------------
 Center     Atomic      Atomic             Coordinates (Angstroms)
 Number     Number       Type             X           Y           Z
 ---------------------------------------------------------------------
      1          8           0       -0.019805    3.060030    0.000000
      2          1           0       -0.017721    2.077431    0.000000
      3          1           0        0.909010    3.380667    0.000000
      4          8           0       -0.019805   -2.892900    0.000000
      5          1           0       -0.993726   -3.023221    0.000000
      6          1           0        0.419324   -3.771918    0.000000
 ---------------------------------------------------------------------

 SCF Done:  E(RHF) =  -152.108275756     A.U. after   10 cycles
 E2 =    -0.5258002163D+00 EUMP2 =    -0.15263407597193D+03
 CCSD(T)
 CCSD(T)= -0.15266127850D+03

 The electronic state is 1-A'.
 Alpha  occ. eigenvalues --  -20.56114 -20.55107  -1.33417  -1.32413  -0.70823
 Alpha  occ. eigenvalues --   -0.69819  -0.56903  -0.55883  -0.50535  -0.49535
 Alpha virt. eigenvalues --    0.13476   0.14738   0.19611   0.20969   0.53640
 Alpha virt. eigenvalues --    0.54787   0.56720   0.57723   0.67058   0.68443
 Alpha virt. eigenvalues --    0.78347   0.79326   0.79721   0.80684   0.82020

 Mulliken charges:
               1
     1  O   -0.513573
     2  H    0.258891
     3  H    0.254649
     4  O   -0.514039
     5  H    0.256808
     6  H    0.257263
 Sum of Mulliken charges =  -0.00000

 Dipole moment (field-independent basis, Debye):
    X=              0.6809    Y=             -2.9234    Z=              0.0000  Tot=              3.0016
 Quadrupole moment (field-independent basis, Debye-Ang):
   XX=             -9.4481   YY=             -6.7895   ZZ=            -14.7143
   XY=              7.7769   XZ=              0.0000   YZ=              0.0000

 Normal termination of Gaussian 16 at Sun Aug 28 06:55:48 2022.
