 Gaussian 16, Revision A.03,
 Gaussian 16:  ES64L-G16RevA.03 25-Dec-2016

 ------------------
 #p CCSD(T)/cc-pVTZ
 ------------------

 ------------
 H2O_H2O_4534
 ------------
 Symbolic Z-matrix:
 Charge =  0 Multiplicity = 1

                         Standard orientation:
 ---------------------------------------------------------------------
 Center     Atomic      Atomic             Coordinates (Angstroms)
 Number     Number       Type             X           Y           Z
 ---------------------------------------------------------------------
      1          8           0        0.066743    2.913706   -0.000000
      2          1           0        0.065957    1.931104   -0.000000
      3          1           0       -0.862495    3.233116   -0.000000
      4          8           0        0.066743   -2.740575    0.000000
      5          1           0        0.611993   -3.558015    0.000000
      6          1           0       -0.883345   -2.991251    0.000000
 ---------------------------------------------------------------------

 SCF Done:  E(RHF) =  -152.108211833     A.U. after   10 cycles
 E2 =    -0.5258262712D+00 EUMP2 =    -0.15263403810431D+03
 CCSD(T)
 CCSD(T)= -0.15266123959D+03

 The electronic state is 1-A'.
 Alpha  occ. eigenvalues --  -20.56186 -20.55017  -1.33488  -1.32323  -0.70895
 Alpha  occ. eigenvalues --   -0.69722  -0.56972  -0.55789  -0.50604  -0.49444
 Alpha virt. eigenvalues --    0.13303   0.14864   0.19604   0.21046   0.53567
 Alpha virt. eigenvalues --    0.54855   0.56641   0.57770   0.66872   0.68689
 Alpha virt. eigenvalues --    0.78283   0.79416   0.79533   0.80442   0.82547

 Mulliken charges:
               1
     1  O   -0.512657
     2  H    0.259905
     3  H    0.252644
     4  O   -0.513561
     5  H    0.258468
     6  H    0.255202
 Sum of Mulliken charges =   0.00000

 Dipole moment (field-independent basis, Debye):
    X=             -2.2889    Y=             -3.0383    Z=              0.0000  Tot=              3.8040
 Quadrupole moment (field-independent basis, Debye-Ang):
   XX=             -9.5600   YY=             -6.6240   ZZ=            -14.7141
   XY=             -4.4459   XZ=              0.0000   YZ=             -0.0000

 Normal termination of Gaussian 16 at Sun Aug 28 03:40:57 2022.
