 Gaussian 16, Revision A.03,
 Gaussian 16:  ES64L-G16RevA.03 25-Dec-2016

 ------------------
 #p CCSD(T)/cc-pVTZ
 ------------------

 ------------
 H2O_H2O_4502
 ------------
 Symbolic Z-matrix:
 Charge =  0 Multiplicity = 1

                         Standard orientation:
 ---------------------------------------------------------------------
 Center     Atomic      Atomic             Coordinates (Angstroms)
 Number     Number       Type             X           Y           Z
 ---------------------------------------------------------------------
      1          8           0        0.088229   -2.888087    0.000000
      2          1           0        0.088087   -1.905485    0.000000
      3          1           0       -0.841218   -3.206888    0.000000
      4          8           0        0.088229    2.743761    0.000000
      5          1           0        0.216344    3.717975    0.000000
      6          1           0       -0.874878    2.549004    0.000000
 ---------------------------------------------------------------------

 SCF Done:  E(RHF) =  -152.107774106     A.U. after   10 cycles
 E2 =    -0.5258648555D+00 EUMP2 =    -0.15263363896114D+03
 CCSD(T)
 CCSD(T)= -0.15266085019D+03

 The electronic state is 1-A'.
 Alpha  occ. eigenvalues --  -20.56206 -20.55257  -1.33508  -1.32559  -0.70921
 Alpha  occ. eigenvalues --   -0.69956  -0.56972  -0.56014  -0.50620  -0.49673
 Alpha virt. eigenvalues --    0.12908   0.14759   0.19087   0.21467   0.53296
 Alpha virt. eigenvalues --    0.54837   0.56567   0.57702   0.66907   0.68511
 Alpha virt. eigenvalues --    0.78271   0.79197   0.79590   0.81154   0.81831

 Mulliken charges:
               1
     1  O   -0.510239
     2  H    0.257992
     3  H    0.252173
     4  O   -0.511255
     5  H    0.258311
     6  H    0.253017
 Sum of Mulliken charges =  -0.00000

 Dipole moment (field-independent basis, Debye):
    X=             -3.0256    Y=              2.5324    Z=              0.0000  Tot=              3.9456
 Quadrupole moment (field-independent basis, Debye-Ang):
   XX=            -10.5497   YY=             -8.4782   ZZ=            -14.7124
   XY=              2.6812   XZ=              0.0000   YZ=              0.0000

 3104\MP4DQ=-152.6427598\MP4SDQ=-152.6458124\CCSD=-152.6452262\CCSD(T)=
 Normal termination of Gaussian 16 at Sun Aug 28 03:23:48 2022.
