 Gaussian 16, Revision A.03,
 Gaussian 16:  ES64L-G16RevA.03 25-Dec-2016

 ------------------
 #p CCSD(T)/cc-pVTZ
 ------------------

 -----------
 H2O_H2O_335
 -----------
 Symbolic Z-matrix:
 Charge =  0 Multiplicity = 1

                         Standard orientation:
 ---------------------------------------------------------------------
 Center     Atomic      Atomic             Coordinates (Angstroms)
 Number     Number       Type             X           Y           Z
 ---------------------------------------------------------------------
      1          8           0        0.063332    1.239646    0.000000
      2          1           0        0.061143    0.257047    0.000000
      3          1           0       -0.865448    1.560382    0.000000
      4          8           0        0.063332   -1.064277    0.000000
      5          1           0        0.659763   -1.845158    0.000000
      6          1           0       -0.868772   -1.375224    0.000000
 ---------------------------------------------------------------------

 SCF Done:  E(RHF) =  -152.085764052     A.U. after   11 cycles
 E2 =    -0.5335806738D+00 EUMP2 =    -0.15261934472574D+03
 CCSD(T)
 CCSD(T)= -0.15264544277D+03

 The electronic state is 1-A'.
 Alpha  occ. eigenvalues --  -20.60857 -20.47643  -1.40169  -1.26573  -0.77033
 Alpha  occ. eigenvalues --   -0.72737  -0.57315  -0.56345  -0.48181  -0.43395
 Alpha virt. eigenvalues --    0.10908   0.16819   0.20528   0.33165   0.48072
 Alpha virt. eigenvalues --    0.52884   0.61198   0.63716   0.71875   0.71973
 Alpha virt. eigenvalues --    0.76440   0.79489   0.79764   0.83326   0.84110

 Mulliken charges:
               1
     1  O   -0.622365
     2  H    0.304072
     3  H    0.213387
     4  O   -0.385047
     5  H    0.245602
     6  H    0.244351
 Sum of Mulliken charges =  -0.00000

 Dipole moment (field-independent basis, Debye):
    X=             -1.9841    Y=             -4.4414    Z=              0.0000  Tot=              4.8644
 Quadrupole moment (field-independent basis, Debye-Ang):
   XX=             -9.4434   YY=             -9.6623   ZZ=            -14.6317
   XY=             -2.8269   XZ=             -0.0000   YZ=              0.0000

 Normal termination of Gaussian 16 at Fri Aug 26 17:31:02 2022.
