 Gaussian 16, Revision A.03,
 Gaussian 16:  ES64L-G16RevA.03 25-Dec-2016

 ------------------
 #p CCSD(T)/cc-pVTZ
 ------------------

 ------------
 H2O_H2O_2628
 ------------
 Symbolic Z-matrix:
 Charge =  0 Multiplicity = 1

                         Standard orientation:
 ---------------------------------------------------------------------
 Center     Atomic      Atomic             Coordinates (Angstroms)
 Number     Number       Type             X           Y           Z
 ---------------------------------------------------------------------
      1          8           0        0.085603   -2.143053    0.000000
      2          1           0        0.085301   -1.160452    0.000000
      3          1           0       -0.843792   -2.462005    0.000000
      4          8           0        0.085603    1.993461    0.000000
      5          1           0        0.277003    2.957241    0.000000
      6          1           0       -0.888159    1.861953    0.000000
 ---------------------------------------------------------------------

 SCF Done:  E(RHF) =  -152.109022453     A.U. after   10 cycles
 E2 =    -0.5261808137D+00 EUMP2 =    -0.15263520326633D+03
 CCSD(T)
 CCSD(T)= -0.15266235314D+03

 The electronic state is 1-A'.
 Alpha  occ. eigenvalues --  -20.56850 -20.54779  -1.34135  -1.32089  -0.71571
 Alpha  occ. eigenvalues --   -0.69461  -0.57636  -0.55546  -0.51249  -0.49210
 Alpha virt. eigenvalues --    0.11742   0.15907   0.19586   0.23638   0.53929
 Alpha virt. eigenvalues --    0.55258   0.56443   0.58168   0.68633   0.70067
 Alpha virt. eigenvalues --    0.77522   0.78980   0.79682   0.80612   0.82993

 Mulliken charges:
               1
     1  O   -0.514486
     2  H    0.263187
     3  H    0.248020
     4  O   -0.507154
     5  H    0.259413
     6  H    0.251020
 Sum of Mulliken charges =  -0.00000

 Dipole moment (field-independent basis, Debye):
    X=             -2.9075    Y=              2.7185    Z=              0.0000  Tot=              3.9805
 Quadrupole moment (field-independent basis, Debye-Ang):
   XX=            -10.4150   YY=             -8.4928   ZZ=            -14.7160
   XY=              2.7431   XZ=              0.0000   YZ=              0.0000

 Normal termination of Gaussian 16 at Fri Aug 26 16:08:46 2022.
