 Gaussian 16, Revision A.03,
 Gaussian 16:  ES64L-G16RevA.03 25-Dec-2016

 ------------------
 #p CCSD(T)/cc-pVTZ
 ------------------

 ------------
 H2O_H2O_2279
 ------------
 Symbolic Z-matrix:
 Charge =  0 Multiplicity = 1

                         Standard orientation:
 ---------------------------------------------------------------------
 Center     Atomic      Atomic             Coordinates (Angstroms)
 Number     Number       Type             X           Y           Z
 ---------------------------------------------------------------------
      1          8           0        0.082809   -2.006116    0.000000
      2          1           0        0.082362   -1.023514    0.000000
      3          1           0       -0.846539   -2.325204    0.000000
      4          8           0        0.082809    1.851609    0.000000
      5          1           0        0.336693    2.800845    0.000000
      6          1           0       -0.897460    1.783926    0.000000
 ---------------------------------------------------------------------

 SCF Done:  E(RHF) =  -152.109783970     A.U. after   10 cycles
 E2 =    -0.5263664467D+00 EUMP2 =    -0.15263615041646D+03
 CCSD(T)
 CCSD(T)= -0.15266327173D+03

 The electronic state is 1-A'.
 Alpha  occ. eigenvalues --  -20.57092 -20.54515  -1.34370  -1.31835  -0.71815
 Alpha  occ. eigenvalues --   -0.69201  -0.57906  -0.55286  -0.51485  -0.48960
 Alpha virt. eigenvalues --    0.11780   0.16196   0.19656   0.24628   0.52890
 Alpha virt. eigenvalues --    0.55736   0.56388   0.57950   0.68669   0.71943
 Alpha virt. eigenvalues --    0.76947   0.79262   0.79988   0.81356   0.83446

 Mulliken charges:
               1
     1  O   -0.517473
     2  H    0.265271
     3  H    0.246516
     4  O   -0.504738
     5  H    0.259259
     6  H    0.251164
 Sum of Mulliken charges =  -0.00000

 Dipole moment (field-independent basis, Debye):
    X=             -2.8040    Y=              2.8510    Z=              0.0000  Tot=              3.9988
 Quadrupole moment (field-independent basis, Debye-Ang):
   XX=            -10.2679   YY=             -8.3995   ZZ=            -14.7186
   XY=              2.8784   XZ=              0.0000   YZ=              0.0000

 Normal termination of Gaussian 16 at Sun Aug 28 05:57:18 2022.
