 Gaussian 16, Revision A.03,
 Gaussian 16:  ES64L-G16RevA.03 25-Dec-2016

 ------------------
 #p CCSD(T)/cc-pVTZ
 ------------------

 ------------
 H2O_H2O_2182
 ------------
 Symbolic Z-matrix:
 Charge =  0 Multiplicity = 1

                         Standard orientation:
 ---------------------------------------------------------------------
 Center     Atomic      Atomic             Coordinates (Angstroms)
 Number     Number       Type             X           Y           Z
 ---------------------------------------------------------------------
      1          8           0        0.073548    1.972972    0.000000
      2          1           0        0.072676    0.990371    0.000000
      3          1           0       -0.855662    2.292463    0.000000
      4          8           0        0.073548   -1.806052    0.000000
      5          1           0        0.507360   -2.687705    0.000000
      6          1           0       -0.901142   -1.930488    0.000000
 ---------------------------------------------------------------------

 SCF Done:  E(RHF) =  -152.110714224     A.U. after   10 cycles
 E2 =    -0.5263781932D+00 EUMP2 =    -0.15263709241705D+03
 CCSD(T)
 CCSD(T)= -0.15266419089D+03

 The electronic state is 1-A'.
 Alpha  occ. eigenvalues --  -20.57184 -20.54181  -1.34451  -1.31514  -0.71872
 Alpha  occ. eigenvalues --   -0.68897  -0.58038  -0.54970  -0.51575  -0.48648
 Alpha virt. eigenvalues --    0.11977   0.16460   0.19459   0.25105   0.52330
 Alpha virt. eigenvalues --    0.55832   0.56011   0.58369   0.68837   0.72072
 Alpha virt. eigenvalues --    0.76739   0.78697   0.80283   0.83125   0.83463

 Mulliken charges:
               1
     1  O   -0.521325
     2  H    0.266892
     3  H    0.246666
     4  O   -0.505803
     5  H    0.260036
     6  H    0.253534
 Sum of Mulliken charges =   0.00000

 Dipole moment (field-independent basis, Debye):
    X=             -2.4895    Y=             -3.1014    Z=              0.0000  Tot=              3.9770
 Quadrupole moment (field-independent basis, Debye-Ang):
   XX=             -9.8276   YY=             -8.0696   ZZ=            -14.7223
   XY=             -3.3237   XZ=              0.0000   YZ=              0.0000

 535834\MP4DQ=-152.6460125\MP4SDQ=-152.6490972\CCSD=-152.64849\CCSD(T)=
 Normal termination of Gaussian 16 at Sun Aug 28 05:10:08 2022.
