 Gaussian 16, Revision A.03,
 Gaussian 16:  ES64L-G16RevA.03 25-Dec-2016

 ------------------
 #p CCSD(T)/cc-pVTZ
 ------------------

 ------------
 H2O_H2O_1240
 ------------
 Symbolic Z-matrix:
 Charge =  0 Multiplicity = 1

                         Standard orientation:
 ---------------------------------------------------------------------
 Center     Atomic      Atomic             Coordinates (Angstroms)
 Number     Number       Type             X           Y           Z
 ---------------------------------------------------------------------
      1          8           0        0.044940    1.601324   -0.000000
      2          1           0        0.042239    0.618726   -0.000000
      3          1           0       -0.883673    1.922544   -0.000000
      4          8           0        0.044940   -1.421006    0.000000
      5          1           0        0.860441   -1.969154    0.000000
      6          1           0       -0.738055   -2.014659    0.000000
 ---------------------------------------------------------------------

 SCF Done:  E(RHF) =  -152.114218981     A.U. after   10 cycles
 E2 =    -0.5277821669D+00 EUMP2 =    -0.15264200114757D+03
 CCSD(T)
 CCSD(T)= -0.15266893554D+03

 The electronic state is 1-A'.
 Alpha  occ. eigenvalues --  -20.58373 -20.52296  -1.35731  -1.29842  -0.73012
 Alpha  occ. eigenvalues --   -0.67902  -0.59492  -0.53047  -0.52838  -0.46980
 Alpha virt. eigenvalues --    0.11966   0.17940   0.18877   0.30635   0.49144
 Alpha virt. eigenvalues --    0.54728   0.56068   0.60388   0.68979   0.71626
 Alpha virt. eigenvalues --    0.73360   0.77085   0.82092   0.82748   0.84963

 Mulliken charges:
               1
     1  O   -0.554025
     2  H    0.287387
     3  H    0.243788
     4  O   -0.502208
     5  H    0.266255
     6  H    0.258802
 Sum of Mulliken charges =  -0.00000

 Dipole moment (field-independent basis, Debye):
    X=             -1.4961    Y=             -3.6539    Z=              0.0000  Tot=              3.9484
 Quadrupole moment (field-independent basis, Debye-Ang):
   XX=             -9.1587   YY=             -8.5120   ZZ=            -14.7338
   XY=             -3.6032   XZ=              0.0000   YZ=              0.0000

 Normal termination of Gaussian 16 at Fri Aug 26 23:19:37 2022.
