 Gaussian 16, Revision A.03,
 Gaussian 16:  ES64L-G16RevA.03 25-Dec-2016

 ------------------
 #p CCSD(T)/cc-pVTZ
 ------------------

 -----------
 H2O_H2O_418
 -----------
 Symbolic Z-matrix:
 Charge =  0 Multiplicity = 1

                         Standard orientation:
 ---------------------------------------------------------------------
 Center     Atomic      Atomic             Coordinates (Angstroms)
 Number     Number       Type             X           Y           Z
 ---------------------------------------------------------------------
      1          8           0        0.033974    1.270664    0.000000
      2          1           0        0.029725    0.288071    0.000000
      3          1           0       -0.894133    1.593346    0.000000
      4          8           0        0.033974   -1.093281    0.000000
      5          1           0        0.940145   -1.473227    0.000000
      6          1           0       -0.619317   -1.827254    0.000000
 ---------------------------------------------------------------------

 SCF Done:  E(RHF) =  -152.093862496     A.U. after   11 cycles
 E2 =    -0.5324028657D+00 EUMP2 =    -0.15262626536181D+03
 CCSD(T)
 CCSD(T)= -0.15265248993D+03

 The electronic state is 1-A'.
 Alpha  occ. eigenvalues --  -20.60515 -20.47978  -1.39405  -1.26738  -0.76169
 Alpha  occ. eigenvalues --   -0.71892  -0.58070  -0.55831  -0.48458  -0.43628
 Alpha virt. eigenvalues --    0.11185   0.17623   0.19954   0.33808   0.47133
 Alpha virt. eigenvalues --    0.53349   0.60449   0.67097   0.69491   0.72153
 Alpha virt. eigenvalues --    0.75422   0.78483   0.80144   0.83216   0.83804

 Mulliken charges:
               1
     1  O   -0.629044
     2  H    0.307253
     3  H    0.228166
     4  O   -0.411980
     5  H    0.261348
     6  H    0.244257
 Sum of Mulliken charges =   0.00000

 Dipole moment (field-independent basis, Debye):
    X=             -1.0799    Y=             -4.3844    Z=              0.0000  Tot=              4.5154
 Quadrupole moment (field-independent basis, Debye-Ang):
   XX=             -9.1426   YY=             -9.5670   ZZ=            -14.6555
   XY=             -3.0320   XZ=              0.0000   YZ=              0.0000

 Normal termination of Gaussian 16 at Fri Aug 26 18:07:45 2022.
