 Gaussian 16, Revision A.03,
 Gaussian 16:  ES64L-G16RevA.03 25-Dec-2016

 ------------------
 #p CCSD(T)/cc-pVTZ
 ------------------

 ------------
 H2O_H2O_4012
 ------------
 Symbolic Z-matrix:
 Charge =  0 Multiplicity = 1

                         Standard orientation:
 ---------------------------------------------------------------------
 Center     Atomic      Atomic             Coordinates (Angstroms)
 Number     Number       Type             X           Y           Z
 ---------------------------------------------------------------------
      1          8           0        0.055973    2.707446   -0.000000
      2          1           0        0.054774    1.724845   -0.000000
      3          1           0       -0.873131    3.027246    0.000000
      4          8           0        0.055973   -2.528516   -0.000000
      5          1           0        0.749929   -3.224168   -0.000000
      6          1           0       -0.827136   -2.959359    0.000000
 ---------------------------------------------------------------------

 SCF Done:  E(RHF) =  -152.108642790     A.U. after   10 cycles
 E2 =    -0.5258289772D+00 EUMP2 =    -0.15263447176705D+03
 CCSD(T)
 CCSD(T)= -0.15266165925D+03

 The electronic state is 1-A'.
 Alpha  occ. eigenvalues --  -20.56292 -20.54837  -1.33590  -1.32147  -0.70994
 Alpha  occ. eigenvalues --   -0.69545  -0.57091  -0.55621  -0.50710  -0.49272
 Alpha virt. eigenvalues --    0.13064   0.15172   0.19621   0.21303   0.53528
 Alpha virt. eigenvalues --    0.54916   0.56575   0.57837   0.66681   0.69079
 Alpha virt. eigenvalues --    0.78184   0.79328   0.79578   0.79847   0.82859

 Mulliken charges:
               1
     1  O   -0.514496
     2  H    0.261500
     3  H    0.252553
     4  O   -0.515051
     5  H    0.259190
     6  H    0.256306
 Sum of Mulliken charges =  -0.00000

 Dipole moment (field-independent basis, Debye):
    X=             -1.9166    Y=             -3.1580    Z=              0.0000  Tot=              3.6941
 Quadrupole moment (field-independent basis, Debye-Ang):
   XX=             -9.2855   YY=             -6.6094   ZZ=            -14.7156
   XY=             -4.8733   XZ=              0.0000   YZ=              0.0000

 Normal termination of Gaussian 16 at Sat Aug 27 00:59:22 2022.
