 Gaussian 16, Revision A.03,
 Gaussian 16:  ES64L-G16RevA.03 25-Dec-2016

 ------------------
 #p CCSD(T)/cc-pVTZ
 ------------------

 ------------
 H2O_H2O_2243
 ------------
 Symbolic Z-matrix:
 Charge =  0 Multiplicity = 1

                         Standard orientation:
 ---------------------------------------------------------------------
 Center     Atomic      Atomic             Coordinates (Angstroms)
 Number     Number       Type             X           Y           Z
 ---------------------------------------------------------------------
      1          8           0        0.033828    1.998667    0.000000
      2          1           0        0.031198    1.016069    0.000000
      3          1           0       -0.894810    2.319819    0.000000
      4          8           0        0.033828   -1.821172   -0.000000
      5          1           0        0.940623   -2.199624   -0.000000
      6          1           0       -0.618253   -2.556221   -0.000000
 ---------------------------------------------------------------------

 SCF Done:  E(RHF) =  -152.111695361     A.U. after   10 cycles
 E2 =    -0.5262117181D+00 EUMP2 =    -0.15263790707928D+03
 CCSD(T)
 CCSD(T)= -0.15266499192D+03

 The electronic state is 1-A'.
 Alpha  occ. eigenvalues --  -20.57129 -20.53938  -1.34387  -1.31282  -0.71778
 Alpha  occ. eigenvalues --   -0.68696  -0.58031  -0.54763  -0.51526  -0.48433
 Alpha virt. eigenvalues --    0.12296   0.16749   0.19225   0.25196   0.52515
 Alpha virt. eigenvalues --    0.55235   0.56438   0.58809   0.69041   0.71824
 Alpha virt. eigenvalues --    0.76896   0.78301   0.80445   0.83043   0.83589

 Mulliken charges:
               1
     1  O   -0.527395
     2  H    0.267566
     3  H    0.251412
     4  O   -0.510269
     5  H    0.261061
     6  H    0.257627
 Sum of Mulliken charges =  -0.00000

 Dipole moment (field-independent basis, Debye):
    X=             -1.1483    Y=             -3.2937    Z=             -0.0000  Tot=              3.4881
 Quadrupole moment (field-independent basis, Debye-Ang):
   XX=             -9.1868   YY=             -7.7600   ZZ=            -14.7261
   XY=             -4.6049   XZ=             -0.0000   YZ=              0.0000

 Normal termination of Gaussian 16 at Sun Aug 28 05:41:39 2022.
