 Gaussian 16, Revision A.03,
 Gaussian 16:  ES64L-G16RevA.03 25-Dec-2016

 ------------------
 #p CCSD(T)/cc-pVTZ
 ------------------

 ------------
 H2O_H2O_1413
 ------------
 Symbolic Z-matrix:
 Charge =  0 Multiplicity = 1

                         Standard orientation:
 ---------------------------------------------------------------------
 Center     Atomic      Atomic             Coordinates (Angstroms)
 Number     Number       Type             X           Y           Z
 ---------------------------------------------------------------------
      1          8           0        0.052359    1.670855   -0.000000
      2          1           0        0.050176    0.688256   -0.000000
      3          1           0       -0.876424    1.991585   -0.000000
      4          8           0        0.052359   -1.491034    0.000000
      5          1           0        0.789677   -2.140548    0.000000
      6          1           0       -0.801168   -1.977858    0.000000
 ---------------------------------------------------------------------

 SCF Done:  E(RHF) =  -152.113892334     A.U. after   10 cycles
 E2 =    -0.5273537926D+00 EUMP2 =    -0.15264124612693D+03
 CCSD(T)
 CCSD(T)= -0.15266822800D+03

 The electronic state is 1-A'.
 Alpha  occ. eigenvalues --  -20.58089 -20.52770  -1.35391  -1.30238  -0.72720
 Alpha  occ. eigenvalues --   -0.67980  -0.59193  -0.53544  -0.52515  -0.47383
 Alpha virt. eigenvalues --    0.11996   0.17592   0.19025   0.29514   0.49503
 Alpha virt. eigenvalues --    0.54800   0.56240   0.59569   0.69253   0.71882
 Alpha virt. eigenvalues --    0.73978   0.76776   0.81685   0.82929   0.84863

 Mulliken charges:
               1
     1  O   -0.544006
     2  H    0.280883
     3  H    0.244074
     4  O   -0.504381
     5  H    0.265102
     6  H    0.258329
 Sum of Mulliken charges =  -0.00000

 Dipole moment (field-independent basis, Debye):
    X=             -1.7505    Y=             -3.5607    Z=              0.0000  Tot=              3.9677
 Quadrupole moment (field-independent basis, Debye-Ang):
   XX=             -9.2338   YY=             -8.3497   ZZ=            -14.7346
   XY=             -3.5985   XZ=              0.0000   YZ=             -0.0000

 Normal termination of Gaussian 16 at Sat Aug 27 00:25:59 2022.
