 Gaussian 16, Revision A.03,
 Gaussian 16:  ES64L-G16RevA.03 25-Dec-2016

 ------------------
 #p CCSD(T)/cc-pVTZ
 ------------------

 ------------
 H2O_H2O_4802
 ------------
 Symbolic Z-matrix:
 Charge =  0 Multiplicity = 1

                         Standard orientation:
 ---------------------------------------------------------------------
 Center     Atomic      Atomic             Coordinates (Angstroms)
 Number     Number       Type             X           Y           Z
 ---------------------------------------------------------------------
      1          8           0        0.088229   -3.007750    0.000000
      2          1           0        0.088092   -2.025149    0.000000
      3          1           0       -0.841220   -3.326546    0.000000
      4          8           0        0.088229    2.863424    0.000000
      5          1           0        0.216349    3.837637    0.000000
      6          1           0       -0.874880    2.668673    0.000000
 ---------------------------------------------------------------------

 SCF Done:  E(RHF) =  -152.107724412     A.U. after   10 cycles
 E2 =    -0.5258579594D+00 EUMP2 =    -0.15263358237165D+03
 CCSD(T)
 CCSD(T)= -0.15266079573D+03

 The electronic state is 1-A'.
 Alpha  occ. eigenvalues --  -20.56157 -20.55291  -1.33458  -1.32593  -0.70870
 Alpha  occ. eigenvalues --   -0.69991  -0.56921  -0.56047  -0.50570  -0.49707
 Alpha virt. eigenvalues --    0.13146   0.14626   0.19185   0.21217   0.53441
 Alpha virt. eigenvalues --    0.54739   0.56610   0.57618   0.67046   0.68358
 Alpha virt. eigenvalues --    0.78318   0.79165   0.79706   0.80938   0.81709

 Mulliken charges:
               1
     1  O   -0.510128
     2  H    0.257630
     3  H    0.252468
     4  O   -0.511008
     5  H    0.257865
     6  H    0.253174
 Sum of Mulliken charges =   0.00000

 Dipole moment (field-independent basis, Debye):
    X=             -3.0279    Y=              2.5269    Z=              0.0000  Tot=              3.9438
 Quadrupole moment (field-independent basis, Debye-Ang):
   XX=            -10.5488   YY=             -8.4363   ZZ=            -14.7123
   XY=              2.7023   XZ=              0.0000   YZ=              0.0000

 Normal termination of Gaussian 16 at Sun Aug 28 05:59:12 2022.
