 Gaussian 16, Revision A.03,
 Gaussian 16:  ES64L-G16RevA.03 25-Dec-2016

 ------------------
 #p CCSD(T)/cc-pVTZ
 ------------------

 ------------
 H2O_H2O_1234
 ------------
 Symbolic Z-matrix:
 Charge =  0 Multiplicity = 1

                         Standard orientation:
 ---------------------------------------------------------------------
 Center     Atomic      Atomic             Coordinates (Angstroms)
 Number     Number       Type             X           Y           Z
 ---------------------------------------------------------------------
      1          8           0        0.066803    1.597365   -0.000000
      2          1           0        0.065332    0.614764   -0.000000
      3          1           0       -0.862211    1.917422   -0.000000
      4          8           0        0.066803   -1.424327    0.000000
      5          1           0        0.611484   -2.242147    0.000000
      6          1           0       -0.883459   -1.674342    0.000000
 ---------------------------------------------------------------------

 SCF Done:  E(RHF) =  -152.112996959     A.U. after   10 cycles
 E2 =    -0.5279459765D+00 EUMP2 =    -0.15264094293518D+03
 CCSD(T)
 CCSD(T)= -0.15266789208D+03

 The electronic state is 1-A'.
 Alpha  occ. eigenvalues --  -20.58365 -20.52625  -1.35744  -1.30142  -0.73131
 Alpha  occ. eigenvalues --   -0.68050  -0.59409  -0.53363  -0.52830  -0.47264
 Alpha virt. eigenvalues --    0.11802   0.17278   0.19368   0.30333   0.48756
 Alpha virt. eigenvalues --    0.54881   0.57465   0.59186   0.69814   0.73179
 Alpha virt. eigenvalues --    0.73291   0.76555   0.81901   0.82500   0.84520

 Mulliken charges:
               1
     1  O   -0.546676
     2  H    0.286213
     3  H    0.239226
     4  O   -0.490758
     5  H    0.257804
     6  H    0.254190
 Sum of Mulliken charges =  -0.00000

 Dipole moment (field-independent basis, Debye):
    X=             -2.2198    Y=             -3.5025    Z=              0.0000  Tot=              4.1466
 Quadrupole moment (field-independent basis, Debye-Ang):
   XX=             -9.5849   YY=             -8.5626   ZZ=            -14.7275
   XY=             -3.2274   XZ=              0.0000   YZ=             -0.0000

 Normal termination of Gaussian 16 at Fri Aug 26 23:17:25 2022.
