 Gaussian 16, Revision A.03,
 Gaussian 16:  ES64L-G16RevA.03 25-Dec-2016

 ------------------
 #p CCSD(T)/cc-pVTZ
 ------------------

 ------------
 H2O_H2O_2604
 ------------
 Symbolic Z-matrix:
 Charge =  0 Multiplicity = 1

                         Standard orientation:
 ---------------------------------------------------------------------
 Center     Atomic      Atomic             Coordinates (Angstroms)
 Number     Number       Type             X           Y           Z
 ---------------------------------------------------------------------
      1          8           0        0.082807   -2.135753    0.000000
      2          1           0        0.082388   -1.153151    0.000000
      3          1           0       -0.846551   -2.454815    0.000000
      4          8           0        0.082807    1.981241    0.000000
      5          1           0        0.336719    2.930470    0.000000
      6          1           0       -0.897464    1.913586    0.000000
 ---------------------------------------------------------------------

 SCF Done:  E(RHF) =  -152.109272004     A.U. after   10 cycles
 E2 =    -0.5261756419D+00 EUMP2 =    -0.15263544764568D+03
 CCSD(T)
 CCSD(T)= -0.15266259070D+03

 The electronic state is 1-A'.
 Alpha  occ. eigenvalues --  -20.56867 -20.54682  -1.34149  -1.31995  -0.71580
 Alpha  occ. eigenvalues --   -0.69368  -0.57661  -0.55455  -0.51266  -0.49118
 Alpha virt. eigenvalues --    0.11832   0.15973   0.19552   0.23661   0.53822
 Alpha virt. eigenvalues --    0.55312   0.56387   0.58259   0.68689   0.70163
 Alpha virt. eigenvalues --    0.77497   0.79087   0.79767   0.80625   0.83034

 Mulliken charges:
               1
     1  O   -0.515525
     2  H    0.263760
     3  H    0.248039
     4  O   -0.507533
     5  H    0.259436
     6  H    0.251823
 Sum of Mulliken charges =  -0.00000

 Dipole moment (field-independent basis, Debye):
    X=             -2.8125    Y=              2.8121    Z=              0.0000  Tot=              3.9773
 Quadrupole moment (field-independent basis, Debye-Ang):
   XX=            -10.2613   YY=             -8.3104   ZZ=            -14.7170
   XY=              2.9264   XZ=              0.0000   YZ=              0.0000

 Normal termination of Gaussian 16 at Fri Aug 26 15:56:28 2022.
