 Gaussian 16, Revision A.03,
 Gaussian 16:  ES64L-G16RevA.03 25-Dec-2016

 ------------------
 #p CCSD(T)/cc-pVTZ
 ------------------

 -----------
 H2O_H2O_524
 -----------
 Symbolic Z-matrix:
 Charge =  0 Multiplicity = 1

                         Standard orientation:
 ---------------------------------------------------------------------
 Center     Atomic      Atomic             Coordinates (Angstroms)
 Number     Number       Type             X           Y           Z
 ---------------------------------------------------------------------
      1          8           0        0.013725   -1.300675    0.000000
      2          1           0        0.008206   -0.318089    0.000000
      3          1           0       -0.913963   -1.624557    0.000000
      4          8           0        0.013725    1.141483    0.000000
      5          1           0        0.996311    1.147003    0.000000
      6          1           0       -0.310157    2.069172    0.000000
 ---------------------------------------------------------------------

 SCF Done:  E(RHF) =  -152.097735461     A.U. after   11 cycles
 E2 =    -0.5318889095D+00 EUMP2 =    -0.15262962437050D+03
 CCSD(T)
 CCSD(T)= -0.15265603648D+03

 The electronic state is 1-A'.
 Alpha  occ. eigenvalues --  -20.59975 -20.49605  -1.38631  -1.27946  -0.76849
 Alpha  occ. eigenvalues --   -0.68836  -0.59597  -0.55112  -0.50073  -0.44947
 Alpha virt. eigenvalues --    0.11579   0.18041   0.19560   0.34053   0.47896
 Alpha virt. eigenvalues --    0.53118   0.58187   0.68032   0.70369   0.72031
 Alpha virt. eigenvalues --    0.74636   0.76496   0.78686   0.83857   0.84343

 Mulliken charges:
               1
     1  O   -0.614876
     2  H    0.294042
     3  H    0.243398
     4  O   -0.412077
     5  H    0.257632
     6  H    0.231881
 Sum of Mulliken charges =  -0.00000

 Dipole moment (field-independent basis, Debye):
    X=             -0.4531    Y=              3.8321    Z=              0.0000  Tot=              3.8588
 Quadrupole moment (field-independent basis, Debye-Ang):
   XX=             -9.5912   YY=             -9.3653   ZZ=            -14.6607
   XY=              3.4460   XZ=              0.0000   YZ=              0.0000

 Normal termination of Gaussian 16 at Fri Aug 26 18:49:47 2022.
