 Gaussian 16, Revision A.03,
 Gaussian 16:  ES64L-G16RevA.03 25-Dec-2016

 ------------------
 #p CCSD(T)/cc-pVTZ
 ------------------

 ------------
 H2O_H2O_2616
 ------------
 Symbolic Z-matrix:
 Charge =  0 Multiplicity = 1

                         Standard orientation:
 ---------------------------------------------------------------------
 Center     Atomic      Atomic             Coordinates (Angstroms)
 Number     Number       Type             X           Y           Z
 ---------------------------------------------------------------------
      1          8           0        0.041158    2.149554    0.000000
      2          1           0        0.039023    1.166955    0.000000
      3          1           0       -0.887640    2.470239    0.000000
      4          8           0        0.041158   -1.969646   -0.000000
      5          1           0        0.891047   -2.462795   -0.000000
      6          1           0       -0.700963   -2.613666   -0.000000
 ---------------------------------------------------------------------

 SCF Done:  E(RHF) =  -152.110717489     A.U. after   10 cycles
 E2 =    -0.5260400689D+00 EUMP2 =    -0.15263675755799D+03
 CCSD(T)
 CCSD(T)= -0.15266387205D+03

 The electronic state is 1-A'.
 Alpha  occ. eigenvalues --  -20.56866 -20.54199  -1.34131  -1.31529  -0.71527
 Alpha  occ. eigenvalues --   -0.68926  -0.57716  -0.55018  -0.51267  -0.48672
 Alpha virt. eigenvalues --    0.12387   0.16337   0.19348   0.23776   0.52856
 Alpha virt. eigenvalues --    0.55587   0.56357   0.58898   0.69067   0.70151
 Alpha virt. eigenvalues --    0.77519   0.78860   0.80161   0.80317   0.83581

 Mulliken charges:
               1
     1  O   -0.522736
     2  H    0.266084
     3  H    0.251396
     4  O   -0.512384
     5  H    0.260431
     6  H    0.257209
 Sum of Mulliken charges =  -0.00000

 Dipole moment (field-independent basis, Debye):
    X=             -1.4001    Y=             -3.2835    Z=             -0.0000  Tot=              3.5696
 Quadrupole moment (field-independent basis, Debye-Ang):
   XX=             -9.1495   YY=             -7.4492   ZZ=            -14.7225
   XY=             -4.6593   XZ=             -0.0000   YZ=              0.0000

 CCSD(T)=-152.6638721\RMSD=6.681e-09\PG=CS [SG(H4O2)]\\@
 Normal termination of Gaussian 16 at Fri Aug 26 16:03:52 2022.
