 Gaussian 16, Revision A.03,
 Gaussian 16:  ES64L-G16RevA.03 25-Dec-2016

 ------------------
 #p CCSD(T)/cc-pVTZ
 ------------------

 ------------
 H2O_H2O_1081
 ------------
 Symbolic Z-matrix:
 Charge =  0 Multiplicity = 1

                         Standard orientation:
 ---------------------------------------------------------------------
 Center     Atomic      Atomic             Coordinates (Angstroms)
 Number     Number       Type             X           Y           Z
 ---------------------------------------------------------------------
      1          8           0        0.076786    1.532163   -0.000000
      2          1           0        0.075839    0.549562   -0.000000
      3          1           0       -0.852399    1.851725   -0.000000
      4          8           0        0.076786   -1.369007    0.000000
      5          1           0        0.451938   -2.277175    0.000000
      6          1           0       -0.903960   -1.429355    0.000000
 ---------------------------------------------------------------------

 SCF Done:  E(RHF) =  -152.111185299     A.U. after   10 cycles
 E2 =    -0.5286667678D+00 EUMP2 =    -0.15263985206671D+03
 CCSD(T)
 CCSD(T)= -0.15266676875D+03

 The electronic state is 1-A'.
 Alpha  occ. eigenvalues --  -20.58618 -20.52601  -1.36115  -1.30166  -0.73690
 Alpha  occ. eigenvalues --   -0.68148  -0.59550  -0.53311  -0.53138  -0.47261
 Alpha virt. eigenvalues --    0.11629   0.16939   0.19779   0.30902   0.48460
 Alpha virt. eigenvalues --    0.54521   0.58667   0.59154   0.69530   0.72714
 Alpha virt. eigenvalues --    0.74492   0.76764   0.81621   0.82164   0.84025

 Mulliken charges:
               1
     1  O   -0.548293
     2  H    0.288734
     3  H    0.234940
     4  O   -0.467488
     5  H    0.244657
     6  H    0.247450
 Sum of Mulliken charges =  -0.00000

 Dipole moment (field-independent basis, Debye):
    X=             -2.5356    Y=             -3.3813    Z=             -0.0000  Tot=              4.2264
 Quadrupole moment (field-independent basis, Debye-Ang):
   XX=             -9.9888   YY=             -8.7703   ZZ=            -14.7145
   XY=             -2.9018   XZ=              0.0000   YZ=             -0.0000

 Normal termination of Gaussian 16 at Fri Aug 26 22:20:39 2022.
