 Gaussian 16, Revision A.03,
 Gaussian 16:  ES64L-G16RevA.03 25-Dec-2016

 ------------------
 #p CCSD(T)/cc-pVTZ
 ------------------

 ------------
 H2O_H2O_1432
 ------------
 Symbolic Z-matrix:
 Charge =  0 Multiplicity = 1

                         Standard orientation:
 ---------------------------------------------------------------------
 Center     Atomic      Atomic             Coordinates (Angstroms)
 Number     Number       Type             X           Y           Z
 ---------------------------------------------------------------------
      1          8           0        0.073562    1.673802    0.000000
      2          1           0        0.072526    0.691201    0.000000
      3          1           0       -0.855595    1.993448    0.000000
      4          8           0        0.073562   -1.506906    0.000000
      5          1           0        0.507227   -2.388632    0.000000
      6          1           0       -0.901149   -1.631180    0.000000
 ---------------------------------------------------------------------

 SCF Done:  E(RHF) =  -152.112294228     A.U. after   10 cycles
 E2 =    -0.5274562924D+00 EUMP2 =    -0.15263975052083D+03
 CCSD(T)
 CCSD(T)= -0.15266676051D+03

 The electronic state is 1-A'.
 Alpha  occ. eigenvalues --  -20.58026 -20.53279  -1.35352  -1.30708  -0.72808
 Alpha  occ. eigenvalues --   -0.68274  -0.59041  -0.54032  -0.52450  -0.47835
 Alpha virt. eigenvalues --    0.11804   0.16964   0.19524   0.28917   0.49364
 Alpha virt. eigenvalues --    0.55077   0.57250   0.58673   0.69667   0.73935
 Alpha virt. eigenvalues --    0.73967   0.76737   0.81346   0.82673   0.84183

 Mulliken charges:
               1
     1  O   -0.535446
     2  H    0.278349
     3  H    0.240747
     4  O   -0.492898
     5  H    0.256355
     6  H    0.252893
 Sum of Mulliken charges =  -0.00000

 Dipole moment (field-independent basis, Debye):
    X=             -2.4575    Y=             -3.2901    Z=              0.0000  Tot=              4.1066
 Quadrupole moment (field-independent basis, Debye-Ang):
   XX=             -9.8413   YY=             -8.4818   ZZ=            -14.7265
   XY=             -3.1101   XZ=              0.0000   YZ=              0.0000

 Normal termination of Gaussian 16 at Sat Aug 27 00:33:00 2022.
