 Gaussian 16, Revision A.03,
 Gaussian 16:  ES64L-G16RevA.03 25-Dec-2016

 ------------------
 #p CCSD(T)/cc-pVTZ
 ------------------

 ------------
 H2O_H2O_1792
 ------------
 Symbolic Z-matrix:
 Charge =  0 Multiplicity = 1

                         Standard orientation:
 ---------------------------------------------------------------------
 Center     Atomic      Atomic             Coordinates (Angstroms)
 Number     Number       Type             X           Y           Z
 ---------------------------------------------------------------------
      1          8           0        0.037505    1.819944   -0.000000
      2          1           0        0.034782    0.837346   -0.000000
      3          1           0       -0.891102    2.141185   -0.000000
      4          8           0        0.037505   -1.641029    0.000000
      5          1           0        0.917566   -2.078062    0.000000
      6          1           0       -0.661320   -2.331790    0.000000
 ---------------------------------------------------------------------

 SCF Done:  E(RHF) =  -152.113124286     A.U. after   10 cycles
 E2 =    -0.5266296827D+00 EUMP2 =    -0.15263975396844D+03
 CCSD(T)
 CCSD(T)= -0.15266679284D+03

 The electronic state is 1-A'.
 Alpha  occ. eigenvalues --  -20.57573 -20.53407  -1.34830  -1.30794  -0.72202
 Alpha  occ. eigenvalues --   -0.68281  -0.58592  -0.54222  -0.51970  -0.47951
 Alpha virt. eigenvalues --    0.12194   0.17302   0.19060   0.27364   0.51214
 Alpha virt. eigenvalues --    0.54576   0.56282   0.59237   0.69063   0.72460
 Alpha virt. eigenvalues --    0.75490   0.77206   0.81027   0.83294   0.84589

 Mulliken charges:
               1
     1  O   -0.534993
     2  H    0.271685
     3  H    0.249392
     4  O   -0.508090
     5  H    0.263298
     6  H    0.258707
 Sum of Mulliken charges =  -0.00000

 Dipole moment (field-independent basis, Debye):
    X=             -1.2656    Y=             -3.4178    Z=              0.0000  Tot=              3.6446
 Quadrupole moment (field-independent basis, Debye-Ang):
   XX=             -9.1613   YY=             -8.0503   ZZ=            -14.7324
   XY=             -4.1473   XZ=              0.0000   YZ=             -0.0000

 Normal termination of Gaussian 16 at Sun Aug 28 01:37:19 2022.
