 Gaussian 16, Revision A.03,
 Gaussian 16:  ES64L-G16RevA.03 25-Dec-2016

 ------------------
 #p CCSD(T)/cc-pVTZ
 ------------------

 -----------
 H2O_H2O_455
 -----------
 Symbolic Z-matrix:
 Charge =  0 Multiplicity = 1

                         Standard orientation:
 ---------------------------------------------------------------------
 Center     Atomic      Atomic             Coordinates (Angstroms)
 Number     Number       Type             X           Y           Z
 ---------------------------------------------------------------------
      1          8           0        0.079887   -1.280603    0.000000
      2          1           0        0.078962   -0.298002    0.000000
      3          1           0       -0.849305   -1.600145    0.000000
      4          8           0        0.079887    1.121613    0.000000
      5          1           0        0.394858    2.052365    0.000000
      6          1           0       -0.902707    1.117708    0.000000
 ---------------------------------------------------------------------

 SCF Done:  E(RHF) =  -152.092125767     A.U. after   11 cycles
 E2 =    -0.5331567649D+00 EUMP2 =    -0.15262528253200D+03
 CCSD(T)
 CCSD(T)= -0.15265164150D+03

 The electronic state is 1-A'.
 Alpha  occ. eigenvalues --  -20.60286 -20.49736  -1.39156  -1.28098  -0.77359
 Alpha  occ. eigenvalues --   -0.69727  -0.58687  -0.55479  -0.50395  -0.45029
 Alpha virt. eigenvalues --    0.11095   0.16573   0.20625   0.32806   0.48649
 Alpha virt. eigenvalues --    0.52710   0.59354   0.64246   0.71917   0.72237
 Alpha virt. eigenvalues --    0.74225   0.78313   0.78889   0.83718   0.84448

 Mulliken charges:
               1
     1  O   -0.589043
     2  H    0.294211
     3  H    0.214798
     4  O   -0.388842
     5  H    0.232859
     6  H    0.236018
 Sum of Mulliken charges =   0.00000

 Dipole moment (field-independent basis, Debye):
    X=             -2.5428    Y=              3.8769    Z=              0.0000  Tot=              4.6363
 Quadrupole moment (field-independent basis, Debye-Ang):
   XX=            -10.1155   YY=             -9.4047   ZZ=            -14.6400
   XY=              2.5994   XZ=              0.0000   YZ=              0.0000

 Normal termination of Gaussian 16 at Fri Aug 26 18:22:56 2022.
