 Gaussian 16, Revision A.03,
 Gaussian 16:  ES64L-G16RevA.03 25-Dec-2016

 ------------------
 #p CCSD(T)/cc-pVTZ
 ------------------

 ------------
 H2O_H2O_1828
 ------------
 Symbolic Z-matrix:
 Charge =  0 Multiplicity = 1

                         Standard orientation:
 ---------------------------------------------------------------------
 Center     Atomic      Atomic             Coordinates (Angstroms)
 Number     Number       Type             X           Y           Z
 ---------------------------------------------------------------------
      1          8           0        0.085607   -1.823946    0.000000
      2          1           0        0.085250   -0.841345    0.000000
      3          1           0       -0.843770   -2.142950    0.000000
      4          8           0        0.085607    1.674364    0.000000
      5          1           0        0.276954    2.638154    0.000000
      6          1           0       -0.888148    1.542802    0.000000
 ---------------------------------------------------------------------

 SCF Done:  E(RHF) =  -152.110212507     A.U. after   10 cycles
 E2 =    -0.5268594222D+00 EUMP2 =    -0.15263707192955D+03
 CCSD(T)
 CCSD(T)= -0.15266416553D+03

 The electronic state is 1-A'.
 Alpha  occ. eigenvalues --  -20.57494 -20.54308  -1.34789  -1.31646  -0.72301
 Alpha  occ. eigenvalues --   -0.68992  -0.58353  -0.55060  -0.51889  -0.48766
 Alpha virt. eigenvalues --    0.11663   0.16392   0.19912   0.26385   0.51125
 Alpha virt. eigenvalues --    0.55453   0.57001   0.57747   0.68651   0.74124
 Alpha virt. eigenvalues --    0.75488   0.78206   0.80368   0.82923   0.83368

 Mulliken charges:
               1
     1  O   -0.520729
     2  H    0.268739
     3  H    0.243356
     4  O   -0.497819
     5  H    0.257395
     6  H    0.249058
 Sum of Mulliken charges =   0.00000

 Dipole moment (field-independent basis, Debye):
    X=             -2.8802    Y=              2.8343    Z=              0.0000  Tot=              4.0409
 Quadrupole moment (field-independent basis, Debye-Ang):
   XX=            -10.4346   YY=             -8.6599   ZZ=            -14.7194
   XY=              2.6512   XZ=              0.0000   YZ=              0.0000

 Normal termination of Gaussian 16 at Sun Aug 28 01:57:33 2022.
