 Gaussian 16, Revision A.03,
 Gaussian 16:  ES64L-G16RevA.03 25-Dec-2016

 ------------------
 #p CCSD(T)/cc-pVTZ
 ------------------

 ------------
 H2O_H2O_2434
 ------------
 Symbolic Z-matrix:
 Charge =  0 Multiplicity = 1

                         Standard orientation:
 ---------------------------------------------------------------------
 Center     Atomic      Atomic             Coordinates (Angstroms)
 Number     Number       Type             X           Y           Z
 ---------------------------------------------------------------------
      1          8           0        0.066772    2.076041   -0.000000
      2          1           0        0.065655    1.093440   -0.000000
      3          1           0       -0.862358    2.395764   -0.000000
      4          8           0        0.066772   -1.902955    0.000000
      5          1           0        0.611748   -2.720578    0.000000
      6          1           0       -0.883400   -2.153312    0.000000
 ---------------------------------------------------------------------

 SCF Done:  E(RHF) =  -152.110514643     A.U. after   10 cycles
 E2 =    -0.5261845481D+00 EUMP2 =    -0.15263669919084D+03
 CCSD(T)
 CCSD(T)= -0.15266381059D+03

 The electronic state is 1-A'.
 Alpha  occ. eigenvalues --  -20.56993 -20.54235  -1.34259  -1.31563  -0.71667
 Alpha  occ. eigenvalues --   -0.68948  -0.57833  -0.55036  -0.51388  -0.48699
 Alpha virt. eigenvalues --    0.12149   0.16350   0.19384   0.24239   0.52874
 Alpha virt. eigenvalues --    0.55757   0.56005   0.58777   0.68881   0.70905
 Alpha virt. eigenvalues --    0.77267   0.78795   0.80167   0.81370   0.83480

 Mulliken charges:
               1
     1  O   -0.520839
     2  H    0.266299
     3  H    0.248395
     4  O   -0.508748
     5  H    0.260085
     6  H    0.254808
 Sum of Mulliken charges =  -0.00000

 Dipole moment (field-independent basis, Debye):
    X=             -2.2665    Y=             -3.1799    Z=              0.0000  Tot=              3.9049
 Quadrupole moment (field-independent basis, Debye-Ang):
   XX=             -9.5704   YY=             -7.7642   ZZ=            -14.7216
   XY=             -3.6810   XZ=              0.0000   YZ=             -0.0000

 Normal termination of Gaussian 16 at Sun Aug 28 07:16:03 2022.
