 Gaussian 16, Revision A.03,
 Gaussian 16:  ES64L-G16RevA.03 25-Dec-2016

 ------------------
 #p CCSD(T)/cc-pVTZ
 ------------------

 ------------
 H2O_H2O_2065
 ------------
 Symbolic Z-matrix:
 Charge =  0 Multiplicity = 1

                         Standard orientation:
 ---------------------------------------------------------------------
 Center     Atomic      Atomic             Coordinates (Angstroms)
 Number     Number       Type             X           Y           Z
 ---------------------------------------------------------------------
      1          8           0        0.044896    1.930419    0.000000
      2          1           0        0.042678    0.947820    0.000000
      3          1           0       -0.883875    2.251183    0.000000
      4          8           0        0.044896   -1.750057    0.000000
      5          1           0        0.860665   -2.297803    0.000000
      6          1           0       -0.737808   -2.344094    0.000000
 ---------------------------------------------------------------------

 SCF Done:  E(RHF) =  -152.112184259     A.U. after   10 cycles
 E2 =    -0.5263585471D+00 EUMP2 =    -0.15263854280582D+03
 CCSD(T)
 CCSD(T)= -0.15266561156D+03

 The electronic state is 1-A'.
 Alpha  occ. eigenvalues --  -20.57299 -20.53728  -1.34550  -1.31084  -0.71932
 Alpha  occ. eigenvalues --   -0.68509  -0.58232  -0.54549  -0.51690  -0.48236
 Alpha virt. eigenvalues --    0.12241   0.16939   0.19178   0.25960   0.51779
 Alpha virt. eigenvalues --    0.55095   0.56431   0.58972   0.69068   0.72257
 Alpha virt. eigenvalues --    0.76438   0.77686   0.80670   0.83474   0.84165

 Mulliken charges:
               1
     1  O   -0.528970
     2  H    0.269068
     3  H    0.249323
     4  O   -0.508552
     5  H    0.261828
     6  H    0.257303
 Sum of Mulliken charges =  -0.00000

 Dipole moment (field-independent basis, Debye):
    X=             -1.5192    Y=             -3.3816    Z=             -0.0000  Tot=              3.7072
 Quadrupole moment (field-independent basis, Debye-Ang):
   XX=             -9.1599   YY=             -7.8196   ZZ=            -14.7283
   XY=             -4.1674   XZ=             -0.0000   YZ=             -0.0000

 Normal termination of Gaussian 16 at Sun Aug 28 04:04:11 2022.
