 Gaussian 16, Revision A.03,
 Gaussian 16:  ES64L-G16RevA.03 25-Dec-2016

 ------------------
 #p CCSD(T)/cc-pVTZ
 ------------------

 -----------
 H2O_H2O_839
 -----------
 Symbolic Z-matrix:
 Charge =  0 Multiplicity = 1

                         Standard orientation:
 ---------------------------------------------------------------------
 Center     Atomic      Atomic             Coordinates (Angstroms)
 Number     Number       Type             X           Y           Z
 ---------------------------------------------------------------------
      1          8           0        0.048686    1.441752   -0.000000
      2          1           0        0.045899    0.459155   -0.000000
      3          1           0       -0.879900    1.763053   -0.000000
      4          8           0        0.048686   -1.261475    0.000000
      5          1           0        0.826537   -1.861852    0.000000
      6          1           0       -0.771506   -1.802575    0.000000
 ---------------------------------------------------------------------

 SCF Done:  E(RHF) =  -152.111470098     A.U. after   10 cycles
 E2 =    -0.5294398102D+00 EUMP2 =    -0.15264090990796D+03
 CCSD(T)
 CCSD(T)= -0.15266764139D+03

 The electronic state is 1-A'.
 Alpha  occ. eigenvalues --  -20.59234 -20.50824  -1.36921  -1.28700  -0.73987
 Alpha  occ. eigenvalues --   -0.68676  -0.59635  -0.53902  -0.51490  -0.45773
 Alpha virt. eigenvalues --    0.11663   0.17933   0.19204   0.32726   0.48011
 Alpha virt. eigenvalues --    0.54394   0.58285   0.61480   0.69666   0.71787
 Alpha virt. eigenvalues --    0.72506   0.77783   0.82102   0.82861   0.84636

 Mulliken charges:
               1
     1  O   -0.581413
     2  H    0.306346
     3  H    0.236051
     4  O   -0.480975
     5  H    0.264290
     6  H    0.255702
 Sum of Mulliken charges =  -0.00000

 Dipole moment (field-independent basis, Debye):
    X=             -1.5924    Y=             -3.9318    Z=              0.0000  Tot=              4.2420
 Quadrupole moment (field-independent basis, Debye-Ang):
   XX=             -9.1776   YY=             -8.9615   ZZ=            -14.7152
   XY=             -3.2796   XZ=              0.0000   YZ=             -0.0000

 Normal termination of Gaussian 16 at Fri Aug 26 20:49:47 2022.
