 Gaussian 16, Revision A.03,
 Gaussian 16:  ES64L-G16RevA.03 25-Dec-2016

 ------------------
 #p CCSD(T)/cc-pVTZ
 ------------------

 ------------
 H2O_H2O_3914
 ------------
 Symbolic Z-matrix:
 Charge =  0 Multiplicity = 1

                         Standard orientation:
 ---------------------------------------------------------------------
 Center     Atomic      Atomic             Coordinates (Angstroms)
 Number     Number       Type             X           Y           Z
 ---------------------------------------------------------------------
      1          8           0        0.048564    2.668363    0.000000
      2          1           0        0.047103    1.685762    0.000000
      3          1           0       -0.880454    2.988411    0.000000
      4          8           0        0.048564   -2.487954    0.000000
      5          1           0        0.827224   -3.087283    0.000000
      6          1           0       -0.770898   -3.030161    0.000000
 ---------------------------------------------------------------------

 SCF Done:  E(RHF) =  -152.108796277     A.U. after   10 cycles
 E2 =    -0.5258265422D+00 EUMP2 =    -0.15263462281920D+03
 CCSD(T)
 CCSD(T)= -0.15266180578D+03

 The electronic state is 1-A'.
 Alpha  occ. eigenvalues --  -20.56315 -20.54789  -1.33612  -1.32100  -0.71015
 Alpha  occ. eigenvalues --   -0.69499  -0.57119  -0.55577  -0.50733  -0.49227
 Alpha virt. eigenvalues --    0.13030   0.15249   0.19628   0.21379   0.53537
 Alpha virt. eigenvalues --    0.54928   0.56568   0.57851   0.66690   0.69152
 Alpha virt. eigenvalues --    0.78162   0.79431   0.79578   0.79620   0.82911

 Mulliken charges:
               1
     1  O   -0.515248
     2  H    0.261870
     3  H    0.252811
     4  O   -0.515531
     5  H    0.259193
     6  H    0.256904
 Sum of Mulliken charges =   0.00000

 Dipole moment (field-independent basis, Debye):
    X=             -1.6625    Y=             -3.1885    Z=              0.0000  Tot=              3.5959
 Quadrupole moment (field-independent basis, Debye-Ang):
   XX=             -9.1822   YY=             -6.5968   ZZ=            -14.7162
   XY=             -5.2085   XZ=              0.0000   YZ=              0.0000

 Normal termination of Gaussian 16 at Sat Aug 27 00:26:30 2022.
