 Gaussian 16, Revision A.03,
 Gaussian 16:  ES64L-G16RevA.03 25-Dec-2016

 ------------------
 #p CCSD(T)/cc-pVTZ
 ------------------

 ------------
 H2O_H2O_1892
 ------------
 Symbolic Z-matrix:
 Charge =  0 Multiplicity = 1

                         Standard orientation:
 ---------------------------------------------------------------------
 Center     Atomic      Atomic             Coordinates (Angstroms)
 Number     Number       Type             X           Y           Z
 ---------------------------------------------------------------------
      1          8           0        0.037499    1.859834    0.000000
      2          1           0        0.034838    0.877236    0.000000
      3          1           0       -0.891128    2.181017    0.000000
      4          8           0        0.037499   -1.680914   -0.000000
      5          1           0        0.917588   -2.117893   -0.000000
      6          1           0       -0.661282   -2.371719   -0.000000
 ---------------------------------------------------------------------

 SCF Done:  E(RHF) =  -152.112797889     A.U. after   10 cycles
 E2 =    -0.5265104671D+00 EUMP2 =    -0.15263930835596D+03
 CCSD(T)
 CCSD(T)= -0.15266635874D+03

 The electronic state is 1-A'.
 Alpha  occ. eigenvalues --  -20.57463 -20.53541  -1.34717  -1.30915  -0.72094
 Alpha  occ. eigenvalues --   -0.68373  -0.58449  -0.54359  -0.51858  -0.48070
 Alpha virt. eigenvalues --    0.12219   0.17175   0.19101   0.26835   0.51519
 Alpha virt. eigenvalues --    0.54714   0.56353   0.59078   0.69086   0.72471
 Alpha virt. eigenvalues --    0.75863   0.77395   0.80881   0.83368   0.84501

 Mulliken charges:
               1
     1  O   -0.532834
     2  H    0.270408
     3  H    0.249796
     4  O   -0.508427
     5  H    0.262679
     6  H    0.258378
 Sum of Mulliken charges =  -0.00000

 Dipole moment (field-independent basis, Debye):
    X=             -1.2672    Y=             -3.3925    Z=             -0.0000  Tot=              3.6215
 Quadrupole moment (field-independent basis, Debye-Ang):
   XX=             -9.1611   YY=             -7.9750   ZZ=            -14.7310
   XY=             -4.2251   XZ=             -0.0000   YZ=              0.0000

 Normal termination of Gaussian 16 at Sun Aug 28 02:28:08 2022.
