 Gaussian 16, Revision A.03,
 Gaussian 16:  ES64L-G16RevA.03 25-Dec-2016

 ------------------
 #p CCSD(T)/cc-pVTZ
 ------------------

 -----------
 H2O_H2O_849
 -----------
 Symbolic Z-matrix:
 Charge =  0 Multiplicity = 1

                         Standard orientation:
 ---------------------------------------------------------------------
 Center     Atomic      Atomic             Coordinates (Angstroms)
 Number     Number       Type             X           Y           Z
 ---------------------------------------------------------------------
      1          8           0        0.013682   -1.430315    0.000000
      2          1           0        0.008693   -0.447727    0.000000
      3          1           0       -0.914181   -1.753698    0.000000
      4          8           0        0.013682    1.271110    0.000000
      5          1           0        0.996272    1.276099    0.000000
      6          1           0       -0.309700    2.198973    0.000000
 ---------------------------------------------------------------------

 SCF Done:  E(RHF) =  -152.109525983     A.U. after   10 cycles
 E2 =    -0.5295077330D+00 EUMP2 =    -0.15263903371646D+03
 CCSD(T)
 CCSD(T)= -0.15266580369D+03

 The electronic state is 1-A'.
 Alpha  occ. eigenvalues --  -20.59055 -20.51517  -1.36856  -1.29326  -0.74705
 Alpha  occ. eigenvalues --   -0.67878  -0.60089  -0.53760  -0.52125  -0.46421
 Alpha virt. eigenvalues --    0.11909   0.18188   0.19108   0.32883   0.48542
 Alpha virt. eigenvalues --    0.54076   0.56564   0.65052   0.68285   0.72219
 Alpha virt. eigenvalues --    0.74594   0.76246   0.80508   0.83069   0.84120

 Mulliken charges:
               1
     1  O   -0.582309
     2  H    0.291729
     3  H    0.249599
     4  O   -0.453330
     5  H    0.258421
     6  H    0.235890
 Sum of Mulliken charges =  -0.00000

 Dipole moment (field-independent basis, Debye):
    X=             -0.4650    Y=              3.4865    Z=              0.0000  Tot=              3.5174
 Quadrupole moment (field-independent basis, Debye-Ang):
   XX=             -9.6259   YY=             -9.0178   ZZ=            -14.7025
   XY=              3.8198   XZ=              0.0000   YZ=              0.0000

 Normal termination of Gaussian 16 at Fri Aug 26 20:53:24 2022.
