 Gaussian 16, Revision A.03,
 Gaussian 16:  ES64L-G16RevA.03 25-Dec-2016

 ------------------
 #p CCSD(T)/cc-pVTZ
 ------------------

 ------------
 H2O_H2O_4594
 ------------
 Symbolic Z-matrix:
 Charge =  0 Multiplicity = 1

                         Standard orientation:
 ---------------------------------------------------------------------
 Center     Atomic      Atomic             Coordinates (Angstroms)
 Number     Number       Type             X           Y           Z
 ---------------------------------------------------------------------
      1          8           0        0.030146    2.935015    0.000000
      2          1           0        0.028275    1.952415    0.000000
      3          1           0       -0.898739    3.255451    0.000000
      4          8           0        0.030146   -2.759378    0.000000
      5          1           0        0.959998   -3.076996    0.000000
      6          1           0       -0.571866   -3.535966    0.000000
 ---------------------------------------------------------------------

 SCF Done:  E(RHF) =  -152.108435269     A.U. after   10 cycles
 E2 =    -0.5257996058D+00 EUMP2 =    -0.15263423487427D+03
 CCSD(T)
 CCSD(T)= -0.15266143253D+03

 The electronic state is 1-A'.
 Alpha  occ. eigenvalues --  -20.56165 -20.54989  -1.33467  -1.32296  -0.70871
 Alpha  occ. eigenvalues --   -0.69700  -0.56961  -0.55769  -0.50586  -0.49420
 Alpha virt. eigenvalues --    0.13387   0.14895   0.19661   0.21050   0.53621
 Alpha virt. eigenvalues --    0.54859   0.56685   0.57790   0.66883   0.68674
 Alpha virt. eigenvalues --    0.78299   0.79437   0.79606   0.80398   0.82547

 Mulliken charges:
               1
     1  O   -0.514201
     2  H    0.260002
     3  H    0.254102
     4  O   -0.514802
     5  H    0.257635
     6  H    0.257264
 Sum of Mulliken charges =  -0.00000

 Dipole moment (field-independent basis, Debye):
    X=             -1.0347    Y=             -3.0801    Z=             -0.0000  Tot=              3.2493
 Quadrupole moment (field-independent basis, Debye-Ang):
   XX=             -9.2305   YY=             -6.4305   ZZ=            -14.7149
   XY=             -6.7515   XZ=             -0.0000   YZ=             -0.0000

 Normal termination of Gaussian 16 at Sun Aug 28 04:12:23 2022.
