 Gaussian 16, Revision A.03,
 Gaussian 16:  ES64L-G16RevA.03 25-Dec-2016

 ------------------
 #p CCSD(T)/cc-pVTZ
 ------------------

 ------------
 H2O_H2O_4716
 ------------
 Symbolic Z-matrix:
 Charge =  0 Multiplicity = 1

                         Standard orientation:
 ---------------------------------------------------------------------
 Center     Atomic      Atomic             Coordinates (Angstroms)
 Number     Number       Type             X           Y           Z
 ---------------------------------------------------------------------
      1          8           0        0.041102    2.987221   -0.000000
      2          1           0        0.039584    2.004621   -0.000000
      3          1           0       -0.887898    3.307323   -0.000000
      4          8           0        0.041102   -2.807261    0.000000
      5          1           0        0.891300   -3.299875    0.000000
      6          1           0       -0.700615   -3.451747    0.000000
 ---------------------------------------------------------------------

 SCF Done:  E(RHF) =  -152.108357393     A.U. after   10 cycles
 E2 =    -0.5258036660D+00 EUMP2 =    -0.15263416105924D+03
 CCSD(T)
 CCSD(T)= -0.15266136065D+03

 The electronic state is 1-A'.
 Alpha  occ. eigenvalues --  -20.56147 -20.54986  -1.33449  -1.32293  -0.70853
 Alpha  occ. eigenvalues --   -0.69696  -0.56940  -0.55764  -0.50568  -0.49416
 Alpha virt. eigenvalues --    0.13461   0.14853   0.19724   0.20969   0.53693
 Alpha virt. eigenvalues --    0.54829   0.56696   0.57788   0.66948   0.68628
 Alpha virt. eigenvalues --    0.78316   0.79442   0.79716   0.80336   0.82485

 Mulliken charges:
               1
     1  O   -0.513731
     2  H    0.259999
     3  H    0.253661
     4  O   -0.514388
     5  H    0.257827
     6  H    0.256631
 Sum of Mulliken charges =   0.00000

 Dipole moment (field-independent basis, Debye):
    X=             -1.4105    Y=             -3.1534    Z=              0.0000  Tot=              3.4545
 Quadrupole moment (field-independent basis, Debye-Ang):
   XX=             -9.1496   YY=             -6.1008   ZZ=            -14.7146
   XY=             -6.1615   XZ=              0.0000   YZ=              0.0000

 Normal termination of Gaussian 16 at Sun Aug 28 05:20:22 2022.
