 Gaussian 16, Revision A.03,
 Gaussian 16:  ES64L-G16RevA.03 25-Dec-2016

 ------------------
 #p CCSD(T)/cc-pVTZ
 ------------------

 ------------
 H2O_H2O_3377
 ------------
 Symbolic Z-matrix:
 Charge =  0 Multiplicity = 1

                         Standard orientation:
 ---------------------------------------------------------------------
 Center     Atomic      Atomic             Coordinates (Angstroms)
 Number     Number       Type             X           Y           Z
 ---------------------------------------------------------------------
      1          8           0        0.088231   -2.439347    0.000000
      2          1           0        0.088062   -1.456746    0.000000
      3          1           0       -0.841207   -2.758174    0.000000
      4          8           0        0.088231    2.295027    0.000000
      5          1           0        0.216319    3.269243    0.000000
      6          1           0       -0.874871    2.100242    0.000000
 ---------------------------------------------------------------------

 SCF Done:  E(RHF) =  -152.108174366     A.U. after   10 cycles
 E2 =    -0.5259667697D+00 EUMP2 =    -0.15263414113538D+03
 CCSD(T)
 CCSD(T)= -0.15266133003D+03

 The electronic state is 1-A'.
 Alpha  occ. eigenvalues --  -20.56497 -20.55076  -1.33793  -1.32381  -0.71216
 Alpha  occ. eigenvalues --   -0.69767  -0.57268  -0.55837  -0.50905  -0.49496
 Alpha virt. eigenvalues --    0.11929   0.15395   0.19197   0.22530   0.53597
 Alpha virt. eigenvalues --    0.54921   0.56443   0.58076   0.67149   0.69014
 Alpha virt. eigenvalues --    0.78001   0.78590   0.79369   0.81165   0.82583

 Mulliken charges:
               1
     1  O   -0.511128
     2  H    0.259842
     3  H    0.250350
     4  O   -0.510656
     5  H    0.259727
     6  H    0.251865
 Sum of Mulliken charges =  -0.00000

 Dipole moment (field-independent basis, Debye):
    X=             -3.0119    Y=              2.5697    Z=              0.0000  Tot=              3.9592
 Quadrupole moment (field-independent basis, Debye-Ang):
   XX=            -10.5573   YY=             -8.6194   ZZ=            -14.7135
   XY=              2.6026   XZ=              0.0000   YZ=              0.0000

 Normal termination of Gaussian 16 at Fri Aug 26 21:21:52 2022.
