 Gaussian 16, Revision A.03,
 Gaussian 16:  ES64L-G16RevA.03 25-Dec-2016

 ------------------
 #p CCSD(T)/cc-pVTZ
 ------------------

 ------------
 H2O_H2O_2380
 ------------
 Symbolic Z-matrix:
 Charge =  0 Multiplicity = 1

                         Standard orientation:
 ---------------------------------------------------------------------
 Center     Atomic      Atomic             Coordinates (Angstroms)
 Number     Number       Type             X           Y           Z
 ---------------------------------------------------------------------
      1          8           0        0.079858    2.048471    0.000000
      2          1           0        0.079293    1.065870    0.000000
      3          1           0       -0.849452    2.367671    0.000000
      4          8           0        0.079858   -1.889422   -0.000000
      5          1           0        0.395171   -2.820058   -0.000000
      6          1           0       -0.902738   -1.885878   -0.000000
 ---------------------------------------------------------------------

 SCF Done:  E(RHF) =  -152.109853207     A.U. after   10 cycles
 E2 =    -0.5262792627D+00 EUMP2 =    -0.15263613246992D+03
 CCSD(T)
 CCSD(T)= -0.15266325545D+03

 The electronic state is 1-A'.
 Alpha  occ. eigenvalues --  -20.57020 -20.54482  -1.34296  -1.31802  -0.71728
 Alpha  occ. eigenvalues --   -0.69174  -0.57835  -0.55260  -0.51415  -0.48929
 Alpha virt. eigenvalues --    0.11874   0.16186   0.19560   0.24311   0.53173
 Alpha virt. eigenvalues --    0.55646   0.56278   0.58191   0.68722   0.71299
 Alpha virt. eigenvalues --    0.77161   0.79197   0.79982   0.81219   0.83279

 Mulliken charges:
               1
     1  O   -0.517808
     2  H    0.265195
     3  H    0.247201
     4  O   -0.506238
     5  H    0.259419
     6  H    0.252232
 Sum of Mulliken charges =  -0.00000

 Dipole moment (field-independent basis, Debye):
    X=             -2.7075    Y=             -2.9230    Z=             -0.0000  Tot=              3.9843
 Quadrupole moment (field-independent basis, Debye-Ang):
   XX=            -10.1133   YY=             -8.2210   ZZ=            -14.7190
   XY=             -3.0631   XZ=             -0.0000   YZ=              0.0000

 Normal termination of Gaussian 16 at Sun Aug 28 06:47:34 2022.
