 Gaussian 16, Revision A.03,
 Gaussian 16:  ES64L-G16RevA.03 25-Dec-2016

 ------------------
 #p CCSD(T)/cc-pVTZ
 ------------------

 ------------
 H2O_H2O_1706
 ------------
 Symbolic Z-matrix:
 Charge =  0 Multiplicity = 1

                         Standard orientation:
 ---------------------------------------------------------------------
 Center     Atomic      Atomic             Coordinates (Angstroms)
 Number     Number       Type             X           Y           Z
 ---------------------------------------------------------------------
      1          8           0        0.076775    1.781472    0.000000
      2          1           0        0.075966    0.798871    0.000000
      3          1           0       -0.852456    2.100903    0.000000
      4          8           0        0.076775   -1.618295    0.000000
      5          1           0        0.452053   -2.526410    0.000000
      6          1           0       -0.903964   -1.678780    0.000000
 ---------------------------------------------------------------------

 SCF Done:  E(RHF) =  -152.111519813     A.U. after   10 cycles
 E2 =    -0.5269404158D+00 EUMP2 =    -0.15263846022888D+03
 CCSD(T)
 CCSD(T)= -0.15266551826D+03

 The electronic state is 1-A'.
 Alpha  occ. eigenvalues --  -20.57654 -20.53808  -1.34942  -1.31177  -0.72400
 Alpha  occ. eigenvalues --   -0.68595  -0.58590  -0.54575  -0.52053  -0.48307
 Alpha virt. eigenvalues --    0.11827   0.16720   0.19586   0.27251   0.50414
 Alpha virt. eigenvalues --    0.55372   0.56743   0.58314   0.69264   0.73739
 Alpha virt. eigenvalues --    0.75084   0.77637   0.80798   0.83000   0.83836

 Mulliken charges:
               1
     1  O   -0.526795
     2  H    0.271569
     3  H    0.243131
     4  O   -0.499250
     5  H    0.258768
     6  H    0.252578
 Sum of Mulliken charges =  -0.00000

 Dipole moment (field-independent basis, Debye):
    X=             -2.5800    Y=             -3.1290    Z=              0.0000  Tot=              4.0555
 Quadrupole moment (field-independent basis, Debye-Ang):
   XX=             -9.9792   YY=             -8.3890   ZZ=            -14.7251
   XY=             -3.0661   XZ=              0.0000   YZ=              0.0000

 Normal termination of Gaussian 16 at Sun Aug 28 00:51:08 2022.
