 Gaussian 16, Revision A.03,
 Gaussian 16:  ES64L-G16RevA.03 25-Dec-2016

 ------------------
 #p CCSD(T)/cc-pVTZ
 ------------------

 ------------
 H2O_H2O_1457
 ------------
 Symbolic Z-matrix:
 Charge =  0 Multiplicity = 1

                         Standard orientation:
 ---------------------------------------------------------------------
 Center     Atomic      Atomic             Coordinates (Angstroms)
 Number     Number       Type             X           Y           Z
 ---------------------------------------------------------------------
      1          8           0        0.073561    1.683774    0.000000
      2          1           0        0.072532    0.701173    0.000000
      3          1           0       -0.855597    2.003414   -0.000000
      4          8           0        0.073561   -1.516877    0.000000
      5          1           0        0.507231   -2.398601    0.000000
      6          1           0       -0.901149   -1.641157   -0.000000
 ---------------------------------------------------------------------

 SCF Done:  E(RHF) =  -152.112271612     A.U. after   10 cycles
 E2 =    -0.5273961042D+00 EUMP2 =    -0.15263966771653D+03
 CCSD(T)
 CCSD(T)= -0.15266668246D+03

 The electronic state is 1-A'.
 Alpha  occ. eigenvalues --  -20.57989 -20.53324  -1.35309  -1.30747  -0.72763
 Alpha  occ. eigenvalues --   -0.68295  -0.59000  -0.54079  -0.52410  -0.47875
 Alpha virt. eigenvalues --    0.11812   0.16952   0.19519   0.28767   0.49448
 Alpha virt. eigenvalues --    0.55103   0.57177   0.58652   0.69647   0.73899
 Alpha virt. eigenvalues --    0.74068   0.76791   0.81298   0.82715   0.84169

 Mulliken charges:
               1
     1  O   -0.534629
     2  H    0.277637
     3  H    0.241037
     4  O   -0.493886
     5  H    0.256833
     6  H    0.253009
 Sum of Mulliken charges =  -0.00000

 Dipole moment (field-independent basis, Debye):
    X=             -2.4591    Y=             -3.2808    Z=             -0.0000  Tot=              4.1001
 Quadrupole moment (field-independent basis, Debye-Ang):
   XX=             -9.8409   YY=             -8.4656   ZZ=            -14.7267
   XY=             -3.1176   XZ=              0.0000   YZ=             -0.0000

 Normal termination of Gaussian 16 at Sat Aug 27 00:42:04 2022.
