 Gaussian 16, Revision A.03,
 Gaussian 16:  ES64L-G16RevA.03 25-Dec-2016

 ------------------
 #p CCSD(T)/cc-pVTZ
 ------------------

 ------------
 H2O_H2O_2926
 ------------
 Symbolic Z-matrix:
 Charge =  0 Multiplicity = 1

                         Standard orientation:
 ---------------------------------------------------------------------
 Center     Atomic      Atomic             Coordinates (Angstroms)
 Number     Number       Type             X           Y           Z
 ---------------------------------------------------------------------
      1          8           0        0.090685   -2.256804    0.000000
      2          1           0        0.090597   -1.274202    0.000000
      3          1           0       -0.838780   -2.575553    0.000000
      4          8           0        0.090685    2.118096    0.000000
      5          1           0        0.154863    3.098599    0.000000
      6          1           0       -0.857636    1.860818    0.000000
 ---------------------------------------------------------------------

 SCF Done:  E(RHF) =  -152.108301646     A.U. after   10 cycles
 E2 =    -0.5260935499D+00 EUMP2 =    -0.15263439519569D+03
 CCSD(T)
 CCSD(T)= -0.15266157171D+03

 The electronic state is 1-A'.
 Alpha  occ. eigenvalues --  -20.56687 -20.55052  -1.33979  -1.32355  -0.71415
 Alpha  occ. eigenvalues --   -0.69732  -0.57454  -0.55808  -0.51088  -0.49470
 Alpha virt. eigenvalues --    0.11597   0.15635   0.19448   0.23271   0.54418
 Alpha virt. eigenvalues --    0.54636   0.56462   0.58129   0.68208   0.69042
 Alpha virt. eigenvalues --    0.77784   0.78501   0.79411   0.80955   0.82713

 Mulliken charges:
               1
     1  O   -0.511513
     2  H    0.260840
     3  H    0.249011
     4  O   -0.508119
     5  H    0.259687
     6  H    0.250093
 Sum of Mulliken charges =  -0.00000

 Dipole moment (field-independent basis, Debye):
    X=             -3.0864    Y=              2.4943    Z=              0.0000  Tot=              3.9683
 Quadrupole moment (field-independent basis, Debye-Ang):
   XX=            -10.7142   YY=             -8.9288   ZZ=            -14.7136
   XY=              2.3617   XZ=              0.0000   YZ=              0.0000

 CCSD(T)=-152.6615717\RMSD=7.193e-09\PG=CS [SG(H4O2)]\\@
 Normal termination of Gaussian 16 at Fri Aug 26 18:25:06 2022.
