 Gaussian 16, Revision A.03,
 Gaussian 16:  ES64L-G16RevA.03 25-Dec-2016

 ------------------
 #p CCSD(T)/cc-pVTZ
 ------------------

 ------------
 H2O_H2O_2347
 ------------
 Symbolic Z-matrix:
 Charge =  0 Multiplicity = 1

                         Standard orientation:
 ---------------------------------------------------------------------
 Center     Atomic      Atomic             Coordinates (Angstroms)
 Number     Number       Type             X           Y           Z
 ---------------------------------------------------------------------
      1          8           0       -0.019899    2.032903    0.000000
      2          1           0       -0.016717    1.050306    0.000000
      3          1           0        0.908558    2.354577    0.000000
      4          8           0       -0.019899   -1.865817    0.000000
      5          1           0       -0.993674   -1.997226    0.000000
      6          1           0        0.420212   -2.744344    0.000000
 ---------------------------------------------------------------------

 SCF Done:  E(RHF) =  -152.111181950     A.U. after   10 cycles
 E2 =    -0.5261502575D+00 EUMP2 =    -0.15263733220763D+03
 CCSD(T)
 CCSD(T)= -0.15266443195D+03

 The electronic state is 1-A'.
 Alpha  occ. eigenvalues --  -20.57020 -20.54197  -1.34291  -1.31533  -0.71700
 Alpha  occ. eigenvalues --   -0.68945  -0.57902  -0.55018  -0.51424  -0.48682
 Alpha virt. eigenvalues --    0.12237   0.16563   0.19250   0.24869   0.53449
 Alpha virt. eigenvalues --    0.55244   0.56213   0.58621   0.68816   0.71493
 Alpha virt. eigenvalues --    0.77103   0.79024   0.80204   0.81937   0.83644

 Mulliken charges:
               1
     1  O   -0.526247
     2  H    0.265895
     3  H    0.253680
     4  O   -0.511453
     5  H    0.260089
     6  H    0.258035
 Sum of Mulliken charges =  -0.00000

 Dipole moment (field-independent basis, Debye):
    X=              0.6804    Y=             -3.0797    Z=              0.0000  Tot=              3.1539
 Quadrupole moment (field-independent basis, Debye-Ang):
   XX=             -9.4476   YY=             -7.9783   ZZ=            -14.7239
   XY=              5.1871   XZ=              0.0000   YZ=              0.0000

 Normal termination of Gaussian 16 at Sun Aug 28 06:28:21 2022.
