 Gaussian 16, Revision A.03,
 Gaussian 16:  ES64L-G16RevA.03 25-Dec-2016

 ------------------
 #p CCSD(T)/cc-pVTZ
 ------------------

 -----------
 H2O_H2O_919
 -----------
 Symbolic Z-matrix:
 Charge =  0 Multiplicity = 1

                         Standard orientation:
 ---------------------------------------------------------------------
 Center     Atomic      Atomic             Coordinates (Angstroms)
 Number     Number       Type             X           Y           Z
 ---------------------------------------------------------------------
      1          8           0        0.030323    1.469085    0.000000
      2          1           0        0.026467    0.486491    0.000000
      3          1           0       -0.897912    1.791397    0.000000
      4          8           0        0.030323   -1.293570    0.000000
      5          1           0        0.959532   -1.613066    0.000000
      6          1           0       -0.573256   -2.068941    0.000000
 ---------------------------------------------------------------------

 SCF Done:  E(RHF) =  -152.112396000     A.U. after   10 cycles
 E2 =    -0.5289829054D+00 EUMP2 =    -0.15264137890562D+03
 CCSD(T)
 CCSD(T)= -0.15266816817D+03

 The electronic state is 1-A'.
 Alpha  occ. eigenvalues --  -20.58993 -20.51269  -1.36609  -1.29053  -0.73889
 Alpha  occ. eigenvalues --   -0.68199  -0.59830  -0.53618  -0.51934  -0.46154
 Alpha virt. eigenvalues --    0.11844   0.18473   0.18703   0.32480   0.48417
 Alpha virt. eigenvalues --    0.54570   0.56741   0.63338   0.68352   0.72570
 Alpha virt. eigenvalues --    0.72583   0.77446   0.81801   0.82962   0.84467

 Mulliken charges:
               1
     1  O   -0.578293
     2  H    0.298657
     3  H    0.243543
     4  O   -0.479760
     5  H    0.264630
     6  H    0.251223
 Sum of Mulliken charges =  -0.00000

 Dipole moment (field-independent basis, Debye):
    X=             -1.0019    Y=             -3.7698    Z=             -0.0000  Tot=              3.9007
 Quadrupole moment (field-independent basis, Debye-Ang):
   XX=             -9.2167   YY=             -8.8753   ZZ=            -14.7188
   XY=             -3.5396   XZ=             -0.0000   YZ=             -0.0000

 Normal termination of Gaussian 16 at Fri Aug 26 21:20:32 2022.
