 Gaussian 16, Revision A.03,
 Gaussian 16:  ES64L-G16RevA.03 25-Dec-2016

 ------------------
 #p CCSD(T)/cc-pVTZ
 ------------------

 ------------
 H2O_H2O_3412
 ------------
 Symbolic Z-matrix:
 Charge =  0 Multiplicity = 1

                         Standard orientation:
 ---------------------------------------------------------------------
 Center     Atomic      Atomic             Coordinates (Angstroms)
 Number     Number       Type             X           Y           Z
 ---------------------------------------------------------------------
      1          8           0        0.055984    2.468113    0.000000
      2          1           0        0.054665    1.485512    0.000000
      3          1           0       -0.873081    2.788027   -0.000000
      4          8           0        0.055984   -2.289197    0.000000
      5          1           0        0.749855   -2.984934    0.000000
      6          1           0       -0.827178   -2.719932   -0.000000
 ---------------------------------------------------------------------

 SCF Done:  E(RHF) =  -152.109193114     A.U. after   10 cycles
 E2 =    -0.5258807794D+00 EUMP2 =    -0.15263507389304D+03
 CCSD(T)
 CCSD(T)= -0.15266223915D+03

 The electronic state is 1-A'.
 Alpha  occ. eigenvalues --  -20.56477 -20.54640  -1.33766  -1.31955  -0.71169
 Alpha  occ. eigenvalues --   -0.69349  -0.57284  -0.55435  -0.50890  -0.49084
 Alpha virt. eigenvalues --    0.12678   0.15580   0.19533   0.21910   0.53387
 Alpha virt. eigenvalues --    0.55123   0.56441   0.58124   0.67168   0.69341
 Alpha virt. eigenvalues --    0.78016   0.78971   0.79576   0.79754   0.83051

 Mulliken charges:
               1
     1  O   -0.516314
     2  H    0.263016
     3  H    0.251786
     4  O   -0.514873
     5  H    0.259926
     6  H    0.256460
 Sum of Mulliken charges =  -0.00000

 Dipole moment (field-independent basis, Debye):
    X=             -1.9125    Y=             -3.1901    Z=             -0.0000  Tot=              3.7195
 Quadrupole moment (field-independent basis, Debye-Ang):
   XX=             -9.2864   YY=             -6.9816   ZZ=            -14.7176
   XY=             -4.5662   XZ=              0.0000   YZ=             -0.0000

 Normal termination of Gaussian 16 at Fri Aug 26 21:33:24 2022.
