 Gaussian 16, Revision A.03,
 Gaussian 16:  ES64L-G16RevA.03 25-Dec-2016

 ------------------
 #p CCSD(T)/cc-pVTZ
 ------------------

 ------------
 H2O_H2O_4011
 ------------
 Symbolic Z-matrix:
 Charge =  0 Multiplicity = 1

                         Standard orientation:
 ---------------------------------------------------------------------
 Center     Atomic      Atomic             Coordinates (Angstroms)
 Number     Number       Type             X           Y           Z
 ---------------------------------------------------------------------
      1          8           0        0.059626    2.706650   -0.000000
      2          1           0        0.058546    1.724049   -0.000000
      3          1           0       -0.869517    3.026338   -0.000000
      4          8           0        0.059626   -2.529185    0.000000
      5          1           0        0.706687   -3.268655    0.000000
      6          1           0       -0.849726   -2.901457    0.000000
 ---------------------------------------------------------------------

 SCF Done:  E(RHF) =  -152.108595032     A.U. after   10 cycles
 E2 =    -0.5258333207D+00 EUMP2 =    -0.15263442835294D+03
 CCSD(T)
 CCSD(T)= -0.15266161682D+03

 The electronic state is 1-A'.
 Alpha  occ. eigenvalues --  -20.56294 -20.54854  -1.33592  -1.32163  -0.70997
 Alpha  occ. eigenvalues --   -0.69560  -0.57090  -0.55635  -0.50711  -0.49287
 Alpha virt. eigenvalues --    0.13040   0.15161   0.19599   0.21310   0.53497
 Alpha virt. eigenvalues --    0.54928   0.56568   0.57841   0.66683   0.69068
 Alpha virt. eigenvalues --    0.78183   0.79246   0.79564   0.79969   0.82841

 Mulliken charges:
               1
     1  O   -0.514209
     2  H    0.261378
     3  H    0.252395
     4  O   -0.514818
     5  H    0.259239
     6  H    0.256017
 Sum of Mulliken charges =  -0.00000

 Dipole moment (field-independent basis, Debye):
    X=             -2.0417    Y=             -3.1321    Z=              0.0000  Tot=              3.7388
 Quadrupole moment (field-independent basis, Debye-Ang):
   XX=             -9.3622   YY=             -6.6847   ZZ=            -14.7154
   XY=             -4.6710   XZ=              0.0000   YZ=             -0.0000

 Normal termination of Gaussian 16 at Sat Aug 27 00:59:03 2022.
