 Gaussian 16, Revision A.03,
 Gaussian 16:  ES64L-G16RevA.03 25-Dec-2016

 ------------------
 #p CCSD(T)/cc-pVTZ
 ------------------

 ------------
 H2O_H2O_3138
 ------------
 Symbolic Z-matrix:
 Charge =  0 Multiplicity = 1

                         Standard orientation:
 ---------------------------------------------------------------------
 Center     Atomic      Atomic             Coordinates (Angstroms)
 Number     Number       Type             X           Y           Z
 ---------------------------------------------------------------------
      1          8           0        0.052298    2.358952   -0.000000
      2          1           0        0.050777    1.376352   -0.000000
      3          1           0       -0.876700    2.679057    0.000000
      4          8           0        0.052298   -2.179061   -0.000000
      5          1           0        0.790054   -2.828078   -0.000000
      6          1           0       -0.800902   -2.666460    0.000000
 ---------------------------------------------------------------------

 SCF Done:  E(RHF) =  -152.109611728     A.U. after   10 cycles
 E2 =    -0.5259183038D+00 EUMP2 =    -0.15263553003219D+03
 CCSD(T)
 CCSD(T)= -0.15266268034D+03

 The electronic state is 1-A'.
 Alpha  occ. eigenvalues --  -20.56589 -20.54508  -1.33871  -1.31826  -0.71272
 Alpha  occ. eigenvalues --   -0.69219  -0.57405  -0.55310  -0.50998  -0.48959
 Alpha virt. eigenvalues --    0.12554   0.15815   0.19489   0.22377   0.53268
 Alpha virt. eigenvalues --    0.55322   0.56371   0.58412   0.67836   0.69348
 Alpha virt. eigenvalues --    0.77905   0.79072   0.79349   0.79872   0.83180

 Mulliken charges:
               1
     1  O   -0.517943
     2  H    0.263975
     3  H    0.251540
     4  O   -0.514401
     5  H    0.260106
     6  H    0.256723
 Sum of Mulliken charges =   0.00000

 Dipole moment (field-independent basis, Debye):
    X=             -1.7842    Y=             -3.2285    Z=              0.0000  Tot=              3.6887
 Quadrupole moment (field-independent basis, Debye-Ang):
   XX=             -9.2263   YY=             -7.1141   ZZ=            -14.7190
   XY=             -4.5804   XZ=             -0.0000   YZ=              0.0000

 Normal termination of Gaussian 16 at Fri Aug 26 19:58:57 2022.
