 Gaussian 16, Revision A.03,
 Gaussian 16:  ES64L-G16RevA.03 25-Dec-2016

 ------------------
 #p CCSD(T)/cc-pVTZ
 ------------------

 ------------
 H2O_H2O_1017
 ------------
 Symbolic Z-matrix:
 Charge =  0 Multiplicity = 1

                         Standard orientation:
 ---------------------------------------------------------------------
 Center     Atomic      Atomic             Coordinates (Angstroms)
 Number     Number       Type             X           Y           Z
 ---------------------------------------------------------------------
      1          8           0        0.037558    1.510793   -0.000000
      2          1           0        0.034244    0.528197   -0.000000
      3          1           0       -0.890854    1.832593   -0.000000
      4          8           0        0.037558   -1.331923    0.000000
      5          1           0        0.917357   -1.769486    0.000000
      6          1           0       -0.661682   -2.022263    0.000000
 ---------------------------------------------------------------------

 SCF Done:  E(RHF) =  -152.113516783     A.U. after   10 cycles
 E2 =    -0.5285452063D+00 EUMP2 =    -0.15264206198972D+03
 CCSD(T)
 CCSD(T)= -0.15266890540D+03

 The electronic state is 1-A'.
 Alpha  occ. eigenvalues --  -20.58798 -20.51581  -1.36299  -1.29277  -0.73524
 Alpha  occ. eigenvalues --   -0.68062  -0.59757  -0.53356  -0.52282  -0.46393
 Alpha virt. eigenvalues --    0.11876   0.18323   0.18738   0.31952   0.48601
 Alpha virt. eigenvalues --    0.54679   0.56457   0.61919   0.68642   0.71950
 Alpha virt. eigenvalues --    0.72766   0.77479   0.82265   0.82699   0.84749

 Mulliken charges:
               1
     1  O   -0.569785
     2  H    0.296566
     3  H    0.242747
     4  O   -0.491833
     5  H    0.266097
     6  H    0.256209
 Sum of Mulliken charges =  -0.00000

 Dipole moment (field-independent basis, Debye):
    X=             -1.2422    Y=             -3.7637    Z=              0.0000  Tot=              3.9634
 Quadrupole moment (field-independent basis, Debye-Ang):
   XX=             -9.1522   YY=             -8.7558   ZZ=            -14.7264
   XY=             -3.5300   XZ=              0.0000   YZ=              0.0000

 Normal termination of Gaussian 16 at Fri Aug 26 21:55:52 2022.
