 Gaussian 16, Revision A.03,
 Gaussian 16:  ES64L-G16RevA.03 25-Dec-2016

 ------------------
 #p CCSD(T)/cc-pVTZ
 ------------------

 ------------
 H2O_H2O_4914
 ------------
 Symbolic Z-matrix:
 Charge =  0 Multiplicity = 1

                         Standard orientation:
 ---------------------------------------------------------------------
 Center     Atomic      Atomic             Coordinates (Angstroms)
 Number     Number       Type             X           Y           Z
 ---------------------------------------------------------------------
      1          8           0        0.048546    3.067249    0.000000
      2          1           0        0.047281    2.084649    0.000000
      3          1           0       -0.880536    3.387112    0.000000
      4          8           0        0.048546   -2.886821   -0.000000
      5          1           0        0.827326   -3.485994   -0.000000
      6          1           0       -0.770807   -3.429191   -0.000000
 ---------------------------------------------------------------------

 SCF Done:  E(RHF) =  -152.108240846     A.U. after   10 cycles
 E2 =    -0.5258085487D+00 EUMP2 =    -0.15263404939502D+03
 CCSD(T)
 CCSD(T)= -0.15266125199D+03

 The electronic state is 1-A'.
 Alpha  occ. eigenvalues --  -20.56120 -20.55025  -1.33422  -1.32331  -0.70827
 Alpha  occ. eigenvalues --   -0.69733  -0.56908  -0.55799  -0.50540  -0.49452
 Alpha virt. eigenvalues --    0.13527   0.14777   0.19742   0.20898   0.53725
 Alpha virt. eigenvalues --    0.54804   0.56715   0.57766   0.67052   0.68524
 Alpha virt. eigenvalues --    0.78344   0.79408   0.79754   0.80483   0.82253

 Mulliken charges:
               1
     1  O   -0.513127
     2  H    0.259611
     3  H    0.253476
     4  O   -0.513780
     5  H    0.257723
     6  H    0.256097
 Sum of Mulliken charges =   0.00000

 Dipole moment (field-independent basis, Debye):
    X=             -1.6665    Y=             -3.1575    Z=             -0.0000  Tot=              3.5703
 Quadrupole moment (field-independent basis, Debye-Ang):
   XX=             -9.1821   YY=             -5.9446   ZZ=            -14.7143
   XY=             -5.8213   XZ=             -0.0000   YZ=              0.0000

 Normal termination of Gaussian 16 at Sun Aug 28 06:51:22 2022.
