 Gaussian 16, Revision A.03,
 Gaussian 16:  ES64L-G16RevA.03 25-Dec-2016

 ------------------
 #p CCSD(T)/cc-pVTZ
 ------------------

 -----------
 H2O_H2O_396
 -----------
 Symbolic Z-matrix:
 Charge =  0 Multiplicity = 1

                         Standard orientation:
 ---------------------------------------------------------------------
 Center     Atomic      Atomic             Coordinates (Angstroms)
 Number     Number       Type             X           Y           Z
 ---------------------------------------------------------------------
      1          8           0       -0.023421    1.256832    0.000000
      2          1           0       -0.018369    0.274243    0.000000
      3          1           0        0.904422    1.580272    0.000000
      4          8           0       -0.023421   -1.086561    0.000000
      5          1           0       -0.986143   -1.283208    0.000000
      6          1           0        0.474819   -1.933475    0.000000
 ---------------------------------------------------------------------

 SCF Done:  E(RHF) =  -152.090597291     A.U. after   11 cycles
 E2 =    -0.5327846050D+00 EUMP2 =    -0.15262338189606D+03
 CCSD(T)
 CCSD(T)= -0.15264957222D+03

 The electronic state is 1-A'.
 Alpha  occ. eigenvalues --  -20.60522 -20.48059  -1.39625  -1.26833  -0.77152
 Alpha  occ. eigenvalues --   -0.71046  -0.58326  -0.55917  -0.48482  -0.43734
 Alpha virt. eigenvalues --    0.11248   0.17718   0.19926   0.33997   0.47366
 Alpha virt. eigenvalues --    0.53125   0.59512   0.68425   0.70446   0.72086
 Alpha virt. eigenvalues --    0.75580   0.77394   0.78977   0.83868   0.84262

 Mulliken charges:
               1
     1  O   -0.631849
     2  H    0.298629
     3  H    0.233166
     4  O   -0.397009
     5  H    0.260733
     6  H    0.236331
 Sum of Mulliken charges =  -0.00000

 Dipole moment (field-independent basis, Debye):
    X=              0.7479    Y=             -4.2615    Z=              0.0000  Tot=              4.3267
 Quadrupole moment (field-independent basis, Debye-Ang):
   XX=             -9.3011   YY=             -9.5635   ZZ=            -14.6444
   XY=              3.1106   XZ=              0.0000   YZ=              0.0000

 Normal termination of Gaussian 16 at Fri Aug 26 17:56:21 2022.
