 Gaussian 16, Revision A.03,
 Gaussian 16:  ES64L-G16RevA.03 25-Dec-2016

 ------------------
 #p CCSD(T)/cc-pVTZ
 ------------------

 -----------
 H2O_H2O_102
 -----------
 Symbolic Z-matrix:
 Charge =  0 Multiplicity = 1

                         Standard orientation:
 ---------------------------------------------------------------------
 Center     Atomic      Atomic             Coordinates (Angstroms)
 Number     Number       Type             X           Y           Z
 ---------------------------------------------------------------------
      1          8           0        0.088246   -1.133006    0.000000
      2          1           0        0.087869   -0.150404    0.000000
      3          1           0       -0.841124   -1.452029    0.000000
      4          8           0        0.088246    0.988722    0.000000
      5          1           0        0.216128    1.962967    0.000000
      6          1           0       -0.874814    0.793735    0.000000
 ---------------------------------------------------------------------

 SCF Done:  E(RHF) =  -152.036320198     A.U. after   11 cycles
 E2 =    -0.5384156487D+00 EUMP2 =    -0.15257473584632D+03
 CCSD(T)
 CCSD(T)= -0.15260037707D+03

 The electronic state is 1-A'.
 Alpha  occ. eigenvalues --  -20.61543 -20.47219  -1.43720  -1.26589  -0.83113
 Alpha  occ. eigenvalues --   -0.71133  -0.57960  -0.56486  -0.47853  -0.43366
 Alpha virt. eigenvalues --    0.10653   0.15850   0.21733   0.31699   0.49412
 Alpha virt. eigenvalues --    0.50823   0.59994   0.66451   0.71022   0.72550
 Alpha virt. eigenvalues --    0.75290   0.78489   0.80108   0.85610   0.86175

 Mulliken charges:
               1
     1  O   -0.606511
     2  H    0.260602
     3  H    0.188916
     4  O   -0.307712
     5  H    0.226960
     6  H    0.237744
 Sum of Mulliken charges =  -0.00000

 Dipole moment (field-independent basis, Debye):
    X=             -2.7320    Y=              4.1257    Z=              0.0000  Tot=              4.9482
 Quadrupole moment (field-independent basis, Debye-Ang):
   XX=            -10.5076   YY=             -9.9334   ZZ=            -14.5233
   XY=              2.1510   XZ=              0.0000   YZ=              0.0000

 Normal termination of Gaussian 16 at Fri Aug 26 15:52:18 2022.
