 Gaussian 16, Revision A.03,
 Gaussian 16:  ES64L-G16RevA.03 25-Dec-2016

 ------------------
 #p CCSD(T)/cc-pVTZ
 ------------------

 ------------
 H2O_H2O_1603
 ------------
 Symbolic Z-matrix:
 Charge =  0 Multiplicity = 1

                         Standard orientation:
 ---------------------------------------------------------------------
 Center     Atomic      Atomic             Coordinates (Angstroms)
 Number     Number       Type             X           Y           Z
 ---------------------------------------------------------------------
      1          8           0        0.085609   -1.734197    0.000000
      2          1           0        0.085233   -0.751596    0.000000
      3          1           0       -0.843763   -2.053219    0.000000
      4          8           0        0.085609    1.584618    0.000000
      5          1           0        0.276936    2.548412    0.000000
      6          1           0       -0.888143    1.453036    0.000000
 ---------------------------------------------------------------------

 SCF Done:  E(RHF) =  -152.110463448     A.U. after   10 cycles
 E2 =    -0.5272472407D+00 EUMP2 =    -0.15263771068853D+03
 CCSD(T)
 CCSD(T)= -0.15266478171D+03

 The electronic state is 1-A'.
 Alpha  occ. eigenvalues --  -20.57753 -20.54079  -1.35074  -1.31442  -0.72644
 Alpha  occ. eigenvalues --   -0.68792  -0.58653  -0.54820  -0.52160  -0.48557
 Alpha virt. eigenvalues --    0.11641   0.16493   0.19990   0.27507   0.50224
 Alpha virt. eigenvalues --    0.55100   0.57479   0.57884   0.68693   0.74512
 Alpha virt. eigenvalues --    0.74626   0.77617   0.80683   0.82537   0.83591

 Mulliken charges:
               1
     1  O   -0.524488
     2  H    0.272345
     3  H    0.241253
     4  O   -0.490916
     5  H    0.253746
     6  H    0.248060
 Sum of Mulliken charges =   0.00000

 Dipole moment (field-independent basis, Debye):
    X=             -2.8680    Y=              2.8892    Z=              0.0000  Tot=              4.0710
 Quadrupole moment (field-independent basis, Debye-Ang):
   XX=            -10.4408   YY=             -8.7197   ZZ=            -14.7189
   XY=              2.6224   XZ=              0.0000   YZ=              0.0000

 Normal termination of Gaussian 16 at Sat Aug 27 23:50:07 2022.
