 Gaussian 16, Revision A.03,
 Gaussian 16:  ES64L-G16RevA.03 25-Dec-2016

 ------------------
 #p CCSD(T)/cc-pVTZ
 ------------------

 -----------
 H2O_H2O_599
 -----------
 Symbolic Z-matrix:
 Charge =  0 Multiplicity = 1

                         Standard orientation:
 ---------------------------------------------------------------------
 Center     Atomic      Atomic             Coordinates (Angstroms)
 Number     Number       Type             X           Y           Z
 ---------------------------------------------------------------------
      1          8           0        0.013714   -1.330592    0.000000
      2          1           0        0.008327   -0.348005    0.000000
      3          1           0       -0.914017   -1.654350    0.000000
      4          8           0        0.013714    1.171397    0.000000
      5          1           0        0.996302    1.176784    0.000000
      6          1           0       -0.310043    2.099129    0.000000
 ---------------------------------------------------------------------

 SCF Done:  E(RHF) =  -152.101767939     A.U. after   10 cycles
 E2 =    -0.5312470958D+00 EUMP2 =    -0.15263301503438D+03
 CCSD(T)
 CCSD(T)= -0.15265953239D+03

 The electronic state is 1-A'.
 Alpha  occ. eigenvalues --  -20.59737 -20.50134  -1.38122  -1.28317  -0.76240
 Alpha  occ. eigenvalues --   -0.68473  -0.59849  -0.54742  -0.50639  -0.45346
 Alpha virt. eigenvalues --    0.11673   0.18122   0.19411   0.33886   0.47991
 Alpha virt. eigenvalues --    0.53358   0.57801   0.67700   0.69271   0.72050
 Alpha virt. eigenvalues --    0.74607   0.76381   0.79148   0.83914   0.84037

 Mulliken charges:
               1
     1  O   -0.606603
     2  H    0.294876
     3  H    0.245194
     4  O   -0.423913
     5  H    0.257424
     6  H    0.233023
 Sum of Mulliken charges =   0.00000

 Dipole moment (field-independent basis, Debye):
    X=             -0.4569    Y=              3.7388    Z=              0.0000  Tot=              3.7666
 Quadrupole moment (field-independent basis, Debye-Ang):
   XX=             -9.6014   YY=             -9.2748   ZZ=            -14.6730
   XY=              3.5334   XZ=              0.0000   YZ=              0.0000

 Normal termination of Gaussian 16 at Fri Aug 26 19:18:58 2022.
