 Gaussian 16, Revision A.03,
 Gaussian 16:  ES64L-G16RevA.03 25-Dec-2016

 ------------------
 #p CCSD(T)/cc-pVTZ
 ------------------

 ------------
 H2O_H2O_2657
 ------------
 Symbolic Z-matrix:
 Charge =  0 Multiplicity = 1

                         Standard orientation:
 ---------------------------------------------------------------------
 Center     Atomic      Atomic             Coordinates (Angstroms)
 Number     Number       Type             X           Y           Z
 ---------------------------------------------------------------------
      1          8           0        0.073541    2.162444   -0.000000
      2          1           0        0.072749    1.179843   -0.000000
      3          1           0       -0.855694    2.481860   -0.000000
      4          8           0        0.073541   -1.995512    0.000000
      5          1           0        0.507424   -2.877131    0.000000
      6          1           0       -0.901139   -2.120028    0.000000
 ---------------------------------------------------------------------

 SCF Done:  E(RHF) =  -152.109753596     A.U. after   10 cycles
 E2 =    -0.5261085407D+00 EUMP2 =    -0.15263586213681D+03
 CCSD(T)
 CCSD(T)= -0.15266299587D+03

 The electronic state is 1-A'.
 Alpha  occ. eigenvalues --  -20.56842 -20.54487  -1.34117  -1.31806  -0.71533
 Alpha  occ. eigenvalues --   -0.69186  -0.57652  -0.55277  -0.51241  -0.48935
 Alpha virt. eigenvalues --    0.12087   0.16072   0.19444   0.23496   0.53526
 Alpha virt. eigenvalues --    0.55449   0.56208   0.58621   0.68811   0.69891
 Alpha virt. eigenvalues --    0.77561   0.79080   0.79922   0.80451   0.83166

 Mulliken charges:
               1
     1  O   -0.517683
     2  H    0.264711
     3  H    0.248762
     4  O   -0.509537
     5  H    0.259784
     6  H    0.253962
 Sum of Mulliken charges =   0.00000

 Dipole moment (field-independent basis, Debye):
    X=             -2.5002    Y=             -3.0370    Z=              0.0000  Tot=              3.9338
 Quadrupole moment (field-independent basis, Debye-Ang):
   XX=             -9.8204   YY=             -7.8459   ZZ=            -14.7189
   XY=             -3.4534   XZ=              0.0000   YZ=             -0.0000

 Normal termination of Gaussian 16 at Fri Aug 26 16:21:16 2022.
