 Gaussian 16, Revision A.03,
 Gaussian 16:  ES64L-G16RevA.03 25-Dec-2016

 ------------------
 #p CCSD(T)/cc-pVTZ
 ------------------

 ------------
 H2O_H2O_3954
 ------------
 Symbolic Z-matrix:
 Charge =  0 Multiplicity = 1

                         Standard orientation:
 ---------------------------------------------------------------------
 Center     Atomic      Atomic             Coordinates (Angstroms)
 Number     Number       Type             X           Y           Z
 ---------------------------------------------------------------------
      1          8           0        0.082800    2.674245    0.000000
      2          1           0        0.082468    1.691643    0.000000
      3          1           0       -0.846586    2.993225    0.000000
      4          8           0        0.082800   -2.519719   -0.000000
      5          1           0        0.336795   -3.468925   -0.000000
      6          1           0       -0.897476   -2.452150   -0.000000
 ---------------------------------------------------------------------

 SCF Done:  E(RHF) =  -152.108112954     A.U. after   10 cycles
 E2 =    -0.5258782387D+00 EUMP2 =    -0.15263399119275D+03
 CCSD(T)
 CCSD(T)= -0.15266119006D+03

 The electronic state is 1-A'.
 Alpha  occ. eigenvalues --  -20.56319 -20.55078  -1.33618  -1.32383  -0.71032
 Alpha  occ. eigenvalues --   -0.69777  -0.57095  -0.55843  -0.50732  -0.49500
 Alpha virt. eigenvalues --    0.12602   0.15083   0.19211   0.21698   0.53193
 Alpha virt. eigenvalues --    0.55010   0.56505   0.57886   0.66723   0.68911
 Alpha virt. eigenvalues --    0.78165   0.79016   0.79362   0.80956   0.82578

 Mulliken charges:
               1
     1  O   -0.511505
     2  H    0.259590
     3  H    0.251558
     4  O   -0.512413
     5  H    0.259274
     6  H    0.253496
 Sum of Mulliken charges =   0.00000

 Dipole moment (field-independent basis, Debye):
    X=             -2.8343    Y=             -2.7275    Z=             -0.0000  Tot=              3.9335
 Quadrupole moment (field-independent basis, Debye-Ang):
   XX=            -10.2466   YY=             -7.9505   ZZ=            -14.7135
   XY=             -3.1213   XZ=             -0.0000   YZ=              0.0000

 Normal termination of Gaussian 16 at Sat Aug 27 00:39:54 2022.
