 Gaussian 16, Revision A.03,
 Gaussian 16:  ES64L-G16RevA.03 25-Dec-2016

 ------------------
 #p CCSD(T)/cc-pVTZ
 ------------------

 ------------
 H2O_H2O_3927
 ------------
 Symbolic Z-matrix:
 Charge =  0 Multiplicity = 1

                         Standard orientation:
 ---------------------------------------------------------------------
 Center     Atomic      Atomic             Coordinates (Angstroms)
 Number     Number       Type             X           Y           Z
 ---------------------------------------------------------------------
      1          8           0        0.088230   -2.658731    0.000000
      2          1           0        0.088075   -1.676130    0.000000
      3          1           0       -0.841213   -2.977544    0.000000
      4          8           0        0.088230    2.514408    0.000000
      5          1           0        0.216331    3.488623    0.000000
      6          1           0       -0.874875    2.319638    0.000000
 ---------------------------------------------------------------------

 SCF Done:  E(RHF) =  -152.107924394     A.U. after   10 cycles
 E2 =    -0.5258960023D+00 EUMP2 =    -0.15263382039661D+03
 CCSD(T)
 CCSD(T)= -0.15266102371D+03

 The electronic state is 1-A'.
 Alpha  occ. eigenvalues --  -20.56330 -20.55177  -1.33630  -1.32481  -0.71046
 Alpha  occ. eigenvalues --   -0.69874  -0.57099  -0.55936  -0.50741  -0.49595
 Alpha virt. eigenvalues --    0.12374   0.15065   0.19035   0.21986   0.53149
 Alpha virt. eigenvalues --    0.54987   0.56493   0.57880   0.66749   0.68827
 Alpha virt. eigenvalues --    0.78157   0.79062   0.79272   0.81276   0.82439

 Mulliken charges:
               1
     1  O   -0.510525
     2  H    0.258787
     3  H    0.251425
     4  O   -0.511467
     5  H    0.259190
     6  H    0.252590
 Sum of Mulliken charges =  -0.00000

 Dipole moment (field-independent basis, Debye):
    X=             -3.0198    Y=              2.5475    Z=              0.0000  Tot=              3.9508
 Quadrupole moment (field-independent basis, Debye-Ang):
   XX=            -10.5526   YY=             -8.5535   ZZ=            -14.7128
   XY=              2.6410   XZ=              0.0000   YZ=              0.0000

 Normal termination of Gaussian 16 at Sat Aug 27 00:30:52 2022.
