 Gaussian 16, Revision A.03,
 Gaussian 16:  ES64L-G16RevA.03 25-Dec-2016

 ------------------
 #p CCSD(T)/cc-pVTZ
 ------------------

 ------------
 H2O_H2O_1734
 ------------
 Symbolic Z-matrix:
 Charge =  0 Multiplicity = 1

                         Standard orientation:
 ---------------------------------------------------------------------
 Center     Atomic      Atomic             Coordinates (Angstroms)
 Number     Number       Type             X           Y           Z
 ---------------------------------------------------------------------
      1          8           0        0.066788    1.796815   -0.000000
      2          1           0        0.065489    0.814214   -0.000000
      3          1           0       -0.862282    2.116710   -0.000000
      4          8           0        0.066788   -1.623754    0.000000
      5          1           0        0.611611   -2.441478    0.000000
      6          1           0       -0.883430   -1.873934    0.000000
 ---------------------------------------------------------------------

 SCF Done:  E(RHF) =  -152.112333066     A.U. after   10 cycles
 E2 =    -0.5268212225D+00 EUMP2 =    -0.15263915428824D+03
 CCSD(T)
 CCSD(T)= -0.15266620009D+03

 The electronic state is 1-A'.
 Alpha  occ. eigenvalues --  -20.57641 -20.53560  -1.34911  -1.30940  -0.72315
 Alpha  occ. eigenvalues --   -0.68399  -0.58615  -0.54347  -0.52037  -0.48081
 Alpha virt. eigenvalues --    0.11976   0.16968   0.19318   0.27368   0.50444
 Alpha virt. eigenvalues --    0.55268   0.56381   0.58723   0.69295   0.72917
 Alpha virt. eigenvalues --    0.75252   0.77331   0.80953   0.83158   0.84160

 Mulliken charges:
               1
     1  O   -0.529905
     2  H    0.272003
     3  H    0.244553
     4  O   -0.503568
     5  H    0.261815
     6  H    0.255102
 Sum of Mulliken charges =  -0.00000

 Dipole moment (field-independent basis, Debye):
    X=             -2.2470    Y=             -3.3160    Z=              0.0000  Tot=              4.0056
 Quadrupole moment (field-independent basis, Debye-Ang):
   XX=             -9.5802   YY=             -8.1884   ZZ=            -14.7291
   XY=             -3.4223   XZ=              0.0000   YZ=             -0.0000

 Normal termination of Gaussian 16 at Sun Aug 28 01:03:57 2022.
