 Gaussian 16, Revision A.03,
 Gaussian 16:  ES64L-G16RevA.03 25-Dec-2016

 ------------------
 #p CCSD(T)/cc-pVTZ
 ------------------

 -----------
 H2O_H2O_471
 -----------
 Symbolic Z-matrix:
 Charge =  0 Multiplicity = 1

                         Standard orientation:
 ---------------------------------------------------------------------
 Center     Atomic      Atomic             Coordinates (Angstroms)
 Number     Number       Type             X           Y           Z
 ---------------------------------------------------------------------
      1          8           0       -0.023410    1.286750    0.000000
      2          1           0       -0.018484    0.304161    0.000000
      3          1           0        0.904474    1.610072    0.000000
      4          8           0       -0.023410   -1.116473    0.000000
      5          1           0       -0.986159   -1.312997    0.000000
      6          1           0        0.474720   -1.963452    0.000000
 ---------------------------------------------------------------------

 SCF Done:  E(RHF) =  -152.096503873     A.U. after   11 cycles
 E2 =    -0.5320980518D+00 EUMP2 =    -0.15262860192492D+03
 CCSD(T)
 CCSD(T)= -0.15265491801D+03

 The electronic state is 1-A'.
 Alpha  occ. eigenvalues --  -20.60247 -20.48715  -1.38989  -1.27267  -0.76491
 Alpha  occ. eigenvalues --   -0.70344  -0.58799  -0.55467  -0.49182  -0.44215
 Alpha virt. eigenvalues --    0.11374   0.17869   0.19719   0.33963   0.47469
 Alpha virt. eigenvalues --    0.53387   0.59104   0.68326   0.69679   0.72168
 Alpha virt. eigenvalues --    0.74640   0.77314   0.79379   0.83836   0.84151

 Mulliken charges:
               1
     1  O   -0.622908
     2  H    0.300737
     3  H    0.235806
     4  O   -0.411883
     5  H    0.260602
     6  H    0.237645
 Sum of Mulliken charges =  -0.00000

 Dipole moment (field-independent basis, Debye):
    X=              0.7542    Y=             -4.1492    Z=              0.0000  Tot=              4.2171
 Quadrupole moment (field-independent basis, Debye-Ang):
   XX=             -9.3106   YY=             -9.4488   ZZ=            -14.6596
   XY=              3.1913   XZ=              0.0000   YZ=              0.0000

 Normal termination of Gaussian 16 at Fri Aug 26 18:29:27 2022.
