 Gaussian 16, Revision A.03,
 Gaussian 16:  ES64L-G16RevA.03 25-Dec-2016

 ------------------
 #p CCSD(T)/cc-pVTZ
 ------------------

 ------------
 H2O_H2O_1774
 ------------
 Symbolic Z-matrix:
 Charge =  0 Multiplicity = 1

                         Standard orientation:
 ---------------------------------------------------------------------
 Center     Atomic      Atomic             Coordinates (Angstroms)
 Number     Number       Type             X           Y           Z
 ---------------------------------------------------------------------
      1          8           0       -0.013596    1.799288    0.000000
      2          1           0       -0.009676    0.816694    0.000000
      3          1           0        0.914619    2.121659    0.000000
      4          8           0       -0.013596   -1.640052    0.000000
      5          1           0       -0.996189   -1.643971    0.000000
      6          1           0        0.308776   -2.568267    0.000000
 ---------------------------------------------------------------------

 SCF Done:  E(RHF) =  -152.112362866     A.U. after   10 cycles
 E2 =    -0.5266494040D+00 EUMP2 =    -0.15263901227024D+03
 CCSD(T)
 CCSD(T)= -0.15266606937D+03

 The electronic state is 1-A'.
 Alpha  occ. eigenvalues --  -20.57519 -20.53803  -1.34813  -1.31180  -0.72278
 Alpha  occ. eigenvalues --   -0.68622  -0.58531  -0.54603  -0.51934  -0.48334
 Alpha virt. eigenvalues --    0.12173   0.17133   0.19257   0.27413   0.51962
 Alpha virt. eigenvalues --    0.54430   0.55823   0.59716   0.68785   0.73834
 Alpha virt. eigenvalues --    0.75300   0.77986   0.80757   0.83120   0.84193

 Mulliken charges:
               1
     1  O   -0.535389
     2  H    0.269088
     3  H    0.254424
     4  O   -0.506417
     5  H    0.261630
     6  H    0.256664
 Sum of Mulliken charges =  -0.00000

 Dipole moment (field-independent basis, Debye):
    X=              0.4696    Y=             -3.0393    Z=              0.0000  Tot=              3.0753
 Quadrupole moment (field-independent basis, Debye-Ang):
   XX=             -9.6501   YY=             -8.4403   ZZ=            -14.7280
   XY=              4.8459   XZ=              0.0000   YZ=              0.0000

 Normal termination of Gaussian 16 at Sun Aug 28 01:27:57 2022.
