 Gaussian 16, Revision A.03,
 Gaussian 16:  ES64L-G16RevA.03 25-Dec-2016

 ------------------
 #p CCSD(T)/cc-pVTZ
 ------------------

 ------------
 H2O_H2O_2308
 ------------
 Symbolic Z-matrix:
 Charge =  0 Multiplicity = 1

                         Standard orientation:
 ---------------------------------------------------------------------
 Center     Atomic      Atomic             Coordinates (Angstroms)
 Number     Number       Type             X           Y           Z
 ---------------------------------------------------------------------
      1          8           0        0.070211    2.024627    0.000000
      2          1           0        0.069215    1.042026    0.000000
      3          1           0       -0.858959    2.344235    0.000000
      4          8           0        0.070211   -1.854402   -0.000000
      5          1           0        0.560649   -2.705857   -0.000000
      6          1           0       -0.894278   -2.042198   -0.000000
 ---------------------------------------------------------------------

 SCF Done:  E(RHF) =  -152.110629159     A.U. after   10 cycles
 E2 =    -0.5262723385D+00 EUMP2 =    -0.15263690149707D+03
 CCSD(T)
 CCSD(T)= -0.15266400626D+03

 The electronic state is 1-A'.
 Alpha  occ. eigenvalues --  -20.57085 -20.54205  -1.34350  -1.31535  -0.71763
 Alpha  occ. eigenvalues --   -0.68919  -0.57932  -0.55000  -0.51478  -0.48671
 Alpha virt. eigenvalues --    0.12064   0.16414   0.19409   0.24661   0.52667
 Alpha virt. eigenvalues --    0.55852   0.55928   0.58588   0.68836   0.71486
 Alpha virt. eigenvalues --    0.77033   0.78738   0.80223   0.82254   0.83494

 Mulliken charges:
               1
     1  O   -0.521124
     2  H    0.266594
     3  H    0.247566
     4  O   -0.507300
     5  H    0.260052
     6  H    0.254211
 Sum of Mulliken charges =  -0.00000

 Dipole moment (field-independent basis, Debye):
    X=             -2.3801    Y=             -3.1442    Z=             -0.0000  Tot=              3.9435
 Quadrupole moment (field-independent basis, Debye-Ang):
   XX=             -9.6932   YY=             -7.9149   ZZ=            -14.7219
   XY=             -3.5004   XZ=             -0.0000   YZ=              0.0000

 Normal termination of Gaussian 16 at Sun Aug 28 06:12:15 2022.
