 Gaussian 16, Revision A.03,
 Gaussian 16:  ES64L-G16RevA.03 25-Dec-2016

 ------------------
 #p CCSD(T)/cc-pVTZ
 ------------------

 ------------
 H2O_H2O_4858
 ------------
 Symbolic Z-matrix:
 Charge =  0 Multiplicity = 1

                         Standard orientation:
 ---------------------------------------------------------------------
 Center     Atomic      Atomic             Coordinates (Angstroms)
 Number     Number       Type             X           Y           Z
 ---------------------------------------------------------------------
      1          8           0        0.070181    3.041788   -0.000000
      2          1           0        0.069528    2.059187   -0.000000
      3          1           0       -0.859100    3.361072    0.000000
      4          8           0        0.070181   -2.871515   -0.000000
      5          1           0        0.560916   -3.722799   -0.000000
      6          1           0       -0.894242   -3.059647    0.000000
 ---------------------------------------------------------------------

 SCF Done:  E(RHF) =  -152.108051972     A.U. after   10 cycles
 E2 =    -0.5258277856D+00 EUMP2 =    -0.15263387975759D+03
 CCSD(T)
 CCSD(T)= -0.15266108602D+03

 The electronic state is 1-A'.
 Alpha  occ. eigenvalues --  -20.56136 -20.55099  -1.33438  -1.32404  -0.70845
 Alpha  occ. eigenvalues --   -0.69803  -0.56915  -0.55866  -0.50553  -0.49522
 Alpha virt. eigenvalues --    0.13432   0.14720   0.19617   0.20922   0.53634
 Alpha virt. eigenvalues --    0.54788   0.56679   0.57713   0.67045   0.68487
 Alpha virt. eigenvalues --    0.78332   0.79342   0.79681   0.80630   0.82132

 Mulliken charges:
               1
     1  O   -0.511962
     2  H    0.259110
     3  H    0.252812
     4  O   -0.512780
     5  H    0.257985
     6  H    0.254835
 Sum of Mulliken charges =  -0.00000

 Dipole moment (field-independent basis, Debye):
    X=             -2.4087    Y=             -2.9808    Z=              0.0000  Tot=              3.8324
 Quadrupole moment (field-independent basis, Debye-Ang):
   XX=             -9.6785   YY=             -6.6305   ZZ=            -14.7135
   XY=             -4.3091   XZ=              0.0000   YZ=              0.0000

 Normal termination of Gaussian 16 at Sun Aug 28 06:25:22 2022.
