 Gaussian 16, Revision A.03,
 Gaussian 16:  ES64L-G16RevA.03 25-Dec-2016

 ------------------
 #p CCSD(T)/cc-pVTZ
 ------------------

 ------------
 H2O_H2O_4454
 ------------
 Symbolic Z-matrix:
 Charge =  0 Multiplicity = 1

                         Standard orientation:
 ---------------------------------------------------------------------
 Center     Atomic      Atomic             Coordinates (Angstroms)
 Number     Number       Type             X           Y           Z
 ---------------------------------------------------------------------
      1          8           0        0.082798    2.873685    0.000000
      2          1           0        0.082490    1.891084    0.000000
      3          1           0       -0.846595    3.192643    0.000000
      4          8           0        0.082798   -2.719155   -0.000000
      5          1           0        0.336816   -3.668355   -0.000000
      6          1           0       -0.897480   -2.651611   -0.000000
 ---------------------------------------------------------------------

 SCF Done:  E(RHF) =  -152.107934256     A.U. after   10 cycles
 E2 =    -0.5258537684D+00 EUMP2 =    -0.15263378802455D+03
 CCSD(T)
 CCSD(T)= -0.15266099526D+03

 The electronic state is 1-A'.
 Alpha  occ. eigenvalues --  -20.56210 -20.55164  -1.33512  -1.32467  -0.70923
 Alpha  occ. eigenvalues --   -0.69864  -0.56983  -0.55926  -0.50625  -0.49584
 Alpha virt. eigenvalues --    0.13021   0.14815   0.19270   0.21313   0.53345
 Alpha virt. eigenvalues --    0.54874   0.56582   0.57742   0.66867   0.68610
 Alpha virt. eigenvalues --    0.78265   0.79283   0.79486   0.80923   0.82207

 Mulliken charges:
               1
     1  O   -0.511060
     2  H    0.258771
     3  H    0.252188
     4  O   -0.512087
     5  H    0.258505
     6  H    0.253684
 Sum of Mulliken charges =  -0.00000

 Dipole moment (field-independent basis, Debye):
    X=             -2.8389    Y=             -2.7130    Z=             -0.0000  Tot=              3.9268
 Quadrupole moment (field-independent basis, Debye-Ang):
   XX=            -10.2444   YY=             -7.8116   ZZ=            -14.7130
   XY=             -3.1935   XZ=             -0.0000   YZ=              0.0000

 Normal termination of Gaussian 16 at Sun Aug 28 02:59:39 2022.
