 Gaussian 16, Revision A.03,
 Gaussian 16:  ES64L-G16RevA.03 25-Dec-2016

 ------------------
 #p CCSD(T)/cc-pVTZ
 ------------------

 -----------
 H2O_H2O_987
 -----------
 Symbolic Z-matrix:
 Charge =  0 Multiplicity = 1

                         Standard orientation:
 ---------------------------------------------------------------------
 Center     Atomic      Atomic             Coordinates (Angstroms)
 Number     Number       Type             X           Y           Z
 ---------------------------------------------------------------------
      1          8           0        0.056066    1.500785    0.000000
      2          1           0        0.053843    0.518186    0.000000
      3          1           0       -0.872704    1.821554    0.000000
      4          8           0        0.056066   -1.321973   -0.000000
      5          1           0        0.749297   -2.018347   -0.000000
      6          1           0       -0.827492   -1.751895   -0.000000
 ---------------------------------------------------------------------

 SCF Done:  E(RHF) =  -152.112856651     A.U. after   10 cycles
 E2 =    -0.5287796611D+00 EUMP2 =    -0.15264163631210D+03
 CCSD(T)
 CCSD(T)= -0.15266846993D+03

 The electronic state is 1-A'.
 Alpha  occ. eigenvalues --  -20.58878 -20.51577  -1.36399  -1.29282  -0.73613
 Alpha  occ. eigenvalues --   -0.68188  -0.59694  -0.53441  -0.52279  -0.46382
 Alpha virt. eigenvalues --    0.11742   0.17721   0.19216   0.31963   0.48281
 Alpha virt. eigenvalues --    0.54616   0.57750   0.60272   0.69819   0.71862
 Alpha virt. eigenvalues --    0.72706   0.77288   0.82250   0.82649   0.84733

 Mulliken charges:
               1
     1  O   -0.566539
     2  H    0.298939
     3  H    0.237287
     4  O   -0.488226
     5  H    0.262628
     6  H    0.255911
 Sum of Mulliken charges =  -0.00000

 Dipole moment (field-independent basis, Debye):
    X=             -1.8463    Y=             -3.7767    Z=             -0.0000  Tot=              4.2038
 Quadrupole moment (field-independent basis, Debye-Ang):
   XX=             -9.2933   YY=             -8.7807   ZZ=            -14.7232
   XY=             -3.2944   XZ=             -0.0000   YZ=             -0.0000

 Normal termination of Gaussian 16 at Fri Aug 26 21:45:16 2022.
