 Gaussian 16, Revision A.03,
 Gaussian 16:  ES64L-G16RevA.03 25-Dec-2016

 ------------------
 #p CCSD(T)/cc-pVTZ
 ------------------

 ------------
 H2O_H2O_1402
 ------------
 Symbolic Z-matrix:
 Charge =  0 Multiplicity = 1

                         Standard orientation:
 ---------------------------------------------------------------------
 Center     Atomic      Atomic             Coordinates (Angstroms)
 Number     Number       Type             X           Y           Z
 ---------------------------------------------------------------------
      1          8           0        0.088237   -1.651557    0.000000
      2          1           0        0.087984   -0.668956    0.000000
      3          1           0       -0.841173   -1.970463    0.000000
      4          8           0        0.088237    1.507251    0.000000
      5          1           0        0.216241    2.481480    0.000000
      6          1           0       -0.874849    1.312385    0.000000
 ---------------------------------------------------------------------

 SCF Done:  E(RHF) =  -152.109882273     A.U. after   10 cycles
 E2 =    -0.5278032407D+00 EUMP2 =    -0.15263768551320D+03
 CCSD(T)
 CCSD(T)= -0.15266474063D+03

 The electronic state is 1-A'.
 Alpha  occ. eigenvalues --  -20.58015 -20.53977  -1.35394  -1.31368  -0.73107
 Alpha  occ. eigenvalues --   -0.68682  -0.58925  -0.54701  -0.52446  -0.48470
 Alpha virt. eigenvalues --    0.11563   0.16468   0.20221   0.28508   0.49515
 Alpha virt. eigenvalues --    0.54509   0.57857   0.58318   0.68362   0.73508
 Alpha virt. eigenvalues --    0.74614   0.77603   0.80899   0.81912   0.83493

 Mulliken charges:
               1
     1  O   -0.526739
     2  H    0.275667
     3  H    0.238563
     4  O   -0.478617
     5  H    0.247226
     6  H    0.243901
 Sum of Mulliken charges =  -0.00000

 Dipole moment (field-independent basis, Debye):
    X=             -2.9411    Y=              2.8479    Z=              0.0000  Tot=              4.0939
 Quadrupole moment (field-independent basis, Debye-Ang):
   XX=            -10.6012   YY=             -8.8909   ZZ=            -14.7134
   XY=              2.4426   XZ=              0.0000   YZ=              0.0000

 Normal termination of Gaussian 16 at Sat Aug 27 00:21:57 2022.
