 Gaussian 16, Revision A.03,
 Gaussian 16:  ES64L-G16RevA.03 25-Dec-2016

 ------------------
 #p CCSD(T)/cc-pVTZ
 ------------------

 ------------
 H2O_H2O_2961
 ------------
 Symbolic Z-matrix:
 Charge =  0 Multiplicity = 1

                         Standard orientation:
 ---------------------------------------------------------------------
 Center     Atomic      Atomic             Coordinates (Angstroms)
 Number     Number       Type             X           Y           Z
 ---------------------------------------------------------------------
      1          8           0        0.059644    2.287817    0.000000
      2          1           0        0.058358    1.305216    0.000000
      3          1           0       -0.869431    2.607699    0.000000
      4          8           0        0.059644   -2.110376   -0.000000
      5          1           0        0.706552   -2.849983   -0.000000
      6          1           0       -0.849785   -2.482458   -0.000000
 ---------------------------------------------------------------------

 SCF Done:  E(RHF) =  -152.109739341     A.U. after   10 cycles
 E2 =    -0.5259698212D+00 EUMP2 =    -0.15263570916248D+03
 CCSD(T)
 CCSD(T)= -0.15266285208D+03

 The electronic state is 1-A'.
 Alpha  occ. eigenvalues --  -20.56675 -20.54464  -1.33953  -1.31784  -0.71357
 Alpha  occ. eigenvalues --   -0.69173  -0.57491  -0.55266  -0.51081  -0.48917
 Alpha virt. eigenvalues --    0.12415   0.15936   0.19447   0.22739   0.53261
 Alpha virt. eigenvalues --    0.55417   0.56284   0.58630   0.68360   0.69334
 Alpha virt. eigenvalues --    0.77809   0.79052   0.79560   0.79916   0.83218

 Mulliken charges:
               1
     1  O   -0.518120
     2  H    0.264385
     3  H    0.250635
     4  O   -0.513084
     5  H    0.260201
     6  H    0.255982
 Sum of Mulliken charges =   0.00000

 Dipole moment (field-independent basis, Debye):
    X=             -2.0326    Y=             -3.1997    Z=             -0.0000  Tot=              3.7907
 Quadrupole moment (field-independent basis, Debye-Ang):
   XX=             -9.3652   YY=             -7.3147   ZZ=            -14.7193
   XY=             -4.1861   XZ=             -0.0000   YZ=              0.0000

 Normal termination of Gaussian 16 at Fri Aug 26 18:46:36 2022.
