 Gaussian 16, Revision A.03,
 Gaussian 16:  ES64L-G16RevA.03 25-Dec-2016

 ------------------
 #p CCSD(T)/cc-pVTZ
 ------------------

 ------------
 H2O_H2O_1398
 ------------
 Symbolic Z-matrix:
 Charge =  0 Multiplicity = 1

                         Standard orientation:
 ---------------------------------------------------------------------
 Center     Atomic      Atomic             Coordinates (Angstroms)
 Number     Number       Type             X           Y           Z
 ---------------------------------------------------------------------
      1          8           0       -0.016732    1.651943    0.000000
      2          1           0       -0.012607    0.669350    0.000000
      3          1           0        0.911416    1.974508    0.000000
      4          8           0       -0.016732   -1.488596    0.000000
      5          1           0       -0.996951   -1.556976    0.000000
      6          1           0        0.365847   -2.393660    0.000000
 ---------------------------------------------------------------------

 SCF Done:  E(RHF) =  -152.113286386     A.U. after   10 cycles
 E2 =    -0.5273242592D+00 EUMP2 =    -0.15264061064562D+03
 CCSD(T)
 CCSD(T)= -0.15266760449D+03

 The electronic state is 1-A'.
 Alpha  occ. eigenvalues --  -20.58020 -20.53093  -1.35372  -1.30557  -0.72867
 Alpha  occ. eigenvalues --   -0.68156  -0.59190  -0.53853  -0.52473  -0.47708
 Alpha virt. eigenvalues --    0.12135   0.17668   0.19095   0.29558   0.50416
 Alpha virt. eigenvalues --    0.54474   0.55675   0.61095   0.68779   0.73769
 Alpha virt. eigenvalues --    0.74059   0.77001   0.81496   0.82593   0.84303

 Mulliken charges:
               1
     1  O   -0.548251
     2  H    0.277300
     3  H    0.252652
     4  O   -0.495518
     5  H    0.263290
     6  H    0.250529
 Sum of Mulliken charges =  -0.00000

 Dipole moment (field-independent basis, Debye):
    X=              0.5710    Y=             -3.2417    Z=              0.0000  Tot=              3.2916
 Quadrupole moment (field-independent basis, Debye-Ang):
   XX=             -9.5418   YY=             -8.5628   ZZ=            -14.7292
   XY=              4.3234   XZ=              0.0000   YZ=              0.0000

 Normal termination of Gaussian 16 at Sat Aug 27 00:20:32 2022.
