 Gaussian 16, Revision A.03,
 Gaussian 16:  ES64L-G16RevA.03 25-Dec-2016

 ------------------
 #p CCSD(T)/cc-pVTZ
 ------------------

 ------------
 H2O_H2O_2455
 ------------
 Symbolic Z-matrix:
 Charge =  0 Multiplicity = 1

                         Standard orientation:
 ---------------------------------------------------------------------
 Center     Atomic      Atomic             Coordinates (Angstroms)
 Number     Number       Type             X           Y           Z
 ---------------------------------------------------------------------
      1          8           0        0.079857    2.078388   -0.000000
      2          1           0        0.079301    1.095786   -0.000000
      3          1           0       -0.849455    2.397580   -0.000000
      4          8           0        0.079857   -1.919337    0.000000
      5          1           0        0.395178   -2.849970    0.000000
      6          1           0       -0.902738   -1.915801    0.000000
 ---------------------------------------------------------------------

 SCF Done:  E(RHF) =  -152.109721594     A.U. after   10 cycles
 E2 =    -0.5262352970D+00 EUMP2 =    -0.15263595689127D+03
 CCSD(T)
 CCSD(T)= -0.15266308513D+03

 The electronic state is 1-A'.
 Alpha  occ. eigenvalues --  -20.56967 -20.54524  -1.34244  -1.31842  -0.71673
 Alpha  occ. eigenvalues --   -0.69216  -0.57777  -0.55303  -0.51363  -0.48969
 Alpha virt. eigenvalues --    0.11888   0.16131   0.19544   0.24074   0.53391
 Alpha virt. eigenvalues --    0.55555   0.56294   0.58261   0.68727   0.70900
 Alpha virt. eigenvalues --    0.77291   0.79205   0.79928   0.80934   0.83197

 Mulliken charges:
               1
     1  O   -0.517322
     2  H    0.264860
     3  H    0.247549
     4  O   -0.506868
     5  H    0.259430
     6  H    0.252351
 Sum of Mulliken charges =  -0.00000

 Dipole moment (field-independent basis, Debye):
    X=             -2.7094    Y=             -2.9136    Z=              0.0000  Tot=              3.9787
 Quadrupole moment (field-independent basis, Debye-Ang):
   XX=            -10.1118   YY=             -8.1950   ZZ=            -14.7185
   XY=             -3.0772   XZ=              0.0000   YZ=             -0.0000

 Normal termination of Gaussian 16 at Sun Aug 28 07:26:41 2022.
