 Gaussian 16, Revision A.03,
 Gaussian 16:  ES64L-G16RevA.03 25-Dec-2016

 ------------------
 #p CCSD(T)/cc-pVTZ
 ------------------

 ------------
 H2O_H2O_3736
 ------------
 Symbolic Z-matrix:
 Charge =  0 Multiplicity = 1

                         Standard orientation:
 ---------------------------------------------------------------------
 Center     Atomic      Atomic             Coordinates (Angstroms)
 Number     Number       Type             X           Y           Z
 ---------------------------------------------------------------------
      1          8           0        0.059630    2.596956   -0.000000
      2          1           0        0.058503    1.614355   -0.000000
      3          1           0       -0.869497    2.916689   -0.000000
      4          8           0        0.059630   -2.419496    0.000000
      5          1           0        0.706656   -3.158998    0.000000
      6          1           0       -0.849739   -2.791725    0.000000
 ---------------------------------------------------------------------

 SCF Done:  E(RHF) =  -152.108807918     A.U. after   10 cycles
 E2 =    -0.5258516108D+00 EUMP2 =    -0.15263465952878D+03
 CCSD(T)
 CCSD(T)= -0.15266183925D+03

 The electronic state is 1-A'.
 Alpha  occ. eigenvalues --  -20.56369 -20.54773  -1.33664  -1.32084  -0.71069
 Alpha  occ. eigenvalues --   -0.69480  -0.57169  -0.55559  -0.50785  -0.49210
 Alpha virt. eigenvalues --    0.12856   0.15335   0.19563   0.21534   0.53439
 Alpha virt. eigenvalues --    0.54991   0.56512   0.57922   0.66769   0.69224
 Alpha virt. eigenvalues --    0.78115   0.79041   0.79636   0.79845   0.82924

 Mulliken charges:
               1
     1  O   -0.514894
     2  H    0.262030
     3  H    0.252067
     4  O   -0.514931
     5  H    0.259617
     6  H    0.256112
 Sum of Mulliken charges =  -0.00000

 Dipole moment (field-independent basis, Debye):
    X=             -2.0398    Y=             -3.1448    Z=              0.0000  Tot=              3.7484
 Quadrupole moment (field-independent basis, Debye-Ang):
   XX=             -9.3628   YY=             -6.8498   ZZ=            -14.7162
   XY=             -4.5441   XZ=              0.0000   YZ=             -0.0000

 Normal termination of Gaussian 16 at Fri Aug 26 23:23:19 2022.
