 Gaussian 16, Revision A.03,
 Gaussian 16:  ES64L-G16RevA.03 25-Dec-2016

 ------------------
 #p CCSD(T)/cc-pVTZ
 ------------------

 ------------
 H2O_H2O_2843
 ------------
 Symbolic Z-matrix:
 Charge =  0 Multiplicity = 1

                         Standard orientation:
 ---------------------------------------------------------------------
 Center     Atomic      Atomic             Coordinates (Angstroms)
 Number     Number       Type             X           Y           Z
 ---------------------------------------------------------------------
      1          8           0        0.033801    2.238002    0.000000
      2          1           0        0.031465    1.255404    0.000000
      3          1           0       -0.894932    2.558878    0.000000
      4          8           0        0.033801   -2.060487   -0.000000
      5          1           0        0.940710   -2.438670   -0.000000
      6          1           0       -0.618060   -2.795731   -0.000000
 ---------------------------------------------------------------------

 SCF Done:  E(RHF) =  -152.110261788     A.U. after   10 cycles
 E2 =    -0.5259622677D+00 EUMP2 =    -0.15263622405551D+03
 CCSD(T)
 CCSD(T)= -0.15266335440D+03

 The electronic state is 1-A'.
 Alpha  occ. eigenvalues --  -20.56725 -20.54366  -1.34000  -1.31691  -0.71398
 Alpha  occ. eigenvalues --   -0.69090  -0.57562  -0.55182  -0.51132  -0.48831
 Alpha virt. eigenvalues --    0.12439   0.16110   0.19384   0.23153   0.53196
 Alpha virt. eigenvalues --    0.55568   0.56398   0.58637   0.68814   0.69387
 Alpha virt. eigenvalues --    0.77733   0.79061   0.79787   0.79997   0.83351

 Mulliken charges:
               1
     1  O   -0.521223
     2  H    0.264896
     3  H    0.252585
     4  O   -0.514079
     5  H    0.260006
     6  H    0.257816
 Sum of Mulliken charges =  -0.00000

 Dipole moment (field-independent basis, Debye):
    X=             -1.1523    Y=             -3.2126    Z=             -0.0000  Tot=              3.4130
 Quadrupole moment (field-independent basis, Debye-Ang):
   XX=             -9.1859   YY=             -7.3794   ZZ=            -14.7211
   XY=             -5.0960   XZ=             -0.0000   YZ=             -0.0000

 Normal termination of Gaussian 16 at Fri Aug 26 17:42:27 2022.
