 Gaussian 16, Revision A.03,
 Gaussian 16:  ES64L-G16RevA.03 25-Dec-2016

 ------------------
 #p CCSD(T)/cc-pVTZ
 ------------------

 ------------
 H2O_H2O_2552
 ------------
 Symbolic Z-matrix:
 Charge =  0 Multiplicity = 1

                         Standard orientation:
 ---------------------------------------------------------------------
 Center     Atomic      Atomic             Coordinates (Angstroms)
 Number     Number       Type             X           Y           Z
 ---------------------------------------------------------------------
      1          8           0        0.088233   -2.110271    0.000000
      2          1           0        0.088037   -1.127670    0.000000
      3          1           0       -0.841196   -2.429123    0.000000
      4          8           0        0.088233    1.965955    0.000000
      5          1           0        0.216294    2.940176    0.000000
      6          1           0       -0.874864    1.771145    0.000000
 ---------------------------------------------------------------------

 SCF Done:  E(RHF) =  -152.108879391     A.U. after   10 cycles
 E2 =    -0.5262369403D+00 EUMP2 =    -0.15263511633090D+03
 CCSD(T)
 CCSD(T)= -0.15266226783D+03

 The electronic state is 1-A'.
 Alpha  occ. eigenvalues --  -20.56894 -20.54844  -1.34181  -1.32152  -0.71627
 Alpha  occ. eigenvalues --   -0.69519  -0.57675  -0.55604  -0.51291  -0.49270
 Alpha virt. eigenvalues --    0.11631   0.15904   0.19676   0.23874   0.53764
 Alpha virt. eigenvalues --    0.55436   0.56493   0.58000   0.68551   0.70512
 Alpha virt. eigenvalues --    0.77422   0.79024   0.79644   0.80449   0.83084

 Mulliken charges:
               1
     1  O   -0.513895
     2  H    0.263063
     3  H    0.247601
     4  O   -0.505929
     5  H    0.259321
     6  H    0.249839
 Sum of Mulliken charges =  -0.00000

 Dipole moment (field-independent basis, Debye):
    X=             -2.9942    Y=              2.6282    Z=              0.0000  Tot=              3.9840
 Quadrupole moment (field-independent basis, Debye-Ang):
   XX=            -10.5704   YY=             -8.7118   ZZ=            -14.7153
   XY=              2.5439   XZ=              0.0000   YZ=              0.0000

 CCSD(T)=-152.6622678\RMSD=7.080e-09\PG=CS [SG(H4O2)]\\@
 Normal termination of Gaussian 16 at Fri Aug 26 15:33:49 2022.
