 Gaussian 16, Revision A.03,
 Gaussian 16:  ES64L-G16RevA.03 25-Dec-2016

 ------------------
 #p CCSD(T)/cc-pVTZ
 ------------------

 ------------
 H2O_H2O_1232
 ------------
 Symbolic Z-matrix:
 Charge =  0 Multiplicity = 1

                         Standard orientation:
 ---------------------------------------------------------------------
 Center     Atomic      Atomic             Coordinates (Angstroms)
 Number     Number       Type             X           Y           Z
 ---------------------------------------------------------------------
      1          8           0        0.073567    1.594022    0.000000
      2          1           0        0.072476    0.611421    0.000000
      3          1           0       -0.855572    1.913720    0.000000
      4          8           0        0.073567   -1.427135   -0.000000
      5          1           0        0.507182   -2.308885   -0.000000
      6          1           0       -0.901152   -1.551354   -0.000000
 ---------------------------------------------------------------------

 SCF Done:  E(RHF) =  -152.112224741     A.U. after   10 cycles
 E2 =    -0.5280337090D+00 EUMP2 =    -0.15264025845031D+03
 CCSD(T)
 CCSD(T)= -0.15266721982D+03

 The electronic state is 1-A'.
 Alpha  occ. eigenvalues --  -20.58348 -20.52857  -1.35744  -1.30356  -0.73221
 Alpha  occ. eigenvalues --   -0.68143  -0.59364  -0.53588  -0.52815  -0.47471
 Alpha virt. eigenvalues --    0.11732   0.17035   0.19583   0.30133   0.48771
 Alpha virt. eigenvalues --    0.54841   0.57978   0.58852   0.69719   0.73221
 Alpha virt. eigenvalues --    0.74164   0.76520   0.81757   0.82294   0.84225

 Mulliken charges:
               1
     1  O   -0.543216
     2  H    0.284749
     3  H    0.238056
     4  O   -0.482678
     5  H    0.251743
     6  H    0.251346
 Sum of Mulliken charges =  -0.00000

 Dipole moment (field-independent basis, Debye):
    X=             -2.4432    Y=             -3.3765    Z=             -0.0000  Tot=              4.1678
 Quadrupole moment (field-independent basis, Debye-Ang):
   XX=             -9.8438   YY=             -8.6208   ZZ=            -14.7230
   XY=             -3.0484   XZ=             -0.0000   YZ=              0.0000

 Normal termination of Gaussian 16 at Fri Aug 26 23:16:42 2022.
