 Gaussian 16, Revision A.03,
 Gaussian 16:  ES64L-G16RevA.03 25-Dec-2016

 ------------------
 #p CCSD(T)/cc-pVTZ
 ------------------

 ------------
 H2O_H2O_3737
 ------------
 Symbolic Z-matrix:
 Charge =  0 Multiplicity = 1

                         Standard orientation:
 ---------------------------------------------------------------------
 Center     Atomic      Atomic             Coordinates (Angstroms)
 Number     Number       Type             X           Y           Z
 ---------------------------------------------------------------------
      1          8           0        0.055978    2.597752    0.000000
      2          1           0        0.054727    1.615151    0.000000
      3          1           0       -0.873109    2.917601   -0.000000
      4          8           0        0.055978   -2.418828    0.000000
      5          1           0        0.749897   -3.114516    0.000000
      6          1           0       -0.827154   -2.849624   -0.000000
 ---------------------------------------------------------------------

 SCF Done:  E(RHF) =  -152.108862537     A.U. after   10 cycles
 E2 =    -0.5258466498D+00 EUMP2 =    -0.15263470918706D+03
 CCSD(T)
 CCSD(T)= -0.15266188778D+03

 The electronic state is 1-A'.
 Alpha  occ. eigenvalues --  -20.56368 -20.54755  -1.33662  -1.32067  -0.71066
 Alpha  occ. eigenvalues --   -0.69463  -0.57170  -0.55543  -0.50784  -0.49193
 Alpha virt. eigenvalues --    0.12884   0.15346   0.19583   0.21528   0.53464
 Alpha virt. eigenvalues --    0.54981   0.56520   0.57914   0.66770   0.69234
 Alpha virt. eigenvalues --    0.78116   0.79122   0.79651   0.79716   0.82944

 Mulliken charges:
               1
     1  O   -0.515220
     2  H    0.262163
     3  H    0.252246
     4  O   -0.515184
     5  H    0.259571
     6  H    0.256424
 Sum of Mulliken charges =  -0.00000

 Dipole moment (field-independent basis, Debye):
    X=             -1.9149    Y=             -3.1708    Z=              0.0000  Tot=              3.7042
 Quadrupole moment (field-independent basis, Debye-Ang):
   XX=             -9.2858   YY=             -6.7804   ZZ=            -14.7164
   XY=             -4.7326   XZ=              0.0000   YZ=              0.0000

 CCSD(T)=-152.6618878\RMSD=7.073e-09\PG=CS [SG(H4O2)]\\@
 Normal termination of Gaussian 16 at Fri Aug 26 23:23:40 2022.
