 Gaussian 16, Revision A.03,
 Gaussian 16:  ES64L-G16RevA.03 25-Dec-2016

 ------------------
 #p CCSD(T)/cc-pVTZ
 ------------------

 ------------
 H2O_H2O_1873
 ------------
 Symbolic Z-matrix:
 Charge =  0 Multiplicity = 1

                         Standard orientation:
 ---------------------------------------------------------------------
 Center     Atomic      Atomic             Coordinates (Angstroms)
 Number     Number       Type             X           Y           Z
 ---------------------------------------------------------------------
      1          8           0       -0.016695    1.841416    0.000000
      2          1           0       -0.013014    0.858822    0.000000
      3          1           0        0.911598    2.163562    0.000000
      4          8           0       -0.016695   -1.678054    0.000000
      5          1           0       -0.996945   -1.745990    0.000000
      6          1           0        0.365475   -2.583290    0.000000
 ---------------------------------------------------------------------

 SCF Done:  E(RHF) =  -152.112315071     A.U. after   10 cycles
 E2 =    -0.5265236907D+00 EUMP2 =    -0.15263883876151D+03
 CCSD(T)
 CCSD(T)= -0.15266590056D+03

 The electronic state is 1-A'.
 Alpha  occ. eigenvalues --  -20.57426 -20.53829  -1.34707  -1.31197  -0.72141
 Alpha  occ. eigenvalues --   -0.68637  -0.58411  -0.54639  -0.51835  -0.48352
 Alpha virt. eigenvalues --    0.12191   0.17066   0.19218   0.26905   0.52271
 Alpha virt. eigenvalues --    0.54445   0.55936   0.59391   0.68843   0.73378
 Alpha virt. eigenvalues --    0.75717   0.78218   0.80680   0.83283   0.84149

 Mulliken charges:
               1
     1  O   -0.533336
     2  H    0.268365
     3  H    0.253784
     4  O   -0.508235
     5  H    0.261623
     6  H    0.257799
 Sum of Mulliken charges =  -0.00000

 Dipole moment (field-independent basis, Debye):
    X=              0.5722    Y=             -3.0957    Z=              0.0000  Tot=              3.1481
 Quadrupole moment (field-independent basis, Debye-Ang):
   XX=             -9.5449   YY=             -8.3027   ZZ=            -14.7283
   XY=              4.8272   XZ=              0.0000   YZ=              0.0000

 Normal termination of Gaussian 16 at Sun Aug 28 02:21:10 2022.
