 Gaussian 16, Revision A.03,
 Gaussian 16:  ES64L-G16RevA.03 25-Dec-2016

 ------------------
 #p CCSD(T)/cc-pVTZ
 ------------------

 ------------
 H2O_H2O_3396
 ------------
 Symbolic Z-matrix:
 Charge =  0 Multiplicity = 1

                         Standard orientation:
 ---------------------------------------------------------------------
 Center     Atomic      Atomic             Coordinates (Angstroms)
 Number     Number       Type             X           Y           Z
 ---------------------------------------------------------------------
      1          8           0       -0.023199    2.453516    0.000000
      2          1           0       -0.020700    1.470918    0.000000
      3          1           0        0.905480    2.774546    0.000000
      4          8           0       -0.023199   -2.283124    0.000000
      5          1           0       -0.986431   -2.477271    0.000000
      6          1           0        0.472838   -3.131330    0.000000
 ---------------------------------------------------------------------

 SCF Done:  E(RHF) =  -152.109354559     A.U. after   10 cycles
 E2 =    -0.5258564093D+00 EUMP2 =    -0.15263521096873D+03
 CCSD(T)
 CCSD(T)= -0.15266237431D+03

 The electronic state is 1-A'.
 Alpha  occ. eigenvalues --  -20.56467 -20.54703  -1.33758  -1.32018  -0.71162
 Alpha  occ. eigenvalues --   -0.69422  -0.57283  -0.55505  -0.50884  -0.49151
 Alpha virt. eigenvalues --    0.12581   0.15610   0.19378   0.22187   0.53365
 Alpha virt. eigenvalues --    0.55338   0.56517   0.58044   0.67174   0.69315
 Alpha virt. eigenvalues --    0.78019   0.78740   0.79687   0.80250   0.83016

 Mulliken charges:
               1
     1  O   -0.517875
     2  H    0.262300
     3  H    0.254135
     4  O   -0.516000
     5  H    0.258763
     6  H    0.258678
 Sum of Mulliken charges =  -0.00000

 Dipole moment (field-independent basis, Debye):
    X=              0.7944    Y=             -3.0368    Z=              0.0000  Tot=              3.1390
 Quadrupole moment (field-independent basis, Debye-Ang):
   XX=             -9.3612   YY=             -7.3471   ZZ=            -14.7181
   XY=              6.0627   XZ=              0.0000   YZ=              0.0000

 Normal termination of Gaussian 16 at Fri Aug 26 21:28:02 2022.
