 Gaussian 16, Revision A.03,
 Gaussian 16:  ES64L-G16RevA.03 25-Dec-2016

 ------------------
 #p CCSD(T)/cc-pVTZ
 ------------------

 ------------
 H2O_H2O_1027
 ------------
 Symbolic Z-matrix:
 Charge =  0 Multiplicity = 1

                         Standard orientation:
 ---------------------------------------------------------------------
 Center     Atomic      Atomic             Coordinates (Angstroms)
 Number     Number       Type             X           Y           Z
 ---------------------------------------------------------------------
      1          8           0        0.088239   -1.501976    0.000000
      2          1           0        0.087959   -0.519374    0.000000
      3          1           0       -0.841163   -1.820907    0.000000
      4          8           0        0.088239    1.357675    0.000000
      5          1           0        0.216217    2.331907    0.000000
      6          1           0       -0.874841    1.162783    0.000000
 ---------------------------------------------------------------------

 SCF Done:  E(RHF) =  -152.107964259     A.U. after   10 cycles
 E2 =    -0.5292724405D+00 EUMP2 =    -0.15263723669971D+03
 CCSD(T)
 CCSD(T)= -0.15266418643D+03

 The electronic state is 1-A'.
 Alpha  occ. eigenvalues --  -20.58666 -20.53207  -1.36276  -1.30742  -0.74316
 Alpha  occ. eigenvalues --   -0.68221  -0.59529  -0.53915  -0.53213  -0.47810
 Alpha virt. eigenvalues --    0.11489   0.16532   0.20400   0.30651   0.48448
 Alpha virt. eigenvalues --    0.53541   0.58271   0.60302   0.68495   0.72092
 Alpha virt. eigenvalues --    0.74260   0.77819   0.80566   0.81881   0.83306

 Mulliken charges:
               1
     1  O   -0.538934
     2  H    0.284472
     3  H    0.231911
     4  O   -0.450542
     5  H    0.236431
     6  H    0.236662
 Sum of Mulliken charges =  -0.00000

 Dipole moment (field-independent basis, Debye):
    X=             -2.9068    Y=              3.0233    Z=              0.0000  Tot=              4.1940
 Quadrupole moment (field-independent basis, Debye-Ang):
   XX=            -10.6064   YY=             -9.0280   ZZ=            -14.6983
   XY=              2.3935   XZ=              0.0000   YZ=              0.0000

 Normal termination of Gaussian 16 at Fri Aug 26 21:59:27 2022.
