 Gaussian 16, Revision A.03,
 Gaussian 16:  ES64L-G16RevA.03 25-Dec-2016

 ------------------
 #p CCSD(T)/cc-pVTZ
 ------------------

 ------------
 H2O_H2O_3712
 ------------
 Symbolic Z-matrix:
 Charge =  0 Multiplicity = 1

                         Standard orientation:
 ---------------------------------------------------------------------
 Center     Atomic      Atomic             Coordinates (Angstroms)
 Number     Number       Type             X           Y           Z
 ---------------------------------------------------------------------
      1          8           0        0.055978    2.587780    0.000000
      2          1           0        0.054722    1.605179    0.000000
      3          1           0       -0.873107    2.907634    0.000000
      4          8           0        0.055978   -2.408857   -0.000000
      5          1           0        0.749894   -3.104549   -0.000000
      6          1           0       -0.827156   -2.839648   -0.000000
 ---------------------------------------------------------------------

 SCF Done:  E(RHF) =  -152.108884946     A.U. after   10 cycles
 E2 =    -0.5258487560D+00 EUMP2 =    -0.15263473370186D+03
 CCSD(T)
 CCSD(T)= -0.15266191138D+03

 The electronic state is 1-A'.
 Alpha  occ. eigenvalues --  -20.56376 -20.54747  -1.33669  -1.32059  -0.71073
 Alpha  occ. eigenvalues --   -0.69455  -0.57178  -0.55535  -0.50791  -0.49186
 Alpha virt. eigenvalues --    0.12867   0.15363   0.19579   0.21552   0.53459
 Alpha virt. eigenvalues --    0.54989   0.56514   0.57925   0.66788   0.69246
 Alpha virt. eigenvalues --    0.78109   0.79106   0.79659   0.79705   0.82951

 Mulliken charges:
               1
     1  O   -0.515294
     2  H    0.262225
     3  H    0.252215
     4  O   -0.515180
     5  H    0.259602
     6  H    0.256431
 Sum of Mulliken charges =  -0.00000

 Dipole moment (field-independent basis, Debye):
    X=             -1.9147    Y=             -3.1722    Z=             -0.0000  Tot=              3.7052
 Quadrupole moment (field-independent basis, Debye-Ang):
   XX=             -9.2858   YY=             -6.7959   ZZ=            -14.7165
   XY=             -4.7198   XZ=             -0.0000   YZ=             -0.0000

 CCSD(T)=-152.6619114\RMSD=7.068e-09\PG=CS [SG(H4O2)]\\@
 Normal termination of Gaussian 16 at Fri Aug 26 23:15:15 2022.
