 Gaussian 16, Revision A.03,
 Gaussian 16:  ES64L-G16RevA.03 25-Dec-2016

 ------------------
 #p CCSD(T)/cc-pVTZ
 ------------------

 -----------
 H2O_H2O_336
 -----------
 Symbolic Z-matrix:
 Charge =  0 Multiplicity = 1

                         Standard orientation:
 ---------------------------------------------------------------------
 Center     Atomic      Atomic             Coordinates (Angstroms)
 Number     Number       Type             X           Y           Z
 ---------------------------------------------------------------------
      1          8           0        0.059750    1.240695    0.000000
      2          1           0        0.057295    0.258096    0.000000
      3          1           0       -0.868945    1.561682   -0.000000
      4          8           0        0.059750   -1.063396    0.000000
      5          1           0        0.705777   -1.803771    0.000000
      6          1           0       -0.850121   -1.434396   -0.000000
 ---------------------------------------------------------------------

 SCF Done:  E(RHF) =  -152.086300309     A.U. after   11 cycles
 E2 =    -0.5334399339D+00 EUMP2 =    -0.15261974024312D+03
 CCSD(T)
 CCSD(T)= -0.15264583475D+03

 The electronic state is 1-A'.
 Alpha  occ. eigenvalues --  -20.60868 -20.47500  -1.40154  -1.26462  -0.76739
 Alpha  occ. eigenvalues --   -0.73076  -0.57261  -0.56356  -0.48024  -0.43279
 Alpha virt. eigenvalues --    0.10913   0.16911   0.20473   0.33252   0.47829
 Alpha virt. eigenvalues --    0.52941   0.61723   0.63568   0.71609   0.71983
 Alpha virt. eigenvalues --    0.76565   0.79748   0.79870   0.82940   0.84056

 Mulliken charges:
               1
     1  O   -0.625844
     2  H    0.306436
     3  H    0.214479
     4  O   -0.389491
     5  H    0.248876
     6  H    0.245544
 Sum of Mulliken charges =  -0.00000

 Dipole moment (field-independent basis, Debye):
    X=             -1.8716    Y=             -4.4887    Z=             -0.0000  Tot=              4.8632
 Quadrupole moment (field-independent basis, Debye-Ang):
   XX=             -9.3464   YY=             -9.6809   ZZ=            -14.6346
   XY=             -2.8537   XZ=              0.0000   YZ=             -0.0000

 Normal termination of Gaussian 16 at Fri Aug 26 17:31:28 2022.
