 Gaussian 16, Revision A.03,
 Gaussian 16:  ES64L-G16RevA.03 25-Dec-2016

 ------------------
 #p CCSD(T)/cc-pVTZ
 ------------------

 ------------
 H2O_H2O_2030
 ------------
 Symbolic Z-matrix:
 Charge =  0 Multiplicity = 1

                         Standard orientation:
 ---------------------------------------------------------------------
 Center     Atomic      Atomic             Coordinates (Angstroms)
 Number     Number       Type             X           Y           Z
 ---------------------------------------------------------------------
      1          8           0        0.079861    1.908860   -0.000000
      2          1           0        0.079254    0.926259   -0.000000
      3          1           0       -0.849435    2.228101   -0.000000
      4          8           0        0.079861   -1.749818    0.000000
      5          1           0        0.395134   -2.680468    0.000000
      6          1           0       -0.902733   -1.746231    0.000000
 ---------------------------------------------------------------------

 SCF Done:  E(RHF) =  -152.110532448     A.U. after   10 cycles
 E2 =    -0.5265551498D+00 EUMP2 =    -0.15263708759774D+03
 CCSD(T)
 CCSD(T)= -0.15266418355D+03

 The electronic state is 1-A'.
 Alpha  occ. eigenvalues --  -20.57308 -20.54242  -1.34584  -1.31575  -0.72033
 Alpha  occ. eigenvalues --   -0.68948  -0.58163  -0.55015  -0.51699  -0.48704
 Alpha virt. eigenvalues --    0.11822   0.16432   0.19632   0.25620   0.51835
 Alpha virt. eigenvalues --    0.55720   0.56389   0.58015   0.68840   0.72965
 Alpha virt. eigenvalues --    0.76279   0.78685   0.80303   0.83161   0.83294

 Mulliken charges:
               1
     1  O   -0.520690
     2  H    0.267206
     3  H    0.245266
     4  O   -0.503070
     5  H    0.259461
     6  H    0.251827
 Sum of Mulliken charges =  -0.00000

 Dipole moment (field-independent basis, Debye):
    X=             -2.6969    Y=             -2.9771    Z=              0.0000  Tot=              4.0170
 Quadrupole moment (field-independent basis, Debye-Ang):
   XX=            -10.1209   YY=             -8.3464   ZZ=            -14.7215
   XY=             -2.9964   XZ=              0.0000   YZ=             -0.0000

 Normal termination of Gaussian 16 at Sun Aug 28 03:44:03 2022.
