 Gaussian 16, Revision A.03,
 Gaussian 16:  ES64L-G16RevA.03 25-Dec-2016

 ------------------
 #p CCSD(T)/cc-pVTZ
 ------------------

 ------------
 H2O_H2O_3696
 ------------
 Symbolic Z-matrix:
 Charge =  0 Multiplicity = 1

                         Standard orientation:
 ---------------------------------------------------------------------
 Center     Atomic      Atomic             Coordinates (Angstroms)
 Number     Number       Type             X           Y           Z
 ---------------------------------------------------------------------
      1          8           0       -0.023189    2.573182    0.000000
      2          1           0       -0.020810    1.590583    0.000000
      3          1           0        0.905530    2.894098    0.000000
      4          8           0       -0.023189   -2.402784    0.000000
      5          1           0       -0.986443   -2.596813    0.000000
      6          1           0        0.472745   -3.251050    0.000000
 ---------------------------------------------------------------------

 SCF Done:  E(RHF) =  -152.109035017     A.U. after   10 cycles
 E2 =    -0.5258270697D+00 EUMP2 =    -0.15263486208623D+03
 CCSD(T)
 CCSD(T)= -0.15266203783D+03

 The electronic state is 1-A'.
 Alpha  occ. eigenvalues --  -20.56367 -20.54804  -1.33663  -1.32117  -0.71067
 Alpha  occ. eigenvalues --   -0.69521  -0.57178  -0.55600  -0.50786  -0.49247
 Alpha virt. eigenvalues --    0.12768   0.15390   0.19414   0.21801   0.53315
 Alpha virt. eigenvalues --    0.55188   0.56568   0.57907   0.66794   0.69206
 Alpha virt. eigenvalues --    0.78112   0.78853   0.79597   0.80321   0.82911

 Mulliken charges:
               1
     1  O   -0.516641
     2  H    0.261560
     3  H    0.254266
     4  O   -0.516158
     5  H    0.258410
     6  H    0.258563
 Sum of Mulliken charges =  -0.00000

 Dipole moment (field-independent basis, Debye):
    X=              0.7948    Y=             -3.0199    Z=              0.0000  Tot=              3.1227
 Quadrupole moment (field-independent basis, Debye-Ang):
   XX=             -9.3613   YY=             -7.1973   ZZ=            -14.7170
   XY=              6.3508   XZ=              0.0000   YZ=              0.0000

 Normal termination of Gaussian 16 at Fri Aug 26 23:10:01 2022.
