 Gaussian 16, Revision A.03,
 Gaussian 16:  ES64L-G16RevA.03 25-Dec-2016

 ------------------
 #p CCSD(T)/cc-pVTZ
 ------------------

 ------------
 H2O_H2O_3780
 ------------
 Symbolic Z-matrix:
 Charge =  0 Multiplicity = 1

                         Standard orientation:
 ---------------------------------------------------------------------
 Center     Atomic      Atomic             Coordinates (Angstroms)
 Number     Number       Type             X           Y           Z
 ---------------------------------------------------------------------
      1          8           0        0.079848    2.606909    0.000000
      2          1           0        0.079408    1.624308    0.000000
      3          1           0       -0.849503    2.925992    0.000000
      4          8           0        0.079848   -2.447840   -0.000000
      5          1           0        0.395279   -3.378436   -0.000000
      6          1           0       -0.902748   -2.444420   -0.000000
 ---------------------------------------------------------------------

 SCF Done:  E(RHF) =  -152.108298065     A.U. after   10 cycles
 E2 =    -0.5258855100D+00 EUMP2 =    -0.15263418357458D+03
 CCSD(T)
 CCSD(T)= -0.15266137567D+03

 The electronic state is 1-A'.
 Alpha  occ. eigenvalues --  -20.56364 -20.54993  -1.33662  -1.32300  -0.71075
 Alpha  occ. eigenvalues --   -0.69692  -0.57145  -0.55763  -0.50777  -0.49419
 Alpha virt. eigenvalues --    0.12544   0.15206   0.19292   0.21747   0.53238
 Alpha virt. eigenvalues --    0.55044   0.56482   0.57948   0.66750   0.69045
 Alpha virt. eigenvalues --    0.78123   0.78843   0.79440   0.80775   0.82684

 Mulliken charges:
               1
     1  O   -0.512216
     2  H    0.260296
     3  H    0.251357
     4  O   -0.512819
     5  H    0.259543
     6  H    0.253840
 Sum of Mulliken charges =  -0.00000

 Dipole moment (field-independent basis, Debye):
    X=             -2.7314    Y=             -2.8150    Z=             -0.0000  Tot=              3.9223
 Quadrupole moment (field-independent basis, Debye-Ang):
   XX=            -10.0969   YY=             -7.7522   ZZ=            -14.7142
   XY=             -3.3222   XZ=             -0.0000   YZ=             -0.0000

 Normal termination of Gaussian 16 at Fri Aug 26 23:37:55 2022.
