 Gaussian 16, Revision A.03,
 Gaussian 16:  ES64L-G16RevA.03 25-Dec-2016

 ------------------
 #p CCSD(T)/cc-pVTZ
 ------------------

 ------------
 H2O_H2O_3545
 ------------
 Symbolic Z-matrix:
 Charge =  0 Multiplicity = 1

                         Standard orientation:
 ---------------------------------------------------------------------
 Center     Atomic      Atomic             Coordinates (Angstroms)
 Number     Number       Type             X           Y           Z
 ---------------------------------------------------------------------
      1          8           0        0.026642    2.514891    0.000000
      2          1           0        0.024325    1.532292    0.000000
      3          1           0       -0.902097    2.835748   -0.000000
      4          8           0        0.026642   -2.341657    0.000000
      5          1           0        0.975160   -2.598209    0.000000
      6          1           0       -0.523659   -3.155706   -0.000000
 ---------------------------------------------------------------------

 SCF Done:  E(RHF) =  -152.109209074     A.U. after   10 cycles
 E2 =    -0.5258407431D+00 EUMP2 =    -0.15263504981683D+03
 CCSD(T)
 CCSD(T)= -0.15266221881D+03

 The electronic state is 1-A'.
 Alpha  occ. eigenvalues --  -20.56417 -20.54727  -1.33710  -1.32041  -0.71113
 Alpha  occ. eigenvalues --   -0.69444  -0.57231  -0.55526  -0.50835  -0.49172
 Alpha virt. eigenvalues --    0.12713   0.15505   0.19446   0.21914   0.53347
 Alpha virt. eigenvalues --    0.55224   0.56537   0.57971   0.66954   0.69285
 Alpha virt. eigenvalues --    0.78067   0.78816   0.79667   0.80120   0.82985

 Mulliken charges:
               1
     1  O   -0.517234
     2  H    0.262175
     3  H    0.253929
     4  O   -0.516143
     5  H    0.258817
     6  H    0.258457
 Sum of Mulliken charges =   0.00000

 Dipole moment (field-independent basis, Debye):
    X=             -0.9121    Y=             -3.0790    Z=             -0.0000  Tot=              3.2112
 Quadrupole moment (field-independent basis, Debye-Ang):
   XX=             -9.2884   YY=             -7.1442   ZZ=            -14.7176
   XY=             -6.0233   XZ=              0.0000   YZ=             -0.0000

 Normal termination of Gaussian 16 at Fri Aug 26 22:18:34 2022.
