 Gaussian 16, Revision A.03,
 Gaussian 16:  ES64L-G16RevA.03 25-Dec-2016

 ------------------
 #p CCSD(T)/cc-pVTZ
 ------------------

 ------------
 H2O_H2O_2615
 ------------
 Symbolic Z-matrix:
 Charge =  0 Multiplicity = 1

                         Standard orientation:
 ---------------------------------------------------------------------
 Center     Atomic      Atomic             Coordinates (Angstroms)
 Number     Number       Type             X           Y           Z
 ---------------------------------------------------------------------
      1          8           0        0.044875    2.149811    0.000000
      2          1           0        0.042892    1.167212    0.000000
      3          1           0       -0.883974    2.470352   -0.000000
      4          8           0        0.044875   -1.969428    0.000000
      5          1           0        0.860775   -2.516979    0.000000
      6          1           0       -0.737687   -2.563655   -0.000000
 ---------------------------------------------------------------------

 SCF Done:  E(RHF) =  -152.110685191     A.U. after   10 cycles
 E2 =    -0.5260457937D+00 EUMP2 =    -0.15263673098479D+03
 CCSD(T)
 CCSD(T)= -0.15266384588D+03

 The electronic state is 1-A'.
 Alpha  occ. eigenvalues --  -20.56869 -20.54196  -1.34134  -1.31526  -0.71530
 Alpha  occ. eigenvalues --   -0.68921  -0.57717  -0.55014  -0.51269  -0.48668
 Alpha virt. eigenvalues --    0.12382   0.16331   0.19355   0.23761   0.52812
 Alpha virt. eigenvalues --    0.55597   0.56320   0.58938   0.69064   0.70152
 Alpha virt. eigenvalues --    0.77518   0.78839   0.80165   0.80285   0.83580

 Mulliken charges:
               1
     1  O   -0.522419
     2  H    0.266132
     3  H    0.251012
     4  O   -0.512154
     5  H    0.260451
     6  H    0.256979
 Sum of Mulliken charges =   0.00000

 Dipole moment (field-independent basis, Debye):
    X=             -1.5262    Y=             -3.2925    Z=             -0.0000  Tot=              3.6290
 Quadrupole moment (field-independent basis, Debye-Ang):
   XX=             -9.1577   YY=             -7.4362   ZZ=            -14.7224
   XY=             -4.5350   XZ=              0.0000   YZ=             -0.0000

 Normal termination of Gaussian 16 at Fri Aug 26 16:03:25 2022.
