 Gaussian 16, Revision A.03,
 Gaussian 16:  ES64L-G16RevA.03 25-Dec-2016

 ------------------
 #p CCSD(T)/cc-pVTZ
 ------------------

 ------------
 H2O_H2O_2022
 ------------
 Symbolic Z-matrix:
 Charge =  0 Multiplicity = 1

                         Standard orientation:
 ---------------------------------------------------------------------
 Center     Atomic      Atomic             Coordinates (Angstroms)
 Number     Number       Type             X           Y           Z
 ---------------------------------------------------------------------
      1          8           0       -0.019918    1.903264    0.000000
      2          1           0       -0.016509    0.920668    0.000000
      3          1           0        0.908464    2.225152    0.000000
      4          8           0       -0.019918   -1.736187    0.000000
      5          1           0       -0.993663   -1.867821    0.000000
      6          1           0        0.420396   -2.614612    0.000000
 ---------------------------------------------------------------------

 SCF Done:  E(RHF) =  -152.112055133     A.U. after   10 cycles
 E2 =    -0.5263738207D+00 EUMP2 =    -0.15263842895347D+03
 CCSD(T)
 CCSD(T)= -0.15266550105D+03

 The electronic state is 1-A'.
 Alpha  occ. eigenvalues --  -20.57291 -20.53913  -1.34561  -1.31269  -0.71976
 Alpha  occ. eigenvalues --   -0.68699  -0.58237  -0.54731  -0.51695  -0.48423
 Alpha virt. eigenvalues --    0.12216   0.16929   0.19207   0.26194   0.52682
 Alpha virt. eigenvalues --    0.54646   0.56067   0.59001   0.68874   0.72786
 Alpha virt. eigenvalues --    0.76259   0.78456   0.80542   0.83438   0.83950

 Mulliken charges:
               1
     1  O   -0.530700
     2  H    0.267507
     3  H    0.253298
     4  O   -0.509582
     5  H    0.261241
     6  H    0.258236
 Sum of Mulliken charges =  -0.00000

 Dipole moment (field-independent basis, Debye):
    X=              0.6799    Y=             -3.1354    Z=              0.0000  Tot=              3.2083
 Quadrupole moment (field-independent basis, Debye-Ang):
   XX=             -9.4483   YY=             -8.1418   ZZ=            -14.7274
   XY=              4.8589   XZ=              0.0000   YZ=              0.0000

 Normal termination of Gaussian 16 at Sun Aug 28 03:41:00 2022.
