 Gaussian 16, Revision A.03,
 Gaussian 16:  ES64L-G16RevA.03 25-Dec-2016

 ------------------
 #p CCSD(T)/cc-pVTZ
 ------------------

 ------------
 H2O_H2O_4107
 ------------
 Symbolic Z-matrix:
 Charge =  0 Multiplicity = 1

                         Standard orientation:
 ---------------------------------------------------------------------
 Center     Atomic      Atomic             Coordinates (Angstroms)
 Number     Number       Type             X           Y           Z
 ---------------------------------------------------------------------
      1          8           0        0.073527    2.740829    0.000000
      2          1           0        0.072907    1.758228    0.000000
      3          1           0       -0.855765    3.060082   -0.000000
      4          8           0        0.073527   -2.573871    0.000000
      5          1           0        0.507564   -3.455414    0.000000
      6          1           0       -0.901132   -2.698557   -0.000000
 ---------------------------------------------------------------------

 SCF Done:  E(RHF) =  -152.108287516     A.U. after   10 cycles
 E2 =    -0.5258491966D+00 EUMP2 =    -0.15263413671267D+03
 CCSD(T)
 CCSD(T)= -0.15266133311D+03

 The electronic state is 1-A'.
 Alpha  occ. eigenvalues --  -20.56276 -20.54985  -1.33576  -1.32292  -0.70985
 Alpha  occ. eigenvalues --   -0.69688  -0.57061  -0.55757  -0.50692  -0.49412
 Alpha virt. eigenvalues --    0.12944   0.15046   0.19441   0.21351   0.53345
 Alpha virt. eigenvalues --    0.54964   0.56555   0.57837   0.66712   0.68922
 Alpha virt. eigenvalues --    0.78201   0.79144   0.79446   0.80524   0.82688

 Mulliken charges:
               1
     1  O   -0.512624
     2  H    0.260316
     3  H    0.252005
     4  O   -0.513536
     5  H    0.259146
     6  H    0.254692
 Sum of Mulliken charges =  -0.00000

 Dipole moment (field-independent basis, Debye):
    X=             -2.5183    Y=             -2.9424    Z=             -0.0000  Tot=              3.8729
 Quadrupole moment (field-independent basis, Debye-Ang):
   XX=             -9.8101   YY=             -7.1941   ZZ=            -14.7143
   XY=             -3.8467   XZ=              0.0000   YZ=             -0.0000

 Normal termination of Gaussian 16 at Sat Aug 27 23:36:32 2022.
