 Gaussian 16, Revision A.03,
 Gaussian 16:  ES64L-G16RevA.03 25-Dec-2016

 ------------------
 #p CCSD(T)/cc-pVTZ
 ------------------

 ------------
 H2O_H2O_4930
 ------------
 Symbolic Z-matrix:
 Charge =  0 Multiplicity = 1

                         Standard orientation:
 ---------------------------------------------------------------------
 Center     Atomic      Atomic             Coordinates (Angstroms)
 Number     Number       Type             X           Y           Z
 ---------------------------------------------------------------------
      1          8           0        0.079842    3.065624    0.000000
      2          1           0        0.079470    2.083022    0.000000
      3          1           0       -0.849530    3.384642    0.000000
      4          8           0        0.079842   -2.906543   -0.000000
      5          1           0        0.395336   -3.837118   -0.000000
      6          1           0       -0.902754   -2.903191   -0.000000
 ---------------------------------------------------------------------

 SCF Done:  E(RHF) =  -152.107882225     A.U. after   10 cycles
 E2 =    -0.5258407226D+00 EUMP2 =    -0.15263372294796D+03
 CCSD(T)
 CCSD(T)= -0.15266093305D+03

 The electronic state is 1-A'.
 Alpha  occ. eigenvalues --  -20.56131 -20.55195  -1.33433  -1.32498  -0.70842
 Alpha  occ. eigenvalues --   -0.69897  -0.56902  -0.55956  -0.50547  -0.49614
 Alpha virt. eigenvalues --    0.13375   0.14636   0.19477   0.20958   0.53582
 Alpha virt. eigenvalues --    0.54744   0.56663   0.57649   0.67091   0.68387
 Alpha virt. eigenvalues --    0.78339   0.79253   0.79716   0.80760   0.81879

 Mulliken charges:
               1
     1  O   -0.511042
     2  H    0.258341
     3  H    0.252674
     4  O   -0.511865
     5  H    0.257833
     6  H    0.254059
 Sum of Mulliken charges =  -0.00000

 Dipole moment (field-independent basis, Debye):
    X=             -2.7408    Y=             -2.7833    Z=              0.0000  Tot=              3.9063
 Quadrupole moment (field-independent basis, Debye-Ang):
   XX=            -10.0928   YY=             -7.3548   ZZ=            -14.7129
   XY=             -3.5346   XZ=             -0.0000   YZ=              0.0000

 Normal termination of Gaussian 16 at Sun Aug 28 06:59:48 2022.
