 Gaussian 16, Revision A.03,
 Gaussian 16:  ES64L-G16RevA.03 25-Dec-2016

 ------------------
 #p CCSD(T)/cc-pVTZ
 ------------------

 ------------
 H2O_H2O_2758
 ------------
 Symbolic Z-matrix:
 Charge =  0 Multiplicity = 1

                         Standard orientation:
 ---------------------------------------------------------------------
 Center     Atomic      Atomic             Coordinates (Angstroms)
 Number     Number       Type             X           Y           Z
 ---------------------------------------------------------------------
      1          8           0        0.070203    2.204127   -0.000000
      2          1           0        0.069292    1.221526   -0.000000
      3          1           0       -0.858994    2.523655   -0.000000
      4          8           0        0.070203   -2.033891    0.000000
      5          1           0        0.560715   -2.885304    0.000000
      6          1           0       -0.894269   -2.221770    0.000000
 ---------------------------------------------------------------------

 SCF Done:  E(RHF) =  -152.109733891     A.U. after   10 cycles
 E2 =    -0.5260582379D+00 EUMP2 =    -0.15263579212900D+03
 CCSD(T)
 CCSD(T)= -0.15266292925D+03

 The electronic state is 1-A'.
 Alpha  occ. eigenvalues --  -20.56783 -20.54482  -1.34060  -1.31801  -0.71471
 Alpha  occ. eigenvalues --   -0.69184  -0.57595  -0.55276  -0.51185  -0.48932
 Alpha virt. eigenvalues --    0.12185   0.16027   0.19429   0.23226   0.53471
 Alpha virt. eigenvalues --    0.55437   0.56210   0.58689   0.68774   0.69550
 Alpha virt. eigenvalues --    0.77659   0.79053   0.79914   0.80159   0.83179

 Mulliken charges:
               1
     1  O   -0.517715
     2  H    0.264567
     3  H    0.249330
     4  O   -0.510729
     5  H    0.259958
     6  H    0.254589
 Sum of Mulliken charges =  -0.00000

 Dipole moment (field-independent basis, Debye):
    X=             -2.3888    Y=             -3.0874    Z=              0.0000  Tot=              3.9036
 Quadrupole moment (field-independent basis, Debye-Ang):
   XX=             -9.6877   YY=             -7.6826   ZZ=            -14.7190
   XY=             -3.6435   XZ=              0.0000   YZ=             -0.0000

 Normal termination of Gaussian 16 at Fri Aug 26 17:06:49 2022.
