 Gaussian 16, Revision A.03,
 Gaussian 16:  ES64L-G16RevA.03 25-Dec-2016

 ------------------
 #p CCSD(T)/cc-pVTZ
 ------------------

 ------------
 H2O_H2O_3348
 ------------
 Symbolic Z-matrix:
 Charge =  0 Multiplicity = 1

                         Standard orientation:
 ---------------------------------------------------------------------
 Center     Atomic      Atomic             Coordinates (Angstroms)
 Number     Number       Type             X           Y           Z
 ---------------------------------------------------------------------
      1          8           0       -0.016618    2.429772    0.000000
      2          1           0       -0.013860    1.447175    0.000000
      3          1           0        0.911977    2.751046    0.000000
      4          8           0       -0.016618   -2.266379    0.000000
      5          1           0       -0.996931   -2.333396    0.000000
      6          1           0        0.364701   -3.171973    0.000000
 ---------------------------------------------------------------------

 SCF Done:  E(RHF) =  -152.109325872     A.U. after   10 cycles
 E2 =    -0.5258627951D+00 EUMP2 =    -0.15263518866750D+03
 CCSD(T)
 CCSD(T)= -0.15266235273D+03

 The electronic state is 1-A'.
 Alpha  occ. eigenvalues --  -20.56479 -20.54763  -1.33773  -1.32078  -0.71179
 Alpha  occ. eigenvalues --   -0.69485  -0.57295  -0.55565  -0.50897  -0.49211
 Alpha virt. eigenvalues --    0.12441   0.15625   0.19259   0.22448   0.53421
 Alpha virt. eigenvalues --    0.55421   0.56513   0.58034   0.67230   0.69297
 Alpha virt. eigenvalues --    0.78004   0.78671   0.79629   0.80607   0.82981

 Mulliken charges:
               1
     1  O   -0.517943
     2  H    0.261768
     3  H    0.254731
     4  O   -0.515828
     5  H    0.258245
     6  H    0.259027
 Sum of Mulliken charges =  -0.00000

 Dipole moment (field-independent basis, Debye):
    X=              0.5708    Y=             -2.9134    Z=              0.0000  Tot=              2.9688
 Quadrupole moment (field-independent basis, Debye-Ang):
   XX=             -9.5428   YY=             -7.6787   ZZ=            -14.7179
   XY=              6.3772   XZ=              0.0000   YZ=              0.0000

 Normal termination of Gaussian 16 at Fri Aug 26 21:12:16 2022.
