 Gaussian 16, Revision A.03,
 Gaussian 16:  ES64L-G16RevA.03 25-Dec-2016

 ------------------
 #p CCSD(T)/cc-pVTZ
 ------------------

 ------------
 H2O_H2O_4570
 ------------
 Symbolic Z-matrix:
 Charge =  0 Multiplicity = 1

                         Standard orientation:
 ---------------------------------------------------------------------
 Center     Atomic      Atomic             Coordinates (Angstroms)
 Number     Number       Type             X           Y           Z
 ---------------------------------------------------------------------
      1          8           0        0.026612    2.923748    0.000000
      2          1           0        0.024629    1.941149    0.000000
      3          1           0       -0.902235    3.244290    0.000000
      4          8           0        0.026612   -2.750496   -0.000000
      5          1           0        0.975218   -3.006726   -0.000000
      6          1           0       -0.523411   -3.564731   -0.000000
 ---------------------------------------------------------------------

 SCF Done:  E(RHF) =  -152.108443726     A.U. after   10 cycles
 E2 =    -0.5257989285D+00 EUMP2 =    -0.15263424265460D+03
 CCSD(T)
 CCSD(T)= -0.15266144014D+03

 The electronic state is 1-A'.
 Alpha  occ. eigenvalues --  -20.56168 -20.55001  -1.33471  -1.32308  -0.70875
 Alpha  occ. eigenvalues --   -0.69713  -0.56965  -0.55781  -0.50590  -0.49432
 Alpha virt. eigenvalues --    0.13358   0.14898   0.19623   0.21085   0.53586
 Alpha virt. eigenvalues --    0.54871   0.56682   0.57787   0.66873   0.68673
 Alpha virt. eigenvalues --    0.78295   0.79425   0.79570   0.80462   0.82531

 Mulliken charges:
               1
     1  O   -0.514276
     2  H    0.259904
     3  H    0.254271
     4  O   -0.514855
     5  H    0.257513
     6  H    0.257443
 Sum of Mulliken charges =   0.00000

 Dipole moment (field-independent basis, Debye):
    X=             -0.9136    Y=             -3.0387    Z=             -0.0000  Tot=              3.1730
 Quadrupole moment (field-independent basis, Debye-Ang):
   XX=             -9.2894   YY=             -6.5851   ZZ=            -14.7149
   XY=             -6.9589   XZ=             -0.0000   YZ=              0.0000

 Normal termination of Gaussian 16 at Sun Aug 28 03:58:51 2022.
