 Gaussian 16, Revision A.03,
 Gaussian 16:  ES64L-G16RevA.03 25-Dec-2016

 ------------------
 #p CCSD(T)/cc-pVTZ
 ------------------

 ------------
 H2O_H2O_1725
 ------------
 Symbolic Z-matrix:
 Charge =  0 Multiplicity = 1

                         Standard orientation:
 ---------------------------------------------------------------------
 Center     Atomic      Atomic             Coordinates (Angstroms)
 Number     Number       Type             X           Y           Z
 ---------------------------------------------------------------------
      1          8           0        0.092949   -1.774935    0.000000
      2          1           0        0.092949   -0.792333    0.000000
      3          1           0       -0.836544   -2.093602    0.000000
      4          8           0        0.092949    1.642148    0.000000
      5          1           0        0.092949    2.624749    0.000000
      6          1           0       -0.836544    1.323481    0.000000
 ---------------------------------------------------------------------

 SCF Done:  E(RHF) =  -152.108929261     A.U. after   10 cycles
 E2 =    -0.5271759737D+00 EUMP2 =    -0.15263610523451D+03
 CCSD(T)
 CCSD(T)= -0.15266322436D+03

 The electronic state is 1-A'.
 Alpha  occ. eigenvalues --  -20.57582 -20.54678  -1.34906  -1.32003  -0.72556
 Alpha  occ. eigenvalues --   -0.69252  -0.58396  -0.55401  -0.51979  -0.49106
 Alpha virt. eigenvalues --    0.11454   0.16202   0.20409   0.26665   0.50862
 Alpha virt. eigenvalues --    0.54793   0.57384   0.57684   0.67812   0.74159
 Alpha virt. eigenvalues --    0.74825   0.78096   0.80173   0.82267   0.83340

 Mulliken charges:
               1
     1  O   -0.517137
     2  H    0.268724
     3  H    0.241982
     4  O   -0.491123
     5  H    0.254978
     6  H    0.242575
 Sum of Mulliken charges =  -0.00000

 Dipole moment (field-independent basis, Debye):
    X=             -3.1182    Y=              2.5301    Z=              0.0000  Tot=              4.0155
 Quadrupole moment (field-independent basis, Debye-Ang):
   XX=            -10.8905   YY=             -9.1439   ZZ=            -14.7123
   XY=              2.1264   XZ=              0.0000   YZ=              0.0000

 Normal termination of Gaussian 16 at Sun Aug 28 00:58:29 2022.
