 Gaussian 16, Revision A.03,
 Gaussian 16:  ES64L-G16RevA.03 25-Dec-2016

 ------------------
 #p CCSD(T)/cc-pVTZ
 ------------------

 ------------
 H2O_H2O_1102
 ------------
 Symbolic Z-matrix:
 Charge =  0 Multiplicity = 1

                         Standard orientation:
 ---------------------------------------------------------------------
 Center     Atomic      Atomic             Coordinates (Angstroms)
 Number     Number       Type             X           Y           Z
 ---------------------------------------------------------------------
      1          8           0        0.088239   -1.531892    0.000000
      2          1           0        0.087964   -0.549291    0.000000
      3          1           0       -0.841165   -1.850818    0.000000
      4          8           0        0.088239    1.387590    0.000000
      5          1           0        0.216222    2.361821    0.000000
      6          1           0       -0.874842    1.192704    0.000000
 ---------------------------------------------------------------------

 SCF Done:  E(RHF) =  -152.108653654     A.U. after   10 cycles
 E2 =    -0.5289103011D+00 EUMP2 =    -0.15263756395546D+03
 CCSD(T)
 CCSD(T)= -0.15266454361D+03

 The electronic state is 1-A'.
 Alpha  occ. eigenvalues --  -20.58518 -20.53402  -1.36060  -1.30897  -0.74016
 Alpha  occ. eigenvalues --   -0.68309  -0.59416  -0.54112  -0.53031  -0.47974
 Alpha virt. eigenvalues --    0.11510   0.16525   0.20357   0.30237   0.48601
 Alpha virt. eigenvalues --    0.53742   0.58178   0.59801   0.68439   0.72318
 Alpha virt. eigenvalues --    0.74328   0.77755   0.80839   0.81691   0.83359

 Mulliken charges:
               1
     1  O   -0.535858
     2  H    0.282613
     3  H    0.233514
     4  O   -0.456485
     5  H    0.237906
     6  H    0.238310
 Sum of Mulliken charges =  -0.00000

 Dipole moment (field-independent basis, Debye):
    X=             -2.9147    Y=              2.9803    Z=              0.0000  Tot=              4.1687
 Quadrupole moment (field-independent basis, Debye-Ang):
   XX=            -10.6062   YY=             -8.9941   ZZ=            -14.7027
   XY=              2.4046   XZ=              0.0000   YZ=              0.0000

 Normal termination of Gaussian 16 at Fri Aug 26 22:28:29 2022.
