 Gaussian 16, Revision A.03,
 Gaussian 16:  ES64L-G16RevA.03 25-Dec-2016

 ------------------
 #p CCSD(T)/cc-pVTZ
 ------------------

 ------------
 H2O_H2O_1001
 ------------
 Symbolic Z-matrix:
 Charge =  0 Multiplicity = 1

                         Standard orientation:
 ---------------------------------------------------------------------
 Center     Atomic      Atomic             Coordinates (Angstroms)
 Number     Number       Type             X           Y           Z
 ---------------------------------------------------------------------
      1          8           0        0.090688   -1.488961    0.000000
      2          1           0        0.090553   -0.506359    0.000000
      3          1           0       -0.838761   -1.807755    0.000000
      4          8           0        0.090688    1.350262    0.000000
      5          1           0        0.154819    2.330768    0.000000
      6          1           0       -0.857621    1.092938    0.000000
 ---------------------------------------------------------------------

 SCF Done:  E(RHF) =  -152.106703883     A.U. after   10 cycles
 E2 =    -0.5295288030D+00 EUMP2 =    -0.15263623268594D+03
 CCSD(T)
 CCSD(T)= -0.15266318882D+03

 The electronic state is 1-A'.
 Alpha  occ. eigenvalues --  -20.58703 -20.53360  -1.36365  -1.30894  -0.74582
 Alpha  occ. eigenvalues --   -0.68207  -0.59542  -0.54070  -0.53264  -0.47952
 Alpha virt. eigenvalues --    0.11463   0.16453   0.20594   0.30642   0.48362
 Alpha virt. eigenvalues --    0.53196   0.58273   0.60668   0.68307   0.71814
 Alpha virt. eigenvalues --    0.74047   0.78084   0.80217   0.81826   0.83105

 Mulliken charges:
               1
     1  O   -0.536607
     2  H    0.283765
     3  H    0.230900
     4  O   -0.447507
     5  H    0.236279
     6  H    0.233171
 Sum of Mulliken charges =  -0.00000

 Dipole moment (field-independent basis, Debye):
    X=             -2.9849    Y=              2.9237    Z=              0.0000  Tot=              4.1783
 Quadrupole moment (field-independent basis, Debye-Ang):
   XX=            -10.7581   YY=             -9.1269   ZZ=            -14.6928
   XY=              2.2402   XZ=              0.0000   YZ=              0.0000

 CCSD(T)=-152.6631888\RMSD=8.134e-09\PG=CS [SG(H4O2)]\\@
 Normal termination of Gaussian 16 at Fri Aug 26 21:50:12 2022.
