 Gaussian 16, Revision A.03,
 Gaussian 16:  ES64L-G16RevA.03 25-Dec-2016

 ------------------
 #p CCSD(T)/cc-pVTZ
 ------------------

 ------------
 H2O_H2O_3825
 ------------
 Symbolic Z-matrix:
 Charge =  0 Multiplicity = 1

                         Standard orientation:
 ---------------------------------------------------------------------
 Center     Atomic      Atomic             Coordinates (Angstroms)
 Number     Number       Type             X           Y           Z
 ---------------------------------------------------------------------
      1          8           0        0.092949   -2.612577    0.000000
      2          1           0        0.092949   -1.629976    0.000000
      3          1           0       -0.836544   -2.931244    0.000000
      4          8           0        0.092949    2.479790    0.000000
      5          1           0        0.092950    3.462392    0.000000
      6          1           0       -0.836544    2.161124    0.000000
 ---------------------------------------------------------------------

 SCF Done:  E(RHF) =  -152.107729962     A.U. after   10 cycles
 E2 =    -0.5259236266D+00 EUMP2 =    -0.15263365358890D+03
 CCSD(T)
 CCSD(T)= -0.15266086096D+03

 The electronic state is 1-A'.
 Alpha  occ. eigenvalues --  -20.56361 -20.55283  -1.33661  -1.32584  -0.71082
 Alpha  occ. eigenvalues --   -0.69976  -0.57122  -0.56035  -0.50770  -0.49696
 Alpha virt. eigenvalues --    0.12029   0.15090   0.18869   0.22456   0.53178
 Alpha virt. eigenvalues --    0.54925   0.56484   0.57863   0.66802   0.68743
 Alpha virt. eigenvalues --    0.78131   0.79054   0.79177   0.81452   0.82331

 Mulliken charges:
               1
     1  O   -0.509497
     2  H    0.257975
     3  H    0.251229
     4  O   -0.510370
     5  H    0.259167
     6  H    0.251496
 Sum of Mulliken charges =  -0.00000

 Dipole moment (field-independent basis, Debye):
    X=             -3.1799    Y=              2.3460    Z=              0.0000  Tot=              3.9516
 Quadrupole moment (field-independent basis, Debye-Ang):
   XX=            -10.8490   YY=             -9.2615   ZZ=            -14.7119
   XY=              2.1538   XZ=              0.0000   YZ=              0.0000

 Normal termination of Gaussian 16 at Fri Aug 26 23:53:59 2022.
