 Gaussian 16, Revision A.03,
 Gaussian 16:  ES64L-G16RevA.03 25-Dec-2016

 ------------------
 #p CCSD(T)/cc-pVTZ
 ------------------

 ------------
 H2O_H2O_1671
 ------------
 Symbolic Z-matrix:
 Charge =  0 Multiplicity = 1

                         Standard orientation:
 ---------------------------------------------------------------------
 Center     Atomic      Atomic             Coordinates (Angstroms)
 Number     Number       Type             X           Y           Z
 ---------------------------------------------------------------------
      1          8           0       -0.023288    1.765432    0.000000
      2          1           0       -0.019766    0.782837    0.000000
      3          1           0        0.905057    2.087428    0.000000
      4          8           0       -0.023288   -1.595088    0.000000
      5          1           0       -0.986317   -1.790238    0.000000
      6          1           0        0.473632   -2.442777    0.000000
 ---------------------------------------------------------------------

 SCF Done:  E(RHF) =  -152.113198501     A.U. after   10 cycles
 E2 =    -0.5267830289D+00 EUMP2 =    -0.15263998152992D+03
 CCSD(T)
 CCSD(T)= -0.15266701141D+03

 The electronic state is 1-A'.
 Alpha  occ. eigenvalues --  -20.57679 -20.53404  -1.34962  -1.30807  -0.72372
 Alpha  occ. eigenvalues --   -0.68315  -0.58742  -0.54206  -0.52092  -0.47964
 Alpha virt. eigenvalues --    0.12185   0.17405   0.19084   0.27975   0.51292
 Alpha virt. eigenvalues --    0.54297   0.55967   0.59841   0.68971   0.73250
 Alpha virt. eigenvalues --    0.74953   0.77473   0.81099   0.83136   0.84382

 Mulliken charges:
               1
     1  O   -0.538654
     2  H    0.272221
     3  H    0.251829
     4  O   -0.506372
     5  H    0.263299
     6  H    0.257677
 Sum of Mulliken charges =  -0.00000

 Dipole moment (field-independent basis, Debye):
    X=              0.7895    Y=             -3.2849    Z=              0.0000  Tot=              3.3784
 Quadrupole moment (field-independent basis, Debye-Ang):
   XX=             -9.3623   YY=             -8.2790   ZZ=            -14.7320
   XY=              4.3999   XZ=              0.0000   YZ=              0.0000

 Normal termination of Gaussian 16 at Sun Aug 28 00:28:27 2022.
