 Gaussian 16, Revision A.03,
 Gaussian 16:  ES64L-G16RevA.03 25-Dec-2016

 ------------------
 #p CCSD(T)/cc-pVTZ
 ------------------

 ------------
 H2O_H2O_2095
 ------------
 Symbolic Z-matrix:
 Charge =  0 Multiplicity = 1

                         Standard orientation:
 ---------------------------------------------------------------------
 Center     Atomic      Atomic             Coordinates (Angstroms)
 Number     Number       Type             X           Y           Z
 ---------------------------------------------------------------------
      1          8           0        0.026706    1.936501    0.000000
      2          1           0        0.023664    0.953905    0.000000
      3          1           0       -0.901796    2.258043    0.000000
      4          8           0        0.026706   -1.763306   -0.000000
      5          1           0        0.975034   -2.020558   -0.000000
      6          1           0       -0.524194   -2.576949   -0.000000
 ---------------------------------------------------------------------

 SCF Done:  E(RHF) =  -152.112044294     A.U. after   10 cycles
 E2 =    -0.5263117397D+00 EUMP2 =    -0.15263835603337D+03
 CCSD(T)
 CCSD(T)= -0.15266542983D+03

 The electronic state is 1-A'.
 Alpha  occ. eigenvalues --  -20.57243 -20.53870  -1.34504  -1.31223  -0.71902
 Alpha  occ. eigenvalues --   -0.68649  -0.58175  -0.54693  -0.51642  -0.48377
 Alpha virt. eigenvalues --    0.12254   0.16898   0.19189   0.25850   0.52538
 Alpha virt. eigenvalues --    0.54895   0.56270   0.58832   0.68990   0.72359
 Alpha virt. eigenvalues --    0.76502   0.78263   0.80545   0.83503   0.83941

 Mulliken charges:
               1
     1  O   -0.529692
     2  H    0.267830
     3  H    0.252186
     4  O   -0.509826
     5  H    0.261359
     6  H    0.258142
 Sum of Mulliken charges =  -0.00000

 Dipole moment (field-independent basis, Debye):
    X=             -0.9074    Y=             -3.2386    Z=             -0.0000  Tot=              3.3633
 Quadrupole moment (field-independent basis, Debye-Ang):
   XX=             -9.2894   YY=             -7.9564   ZZ=            -14.7275
   XY=             -4.6965   XZ=             -0.0000   YZ=             -0.0000

 Normal termination of Gaussian 16 at Sun Aug 28 04:16:50 2022.
