 Gaussian 16, Revision A.03,
 Gaussian 16:  ES64L-G16RevA.03 25-Dec-2016

 ------------------
 #p CCSD(T)/cc-pVTZ
 ------------------

 ------------
 H2O_H2O_2763
 ------------
 Symbolic Z-matrix:
 Charge =  0 Multiplicity = 1

                         Standard orientation:
 ---------------------------------------------------------------------
 Center     Atomic      Atomic             Coordinates (Angstroms)
 Number     Number       Type             X           Y           Z
 ---------------------------------------------------------------------
      1          8           0        0.052308    2.209368   -0.000000
      2          1           0        0.050680    1.226768   -0.000000
      3          1           0       -0.876656    2.529574   -0.000000
      4          8           0        0.052308   -2.029488    0.000000
      5          1           0        0.789992   -2.678585    0.000000
      6          1           0       -0.800945   -2.516793    0.000000
 ---------------------------------------------------------------------

 SCF Done:  E(RHF) =  -152.110256248     A.U. after   10 cycles
 E2 =    -0.5260090887D+00 EUMP2 =    -0.15263626533673D+03
 CCSD(T)
 CCSD(T)= -0.15266339260D+03

 The electronic state is 1-A'.
 Alpha  occ. eigenvalues --  -20.56782 -20.54310  -1.34052  -1.31635  -0.71451
 Alpha  occ. eigenvalues --   -0.69026  -0.57613  -0.55121  -0.51184  -0.48772
 Alpha virt. eigenvalues --    0.12399   0.16156   0.19404   0.23274   0.52994
 Alpha virt. eigenvalues --    0.55582   0.56254   0.58857   0.68990   0.69524
 Alpha virt. eigenvalues --    0.77665   0.79019   0.79729   0.80058   0.83407

 Mulliken charges:
               1
     1  O   -0.520392
     2  H    0.265438
     3  H    0.250700
     4  O   -0.512596
     5  H    0.260317
     6  H    0.256533
 Sum of Mulliken charges =  -0.00000

 Dipole moment (field-independent basis, Debye):
    X=             -1.7805    Y=             -3.2652    Z=              0.0000  Tot=              3.7191
 Quadrupole moment (field-independent basis, Debye-Ang):
   XX=             -9.2272   YY=             -7.3553   ZZ=            -14.7210
   XY=             -4.3693   XZ=              0.0000   YZ=             -0.0000

 Normal termination of Gaussian 16 at Fri Aug 26 17:08:51 2022.
