 Gaussian 16, Revision A.03,
 Gaussian 16:  ES64L-G16RevA.03 25-Dec-2016

 ------------------
 #p CCSD(T)/cc-pVTZ
 ------------------

 ------------
 H2O_H2O_2587
 ------------
 Symbolic Z-matrix:
 Charge =  0 Multiplicity = 1

                         Standard orientation:
 ---------------------------------------------------------------------
 Center     Atomic      Atomic             Coordinates (Angstroms)
 Number     Number       Type             X           Y           Z
 ---------------------------------------------------------------------
      1          8           0        0.056003    2.139028    0.000000
      2          1           0        0.054472    1.156427    0.000000
      3          1           0       -0.872992    2.459142    0.000000
      4          8           0        0.056003   -1.960136   -0.000000
      5          1           0        0.749724   -2.656021   -0.000000
      6          1           0       -0.827251   -2.390680   -0.000000
 ---------------------------------------------------------------------

 SCF Done:  E(RHF) =  -152.110543609     A.U. after   10 cycles
 E2 =    -0.5260795030D+00 EUMP2 =    -0.15263662311240D+03
 CCSD(T)
 CCSD(T)= -0.15266373933D+03

 The electronic state is 1-A'.
 Alpha  occ. eigenvalues --  -20.56891 -20.54220  -1.34156  -1.31548  -0.71555
 Alpha  occ. eigenvalues --   -0.68938  -0.57732  -0.55031  -0.51289  -0.48687
 Alpha virt. eigenvalues --    0.12316   0.16307   0.19366   0.23795   0.52838
 Alpha virt. eigenvalues --    0.55649   0.56177   0.58967   0.69013   0.70239
 Alpha virt. eigenvalues --    0.77484   0.78827   0.80152   0.80425   0.83535

 Mulliken charges:
               1
     1  O   -0.521371
     2  H    0.266131
     3  H    0.249874
     4  O   -0.511094
     5  H    0.260357
     6  H    0.256102
 Sum of Mulliken charges =  -0.00000

 Dipole moment (field-independent basis, Debye):
    X=             -1.9038    Y=             -3.2682    Z=             -0.0000  Tot=              3.7823
 Quadrupole moment (field-independent basis, Debye-Ang):
   XX=             -9.2892   YY=             -7.5001   ZZ=            -14.7218
   XY=             -4.1435   XZ=             -0.0000   YZ=             -0.0000

 Normal termination of Gaussian 16 at Fri Aug 26 15:49:04 2022.
