 Gaussian 16, Revision A.03,
 Gaussian 16:  ES64L-G16RevA.03 25-Dec-2016

 ------------------
 #p CCSD(T)/cc-pVTZ
 ------------------

 ------------
 H2O_H2O_1452
 ------------
 Symbolic Z-matrix:
 Charge =  0 Multiplicity = 1

                         Standard orientation:
 ---------------------------------------------------------------------
 Center     Atomic      Atomic             Coordinates (Angstroms)
 Number     Number       Type             X           Y           Z
 ---------------------------------------------------------------------
      1          8           0        0.088237   -1.671501    0.000000
      2          1           0        0.087987   -0.688900    0.000000
      3          1           0       -0.841175   -1.990405    0.000000
      4          8           0        0.088237    1.527195    0.000000
      5          1           0        0.216244    2.501423    0.000000
      6          1           0       -0.874849    1.332332    0.000000
 ---------------------------------------------------------------------

 SCF Done:  E(RHF) =  -152.109940505     A.U. after   10 cycles
 E2 =    -0.5276631463D+00 EUMP2 =    -0.15263760365144D+03
 CCSD(T)
 CCSD(T)= -0.15266466669D+03

 The electronic state is 1-A'.
 Alpha  occ. eigenvalues --  -20.57943 -20.54049  -1.35307  -1.31429  -0.72990
 Alpha  occ. eigenvalues --   -0.68740  -0.58846  -0.54775  -0.52367  -0.48533
 Alpha virt. eigenvalues --    0.11569   0.16455   0.20201   0.28226   0.49700
 Alpha virt. eigenvalues --    0.54625   0.57810   0.58141   0.68362   0.73736
 Alpha virt. eigenvalues --    0.74642   0.77606   0.80814   0.82035   0.83500

 Mulliken charges:
               1
     1  O   -0.525613
     2  H    0.274639
     3  H    0.239233
     4  O   -0.481657
     5  H    0.248835
     6  H    0.244563
 Sum of Mulliken charges =  -0.00000

 Dipole moment (field-independent basis, Debye):
    X=             -2.9448    Y=              2.8307    Z=              0.0000  Tot=              4.0847
 Quadrupole moment (field-independent basis, Debye-Ang):
   XX=            -10.6000   YY=             -8.8778   ZZ=            -14.7144
   XY=              2.4481   XZ=              0.0000   YZ=              0.0000

 Normal termination of Gaussian 16 at Sat Aug 27 00:40:15 2022.
