 Gaussian 16, Revision A.03,
 Gaussian 16:  ES64L-G16RevA.03 25-Dec-2016

 ------------------
 #p CCSD(T)/cc-pVTZ
 ------------------

 ------------
 H2O_H2O_1088
 ------------
 Symbolic Z-matrix:
 Charge =  0 Multiplicity = 1

                         Standard orientation:
 ---------------------------------------------------------------------
 Center     Atomic      Atomic             Coordinates (Angstroms)
 Number     Number       Type             X           Y           Z
 ---------------------------------------------------------------------
      1          8           0        0.052377    1.541210   -0.000000
      2          1           0        0.049999    0.558611   -0.000000
      3          1           0       -0.876343    1.862124   -0.000000
      4          8           0        0.052377   -1.361410    0.000000
      5          1           0        0.789566   -2.011070    0.000000
      6          1           0       -0.801247   -1.848065    0.000000
 ---------------------------------------------------------------------

 SCF Done:  E(RHF) =  -152.113655110     A.U. after   10 cycles
 E2 =    -0.5283358758D+00 EUMP2 =    -0.15264199098622D+03
 CCSD(T)
 CCSD(T)= -0.15266887188D+03

 The electronic state is 1-A'.
 Alpha  occ. eigenvalues --  -20.58666 -20.51885  -1.36105  -1.29516  -0.73342
 Alpha  occ. eigenvalues --   -0.68014  -0.59652  -0.53181  -0.52607  -0.46634
 Alpha virt. eigenvalues --    0.11835   0.17831   0.19059   0.31469   0.48554
 Alpha virt. eigenvalues --    0.54741   0.56901   0.60301   0.69556   0.71566
 Alpha virt. eigenvalues --    0.72929   0.77201   0.82413   0.82511   0.84874

 Mulliken charges:
               1
     1  O   -0.560990
     2  H    0.294369
     3  H    0.239940
     4  O   -0.495578
     5  H    0.264745
     6  H    0.257515
 Sum of Mulliken charges =   0.00000

 Dipole moment (field-independent basis, Debye):
    X=             -1.7328    Y=             -3.7296    Z=              0.0000  Tot=              4.1125
 Quadrupole moment (field-independent basis, Debye-Ang):
   XX=             -9.2307   YY=             -8.6690   ZZ=            -14.7288
   XY=             -3.4026   XZ=              0.0000   YZ=             -0.0000

 Normal termination of Gaussian 16 at Fri Aug 26 22:23:16 2022.
