 Gaussian 16, Revision A.03,
 Gaussian 16:  ES64L-G16RevA.03 25-Dec-2016

 ------------------
 #p CCSD(T)/cc-pVTZ
 ------------------

 ------------
 H2O_H2O_2259
 ------------
 Symbolic Z-matrix:
 Charge =  0 Multiplicity = 1

                         Standard orientation:
 ---------------------------------------------------------------------
 Center     Atomic      Atomic             Coordinates (Angstroms)
 Number     Number       Type             X           Y           Z
 ---------------------------------------------------------------------
      1          8           0        0.066776    2.006235   -0.000000
      2          1           0        0.065618    1.023634   -0.000000
      3          1           0       -0.862341    2.325996   -0.000000
      4          8           0        0.066776   -1.833155    0.000000
      5          1           0        0.611718   -2.650800    0.000000
      6          1           0       -0.883407   -2.083472    0.000000
 ---------------------------------------------------------------------

 SCF Done:  E(RHF) =  -152.110926315     A.U. after   10 cycles
 E2 =    -0.5262883685D+00 EUMP2 =    -0.15263721468330D+03
 CCSD(T)
 CCSD(T)= -0.15266431219D+03

 The electronic state is 1-A'.
 Alpha  occ. eigenvalues --  -20.57127 -20.54105  -1.34389  -1.31440  -0.71796
 Alpha  occ. eigenvalues --   -0.68828  -0.57988  -0.54906  -0.51519  -0.48578
 Alpha virt. eigenvalues --    0.12106   0.16510   0.19365   0.24894   0.52423
 Alpha virt. eigenvalues --    0.55769   0.55978   0.58696   0.68872   0.71666
 Alpha virt. eigenvalues --    0.76932   0.78537   0.80316   0.82756   0.83537

 Mulliken charges:
               1
     1  O   -0.522426
     2  H    0.267116
     3  H    0.247642
     4  O   -0.507422
     5  H    0.260363
     6  H    0.254726
 Sum of Mulliken charges =  -0.00000

 Dipole moment (field-independent basis, Debye):
    X=             -2.2628    Y=             -3.2061    Z=              0.0000  Tot=              3.9243
 Quadrupole moment (field-independent basis, Debye-Ang):
   XX=             -9.5726   YY=             -7.8646   ZZ=            -14.7231
   XY=             -3.6169   XZ=              0.0000   YZ=             -0.0000

 Normal termination of Gaussian 16 at Sun Aug 28 05:49:49 2022.
