 Gaussian 16, Revision A.03,
 Gaussian 16:  ES64L-G16RevA.03 25-Dec-2016

 ------------------
 #p CCSD(T)/cc-pVTZ
 ------------------

 ------------
 H2O_H2O_1007
 ------------
 Symbolic Z-matrix:
 Charge =  0 Multiplicity = 1

                         Standard orientation:
 ---------------------------------------------------------------------
 Center     Atomic      Atomic             Coordinates (Angstroms)
 Number     Number       Type             X           Y           Z
 ---------------------------------------------------------------------
      1          8           0        0.073572    1.504270   -0.000000
      2          1           0        0.072413    0.521669   -0.000000
      3          1           0       -0.855544    1.824033   -0.000000
      4          8           0        0.073572   -1.337393    0.000000
      5          1           0        0.507126   -2.219174    0.000000
      6          1           0       -0.901155   -1.461543    0.000000
 ---------------------------------------------------------------------

 SCF Done:  E(RHF) =  -152.111188713     A.U. after   10 cycles
 E2 =    -0.5289336314D+00 EUMP2 =    -0.15264012234410D+03
 CCSD(T)
 CCSD(T)= -0.15266699532D+03

 The electronic state is 1-A'.
 Alpha  occ. eigenvalues --  -20.58785 -20.52211  -1.36331  -1.29840  -0.73842
 Alpha  occ. eigenvalues --   -0.68158  -0.59638  -0.53339  -0.52913  -0.46929
 Alpha virt. eigenvalues --    0.11620   0.17062   0.19706   0.31431   0.48307
 Alpha virt. eigenvalues --    0.54477   0.58877   0.59409   0.69662   0.72599
 Alpha virt. eigenvalues --    0.74236   0.76761   0.81583   0.82432   0.84149

 Mulliken charges:
               1
     1  O   -0.554947
     2  H    0.292750
     3  H    0.234039
     4  O   -0.466850
     5  H    0.246773
     6  H    0.248234
 Sum of Mulliken charges =  -0.00000

 Dipole moment (field-independent basis, Debye):
    X=             -2.4224    Y=             -3.5061    Z=              0.0000  Tot=              4.2616
 Quadrupole moment (field-independent basis, Debye-Ang):
   XX=             -9.8445   YY=             -8.8027   ZZ=            -14.7135
   XY=             -2.9743   XZ=              0.0000   YZ=             -0.0000

 Normal termination of Gaussian 16 at Fri Aug 26 21:52:20 2022.
