 Gaussian 16, Revision A.03,
 Gaussian 16:  ES64L-G16RevA.03 25-Dec-2016

 ------------------
 #p CCSD(T)/cc-pVTZ
 ------------------

 ------------
 H2O_H2O_3846
 ------------
 Symbolic Z-matrix:
 Charge =  0 Multiplicity = 1

                         Standard orientation:
 ---------------------------------------------------------------------
 Center     Atomic      Atomic             Coordinates (Angstroms)
 Number     Number       Type             X           Y           Z
 ---------------------------------------------------------------------
      1          8           0       -0.023184    2.633015    0.000000
      2          1           0       -0.020861    1.650416    0.000000
      3          1           0        0.905553    2.953878    0.000000
      4          8           0       -0.023184   -2.462615    0.000000
      5          1           0       -0.986450   -2.656588    0.000000
      6          1           0        0.472702   -3.310909    0.000000
 ---------------------------------------------------------------------

 SCF Done:  E(RHF) =  -152.108900947     A.U. after   10 cycles
 E2 =    -0.5258170727D+00 EUMP2 =    -0.15263471801950D+03
 CCSD(T)
 CCSD(T)= -0.15266189899D+03

 The electronic state is 1-A'.
 Alpha  occ. eigenvalues --  -20.56324 -20.54849  -1.33622  -1.32160  -0.71026
 Alpha  occ. eigenvalues --   -0.69565  -0.57132  -0.55641  -0.50744  -0.49289
 Alpha virt. eigenvalues --    0.12871   0.15289   0.19436   0.21646   0.53325
 Alpha virt. eigenvalues --    0.55123   0.56590   0.57869   0.66710   0.69126
 Alpha virt. eigenvalues --    0.78151   0.78960   0.79558   0.80356   0.82862

 Mulliken charges:
               1
     1  O   -0.516137
     2  H    0.261227
     3  H    0.254314
     4  O   -0.516080
     5  H    0.258228
     6  H    0.258447
 Sum of Mulliken charges =  -0.00000

 Dipole moment (field-independent basis, Debye):
    X=              0.7949    Y=             -3.0128    Z=              0.0000  Tot=              3.1159
 Quadrupole moment (field-independent basis, Debye-Ang):
   XX=             -9.3614   YY=             -7.1222   ZZ=            -14.7165
   XY=              6.4949   XZ=              0.0000   YZ=              0.0000

 Normal termination of Gaussian 16 at Sat Aug 27 00:03:25 2022.
