 Gaussian 16, Revision A.03,
 Gaussian 16:  ES64L-G16RevA.03 25-Dec-2016

 ------------------
 #p CCSD(T)/cc-pVTZ
 ------------------

 ------------
 H2O_H2O_4059
 ------------
 Symbolic Z-matrix:
 Charge =  0 Multiplicity = 1

                         Standard orientation:
 ---------------------------------------------------------------------
 Center     Atomic      Atomic             Coordinates (Angstroms)
 Number     Number       Type             X           Y           Z
 ---------------------------------------------------------------------
      1          8           0        0.066748    2.724235    0.000000
      2          1           0        0.065905    1.741634    0.000000
      3          1           0       -0.862471    3.043699   -0.000000
      4          8           0        0.066748   -2.551112    0.000000
      5          1           0        0.611952   -3.368583    0.000000
      6          1           0       -0.883355   -2.801734   -0.000000
 ---------------------------------------------------------------------

 SCF Done:  E(RHF) =  -152.108449249     A.U. after   10 cycles
 E2 =    -0.5258405925D+00 EUMP2 =    -0.15263428984152D+03
 CCSD(T)
 CCSD(T)= -0.15266148207D+03

 The electronic state is 1-A'.
 Alpha  occ. eigenvalues --  -20.56284 -20.54912  -1.33583  -1.32220  -0.70991
 Alpha  occ. eigenvalues --   -0.69616  -0.57076  -0.55689  -0.50701  -0.49342
 Alpha virt. eigenvalues --    0.13005   0.15105   0.19538   0.21310   0.53426
 Alpha virt. eigenvalues --    0.54949   0.56562   0.57840   0.66693   0.69002
 Alpha virt. eigenvalues --    0.78193   0.79163   0.79512   0.80245   0.82776

 Mulliken charges:
               1
     1  O   -0.513451
     2  H    0.260911
     3  H    0.252171
     4  O   -0.514227
     5  H    0.259220
     6  H    0.255377
 Sum of Mulliken charges =  -0.00000

 Dipole moment (field-independent basis, Debye):
    X=             -2.2859    Y=             -3.0533    Z=             -0.0000  Tot=              3.8141
 Quadrupole moment (field-independent basis, Debye-Ang):
   XX=             -9.5610   YY=             -6.8833   ZZ=            -14.7149
   XY=             -4.2730   XZ=             -0.0000   YZ=             -0.0000

 Normal termination of Gaussian 16 at Sat Aug 27 23:03:39 2022.
