 Gaussian 16, Revision A.03,
 Gaussian 16:  ES64L-G16RevA.03 25-Dec-2016

 ------------------
 #p CCSD(T)/cc-pVTZ
 ------------------

 ------------
 H2O_H2O_2553
 ------------
 Symbolic Z-matrix:
 Charge =  0 Multiplicity = 1

                         Standard orientation:
 ---------------------------------------------------------------------
 Center     Atomic      Atomic             Coordinates (Angstroms)
 Number     Number       Type             X           Y           Z
 ---------------------------------------------------------------------
      1          8           0        0.085603   -2.113137    0.000000
      2          1           0        0.085297   -1.130535    0.000000
      3          1           0       -0.843790   -2.432093    0.000000
      4          8           0        0.085603    1.963545    0.000000
      5          1           0        0.276999    2.927326    0.000000
      6          1           0       -0.888159    1.832033    0.000000
 ---------------------------------------------------------------------

 SCF Done:  E(RHF) =  -152.109118942     A.U. after   10 cycles
 E2 =    -0.5262178425D+00 EUMP2 =    -0.15263533678484D+03
 CCSD(T)
 CCSD(T)= -0.15266248216D+03

 The electronic state is 1-A'.
 Alpha  occ. eigenvalues --  -20.56896 -20.54748  -1.34180  -1.32059  -0.71619
 Alpha  occ. eigenvalues --   -0.69429  -0.57685  -0.55515  -0.51294  -0.49180
 Alpha virt. eigenvalues --    0.11729   0.15956   0.19621   0.23823   0.53760
 Alpha virt. eigenvalues --    0.55394   0.56450   0.58101   0.68628   0.70464
 Alpha virt. eigenvalues --    0.77428   0.79113   0.79722   0.80548   0.83071

 Mulliken charges:
               1
     1  O   -0.514863
     2  H    0.263534
     3  H    0.247700
     4  O   -0.506533
     5  H    0.259335
     6  H    0.250826
 Sum of Mulliken charges =  -0.00000

 Dipole moment (field-independent basis, Debye):
    X=             -2.9056    Y=              2.7261    Z=              0.0000  Tot=              3.9842
 Quadrupole moment (field-independent basis, Debye-Ang):
   XX=            -10.4164   YY=             -8.5073   ZZ=            -14.7163
   XY=              2.7350   XZ=              0.0000   YZ=              0.0000

 Normal termination of Gaussian 16 at Fri Aug 26 15:34:15 2022.
