 Gaussian 16, Revision A.03,
 Gaussian 16:  ES64L-G16RevA.03 25-Dec-2016

 ------------------
 #p CCSD(T)/cc-pVTZ
 ------------------

 ------------
 H2O_H2O_1537
 ------------
 Symbolic Z-matrix:
 Charge =  0 Multiplicity = 1

                         Standard orientation:
 ---------------------------------------------------------------------
 Center     Atomic      Atomic             Coordinates (Angstroms)
 Number     Number       Type             X           Y           Z
 ---------------------------------------------------------------------
      1          8           0        0.056039    1.720185   -0.000000
      2          1           0        0.054115    0.737585   -0.000000
      3          1           0       -0.872829    2.040670   -0.000000
      4          8           0        0.056039   -1.541338    0.000000
      5          1           0        0.749481   -2.237500    0.000000
      6          1           0       -0.827388   -1.971529    0.000000
 ---------------------------------------------------------------------

 SCF Done:  E(RHF) =  -152.113480053     A.U. after   10 cycles
 E2 =    -0.5271026769D+00 EUMP2 =    -0.15264058272973D+03
 CCSD(T)
 CCSD(T)= -0.15266759037D+03

 The electronic state is 1-A'.
 Alpha  occ. eigenvalues --  -20.57906 -20.53059  -1.35186  -1.30489  -0.72542
 Alpha  occ. eigenvalues --   -0.68092  -0.58972  -0.53845  -0.52315  -0.47635
 Alpha virt. eigenvalues --    0.12016   0.17389   0.19103   0.28712   0.49833
 Alpha virt. eigenvalues --    0.54896   0.56323   0.59241   0.69292   0.72235
 Alpha virt. eigenvalues --    0.74470   0.76753   0.81415   0.83039   0.84686

 Mulliken charges:
               1
     1  O   -0.538494
     2  H    0.277019
     3  H    0.244555
     4  O   -0.504831
     5  H    0.264231
     6  H    0.257522
 Sum of Mulliken charges =   0.00000

 Dipole moment (field-independent basis, Debye):
    X=             -1.8787    Y=             -3.4928    Z=              0.0000  Tot=              3.9660
 Quadrupole moment (field-independent basis, Debye-Ang):
   XX=             -9.2970   YY=             -8.2520   ZZ=            -14.7336
   XY=             -3.5984   XZ=              0.0000   YZ=              0.0000

 Normal termination of Gaussian 16 at Sat Aug 27 22:58:26 2022.
