 Gaussian 16, Revision A.03,
 Gaussian 16:  ES64L-G16RevA.03 25-Dec-2016

 ------------------
 #p CCSD(T)/cc-pVTZ
 ------------------

 ------------
 H2O_H2O_2802
 ------------
 Symbolic Z-matrix:
 Charge =  0 Multiplicity = 1

                         Standard orientation:
 ---------------------------------------------------------------------
 Center     Atomic      Atomic             Coordinates (Angstroms)
 Number     Number       Type             X           Y           Z
 ---------------------------------------------------------------------
      1          8           0        0.088232   -2.209991    0.000000
      2          1           0        0.088045   -1.227390    0.000000
      3          1           0       -0.841200   -2.528835    0.000000
      4          8           0        0.088232    2.065673    0.000000
      5          1           0        0.216302    3.039894    0.000000
      6          1           0       -0.874866    1.870873    0.000000
 ---------------------------------------------------------------------

 SCF Done:  E(RHF) =  -152.108613578     A.U. after   10 cycles
 E2 =    -0.5261229450D+00 EUMP2 =    -0.15263473652313D+03
 CCSD(T)
 CCSD(T)= -0.15266190156D+03

 The electronic state is 1-A'.
 Alpha  occ. eigenvalues --  -20.56750 -20.54929  -1.34040  -1.32235  -0.71474
 Alpha  occ. eigenvalues --   -0.69610  -0.57525  -0.55691  -0.51151  -0.49353
 Alpha virt. eigenvalues --    0.11677   0.15750   0.19524   0.23348   0.54257
 Alpha virt. eigenvalues --    0.54910   0.56459   0.58175   0.68479   0.69345
 Alpha virt. eigenvalues --    0.77693   0.78659   0.79529   0.80807   0.82827

 Mulliken charges:
               1
     1  O   -0.512808
     2  H    0.261897
     3  H    0.248619
     4  O   -0.507892
     5  H    0.259586
     6  H    0.250599
 Sum of Mulliken charges =  -0.00000

 Dipole moment (field-independent basis, Debye):
    X=             -3.0005    Y=              2.6060    Z=              0.0000  Tot=              3.9742
 Quadrupole moment (field-independent basis, Debye-Ang):
   XX=            -10.5655   YY=             -8.6840   ZZ=            -14.7147
   XY=              2.5621   XZ=              0.0000   YZ=              0.0000

 Normal termination of Gaussian 16 at Fri Aug 26 17:25:24 2022.
