 Gaussian 16, Revision A.03,
 Gaussian 16:  ES64L-G16RevA.03 25-Dec-2016

 ------------------
 #p CCSD(T)/cc-pVTZ
 ------------------

 ------------
 H2O_H2O_3600
 ------------
 Symbolic Z-matrix:
 Charge =  0 Multiplicity = 1

                         Standard orientation:
 ---------------------------------------------------------------------
 Center     Atomic      Atomic             Coordinates (Angstroms)
 Number     Number       Type             X           Y           Z
 ---------------------------------------------------------------------
      1          8           0        0.092949   -2.522830    0.000000
      2          1           0        0.092949   -1.540228    0.000000
      3          1           0       -0.836544   -2.841496    0.000000
      4          8           0        0.092949    2.390043    0.000000
      5          1           0        0.092950    3.372645    0.000000
      6          1           0       -0.836544    2.071376    0.000000
 ---------------------------------------------------------------------

 SCF Done:  E(RHF) =  -152.107792382     A.U. after   10 cycles
 E2 =    -0.5259518915D+00 EUMP2 =    -0.15263374427328D+03
 CCSD(T)
 CCSD(T)= -0.15266094719D+03

 The electronic state is 1-A'.
 Alpha  occ. eigenvalues --  -20.56426 -20.55254  -1.33725  -1.32555  -0.71148
 Alpha  occ. eigenvalues --   -0.69945  -0.57187  -0.56006  -0.50834  -0.49667
 Alpha virt. eigenvalues --    0.11833   0.15217   0.18957   0.22689   0.53353
 Alpha virt. eigenvalues --    0.54890   0.56469   0.57928   0.66917   0.68807
 Alpha virt. eigenvalues --    0.78071   0.78795   0.79206   0.81382   0.82404

 Mulliken charges:
               1
     1  O   -0.509605
     2  H    0.258340
     3  H    0.250804
     4  O   -0.510061
     5  H    0.259435
     6  H    0.251087
 Sum of Mulliken charges =  -0.00000

 Dipole moment (field-independent basis, Debye):
    X=             -3.1765    Y=              2.3536    Z=              0.0000  Tot=              3.9535
 Quadrupole moment (field-independent basis, Debye-Ang):
   XX=            -10.8509   YY=             -9.2508   ZZ=            -14.7120
   XY=              2.1526   XZ=              0.0000   YZ=              0.0000

 Normal termination of Gaussian 16 at Fri Aug 26 22:36:49 2022.
