 Gaussian 16, Revision A.03,
 Gaussian 16:  ES64L-G16RevA.03 25-Dec-2016

 ------------------
 #p CCSD(T)/cc-pVTZ
 ------------------

 ------------
 H2O_H2O_1210
 ------------
 Symbolic Z-matrix:
 Charge =  0 Multiplicity = 1

                         Standard orientation:
 ---------------------------------------------------------------------
 Center     Atomic      Atomic             Coordinates (Angstroms)
 Number     Number       Type             X           Y           Z
 ---------------------------------------------------------------------
      1          8           0        0.063287    1.588695    0.000000
      2          1           0        0.061606    0.606095    0.000000
      3          1           0       -0.865660    1.908951    0.000000
      4          8           0        0.063287   -1.413261   -0.000000
      5          1           0        0.660123   -2.193833   -0.000000
      6          1           0       -0.868656   -1.724691   -0.000000
 ---------------------------------------------------------------------

 SCF Done:  E(RHF) =  -152.113282441     A.U. after   10 cycles
 E2 =    -0.5279909776D+00 EUMP2 =    -0.15264127341904D+03
 CCSD(T)
 CCSD(T)= -0.15266821019D+03

 The electronic state is 1-A'.
 Alpha  occ. eigenvalues --  -20.58417 -20.52464  -1.35800  -1.30001  -0.73148
 Alpha  occ. eigenvalues --   -0.68011  -0.59464  -0.53202  -0.52887  -0.47124
 Alpha virt. eigenvalues --    0.11822   0.17410   0.19280   0.30568   0.48715
 Alpha virt. eigenvalues --    0.54857   0.57278   0.59392   0.69795   0.72654
 Alpha virt. eigenvalues --    0.73235   0.76674   0.82013   0.82538   0.84650

 Mulliken charges:
               1
     1  O   -0.549493
     2  H    0.287775
     3  H    0.239519
     4  O   -0.493155
     5  H    0.260071
     6  H    0.255284
 Sum of Mulliken charges =  -0.00000

 Dipole moment (field-independent basis, Debye):
    X=             -2.1017    Y=             -3.5648    Z=             -0.0000  Tot=              4.1382
 Quadrupole moment (field-independent basis, Debye-Ang):
   XX=             -9.4738   YY=             -8.5663   ZZ=            -14.7287
   XY=             -3.2923   XZ=             -0.0000   YZ=              0.0000

 Normal termination of Gaussian 16 at Fri Aug 26 23:08:42 2022.
