 Gaussian 16, Revision A.03,
 Gaussian 16:  ES64L-G16RevA.03 25-Dec-2016

 ------------------
 #p CCSD(T)/cc-pVTZ
 ------------------

 ------------
 H2O_H2O_4869
 ------------
 Symbolic Z-matrix:
 Charge =  0 Multiplicity = 1

                         Standard orientation:
 ---------------------------------------------------------------------
 Center     Atomic      Atomic             Coordinates (Angstroms)
 Number     Number       Type             X           Y           Z
 ---------------------------------------------------------------------
      1          8           0        0.030140    3.044708   -0.000000
      2          1           0        0.028338    2.062108   -0.000000
      3          1           0       -0.898768    3.365078   -0.000000
      4          8           0        0.030140   -2.869067    0.000000
      5          1           0        0.960014   -3.186619    0.000000
      6          1           0       -0.571817   -3.645698    0.000000
 ---------------------------------------------------------------------

 SCF Done:  E(RHF) =  -152.108315439     A.U. after   10 cycles
 E2 =    -0.5258004993D+00 EUMP2 =    -0.15263411593832D+03
 CCSD(T)
 CCSD(T)= -0.15266131718D+03

 The electronic state is 1-A'.
 Alpha  occ. eigenvalues --  -20.56122 -20.55042  -1.33425  -1.32348  -0.70829
 Alpha  occ. eigenvalues --   -0.69753  -0.56914  -0.55819  -0.50543  -0.49471
 Alpha virt. eigenvalues --    0.13501   0.14788   0.19703   0.20935   0.53687
 Alpha virt. eigenvalues --    0.54808   0.56717   0.57761   0.67028   0.68519
 Alpha virt. eigenvalues --    0.78340   0.79389   0.79715   0.80547   0.82225

 Mulliken charges:
               1
     1  O   -0.513667
     2  H    0.259455
     3  H    0.254168
     4  O   -0.514214
     5  H    0.257306
     6  H    0.256951
 Sum of Mulliken charges =  -0.00000

 Dipole moment (field-independent basis, Debye):
    X=             -1.0350    Y=             -3.0740    Z=              0.0000  Tot=              3.2436
 Quadrupole moment (field-independent basis, Debye-Ang):
   XX=             -9.2308   YY=             -6.2683   ZZ=            -14.7145
   XY=             -6.9892   XZ=              0.0000   YZ=             -0.0000

 Normal termination of Gaussian 16 at Sun Aug 28 06:30:31 2022.
