 Gaussian 16, Revision A.03,
 Gaussian 16:  ES64L-G16RevA.03 25-Dec-2016

 ------------------
 #p CCSD(T)/cc-pVTZ
 ------------------

 ------------
 H2O_H2O_1195
 ------------
 Symbolic Z-matrix:
 Charge =  0 Multiplicity = 1

                         Standard orientation:
 ---------------------------------------------------------------------
 Center     Atomic      Atomic             Coordinates (Angstroms)
 Number     Number       Type             X           Y           Z
 ---------------------------------------------------------------------
      1          8           0        0.026770    1.577494    0.000000
      2          1           0        0.022997    0.594900    0.000000
      3          1           0       -0.901492    1.899728   -0.000000
      4          8           0        0.026770   -1.404338    0.000000
      5          1           0        0.974907   -1.662298    0.000000
      6          1           0       -0.524736   -2.217571   -0.000000
 ---------------------------------------------------------------------

 SCF Done:  E(RHF) =  -152.113888718     A.U. after   10 cycles
 E2 =    -0.5278798430D+00 EUMP2 =    -0.15264176856057D+03
 CCSD(T)
 CCSD(T)= -0.15266869253D+03

 The electronic state is 1-A'.
 Alpha  occ. eigenvalues --  -20.58406 -20.52322  -1.35810  -1.29887  -0.73190
 Alpha  occ. eigenvalues --   -0.67915  -0.59585  -0.53054  -0.52899  -0.47027
 Alpha virt. eigenvalues --    0.12034   0.18153   0.18776   0.30888   0.49420
 Alpha virt. eigenvalues --    0.54590   0.55860   0.61786   0.68539   0.72914
 Alpha virt. eigenvalues --    0.73161   0.77075   0.82074   0.82516   0.84560

 Mulliken charges:
               1
     1  O   -0.558895
     2  H    0.286401
     3  H    0.248205
     4  O   -0.493331
     5  H    0.264944
     6  H    0.252676
 Sum of Mulliken charges =  -0.00000

 Dipole moment (field-independent basis, Debye):
    X=             -0.8960    Y=             -3.5360    Z=             -0.0000  Tot=              3.6477
 Quadrupole moment (field-independent basis, Debye-Ang):
   XX=             -9.2836   YY=             -8.6081   ZZ=            -14.7301
   XY=             -3.8584   XZ=             -0.0000   YZ=             -0.0000

 CCSD(T)=-152.6686925\RMSD=6.601e-09\PG=CS [SG(H4O2)]\\@
 Normal termination of Gaussian 16 at Fri Aug 26 23:03:18 2022.
