 Gaussian 16, Revision A.03,
 Gaussian 16:  ES64L-G16RevA.03 25-Dec-2016

 ------------------
 #p CCSD(T)/cc-pVTZ
 ------------------

 ------------
 H2O_H2O_3678
 ------------
 Symbolic Z-matrix:
 Charge =  0 Multiplicity = 1

                         Standard orientation:
 ---------------------------------------------------------------------
 Center     Atomic      Atomic             Coordinates (Angstroms)
 Number     Number       Type             X           Y           Z
 ---------------------------------------------------------------------
      1          8           0        0.085599   -2.561878    0.000000
      2          1           0        0.085348   -1.579277    0.000000
      3          1           0       -0.843813   -2.880782    0.000000
      4          8           0        0.085599    2.412277    0.000000
      5          1           0        0.277050    3.376048    0.000000
      6          1           0       -0.888169    2.280820    0.000000
 ---------------------------------------------------------------------

 SCF Done:  E(RHF) =  -152.108140131     A.U. after   10 cycles
 E2 =    -0.5259124654D+00 EUMP2 =    -0.15263405259607D+03
 CCSD(T)
 CCSD(T)= -0.15266124721D+03

 The electronic state is 1-A'.
 Alpha  occ. eigenvalues --  -20.56397 -20.55076  -1.33695  -1.32381  -0.71112
 Alpha  occ. eigenvalues --   -0.69772  -0.57170  -0.55840  -0.50808  -0.49497
 Alpha virt. eigenvalues --    0.12267   0.15231   0.19160   0.22069   0.53250
 Alpha virt. eigenvalues --    0.55025   0.56464   0.57980   0.66816   0.68996
 Alpha virt. eigenvalues --    0.78095   0.78784   0.79365   0.81093   0.82586

 Mulliken charges:
               1
     1  O   -0.511291
     2  H    0.259661
     3  H    0.251039
     4  O   -0.511788
     5  H    0.259556
     6  H    0.252823
 Sum of Mulliken charges =   0.00000

 Dipole moment (field-independent basis, Debye):
    X=             -2.9266    Y=              2.6505    Z=              0.0000  Tot=              3.9485
 Quadrupole moment (field-independent basis, Debye-Ang):
   XX=            -10.4015   YY=             -8.2908   ZZ=            -14.7136
   XY=              2.8547   XZ=              0.0000   YZ=              0.0000

 CCSD(T)=-152.6612472\RMSD=7.230e-09\PG=CS [SG(H4O2)]\\@
 Normal termination of Gaussian 16 at Fri Aug 26 23:03:59 2022.
