 Gaussian 16, Revision A.03,
 Gaussian 16:  ES64L-G16RevA.03 25-Dec-2016

 ------------------
 #p CCSD(T)/cc-pVTZ
 ------------------

 ------------
 H2O_H2O_3099
 ------------
 Symbolic Z-matrix:
 Charge =  0 Multiplicity = 1

                         Standard orientation:
 ---------------------------------------------------------------------
 Center     Atomic      Atomic             Coordinates (Angstroms)
 Number     Number       Type             X           Y           Z
 ---------------------------------------------------------------------
      1          8           0       -0.013521    2.327810    0.000000
      2          1           0       -0.010523    1.345213    0.000000
      3          1           0        0.914995    2.649311    0.000000
      4          8           0       -0.013521   -2.168549    0.000000
      5          1           0       -0.996118   -2.171547    0.000000
      6          1           0        0.307981   -3.097066    0.000000
 ---------------------------------------------------------------------

 SCF Done:  E(RHF) =  -152.109574469     A.U. after   10 cycles
 E2 =    -0.5259031624D+00 EUMP2 =    -0.15263547763104D+03
 CCSD(T)
 CCSD(T)= -0.15266263195D+03

 The electronic state is 1-A'.
 Alpha  occ. eigenvalues --  -20.56576 -20.54721  -1.33867  -1.32038  -0.71277
 Alpha  occ. eigenvalues --   -0.69446  -0.57397  -0.55527  -0.50992  -0.49173
 Alpha virt. eigenvalues --    0.12262   0.15807   0.19209   0.23000   0.53710
 Alpha virt. eigenvalues --    0.55542   0.56425   0.58160   0.67779   0.69330
 Alpha virt. eigenvalues --    0.77899   0.78669   0.79667   0.80748   0.83074

 Mulliken charges:
               1
     1  O   -0.519216
     2  H    0.262139
     3  H    0.255005
     4  O   -0.515198
     5  H    0.258154
     6  H    0.259117
 Sum of Mulliken charges =   0.00000

 Dipole moment (field-independent basis, Debye):
    X=              0.4660    Y=             -2.8551    Z=              0.0000  Tot=              2.8929
 Quadrupole moment (field-independent basis, Debye-Ang):
   XX=             -9.6481   YY=             -7.9519   ZZ=            -14.7186
   XY=              6.2931   XZ=              0.0000   YZ=              0.0000

 Normal termination of Gaussian 16 at Fri Aug 26 19:45:47 2022.
