 Gaussian 16, Revision A.03,
 Gaussian 16:  ES64L-G16RevA.03 25-Dec-2016

 ------------------
 #p CCSD(T)/cc-pVTZ
 ------------------

 ------------
 H2O_H2O_3788
 ------------
 Symbolic Z-matrix:
 Charge =  0 Multiplicity = 1

                         Standard orientation:
 ---------------------------------------------------------------------
 Center     Atomic      Atomic             Coordinates (Angstroms)
 Number     Number       Type             X           Y           Z
 ---------------------------------------------------------------------
      1          8           0        0.052284    2.618231    0.000000
      2          1           0        0.050919    1.635630    0.000000
      3          1           0       -0.876766    2.938188   -0.000000
      4          8           0        0.052284   -2.438323    0.000000
      5          1           0        0.790142   -3.087222    0.000000
      6          1           0       -0.800838   -2.925856   -0.000000
 ---------------------------------------------------------------------

 SCF Done:  E(RHF) =  -152.108864653     A.U. after   10 cycles
 E2 =    -0.5258383466D+00 EUMP2 =    -0.15263470299938D+03
 CCSD(T)
 CCSD(T)= -0.15266188247D+03

 The electronic state is 1-A'.
 Alpha  occ. eigenvalues --  -20.56352 -20.54758  -1.33646  -1.32070  -0.71050
 Alpha  occ. eigenvalues --   -0.69467  -0.57155  -0.55547  -0.50768  -0.49197
 Alpha virt. eigenvalues --    0.12937   0.15322   0.19603   0.21481   0.53495
 Alpha virt. eigenvalues --    0.54960   0.56538   0.57889   0.66740   0.69217
 Alpha virt. eigenvalues --    0.78130   0.79244   0.79622   0.79648   0.82942

 Mulliken charges:
               1
     1  O   -0.515362
     2  H    0.262131
     3  H    0.252493
     4  O   -0.515404
     5  H    0.259444
     6  H    0.256698
 Sum of Mulliken charges =  -0.00000

 Dipole moment (field-independent basis, Debye):
    X=             -1.7890    Y=             -3.1857    Z=             -0.0000  Tot=              3.6537
 Quadrupole moment (field-independent basis, Debye-Ang):
   XX=             -9.2254   YY=             -6.7019   ZZ=            -14.7164
   XY=             -4.9461   XZ=              0.0000   YZ=             -0.0000

 Normal termination of Gaussian 16 at Fri Aug 26 23:40:36 2022.
