 Gaussian 16, Revision A.03,
 Gaussian 16:  ES64L-G16RevA.03 25-Dec-2016

 ------------------
 #p CCSD(T)/cc-pVTZ
 ------------------

 ------------
 H2O_H2O_3121
 ------------
 Symbolic Z-matrix:
 Charge =  0 Multiplicity = 1

                         Standard orientation:
 ---------------------------------------------------------------------
 Center     Atomic      Atomic             Coordinates (Angstroms)
 Number     Number       Type             X           Y           Z
 ---------------------------------------------------------------------
      1          8           0       -0.023210    2.343823    0.000000
      2          1           0       -0.020589    1.361225    0.000000
      3          1           0        0.905430    2.664967    0.000000
      4          8           0       -0.023210   -2.173436    0.000000
      5          1           0       -0.986417   -2.367701    0.000000
      6          1           0        0.472933   -3.021581    0.000000
 ---------------------------------------------------------------------

 SCF Done:  E(RHF) =  -152.109721092     A.U. after   10 cycles
 E2 =    -0.5258973612D+00 EUMP2 =    -0.15263561845364D+03
 CCSD(T)
 CCSD(T)= -0.15266276803D+03

 The electronic state is 1-A'.
 Alpha  occ. eigenvalues --  -20.56578 -20.54592  -1.33864  -1.31911  -0.71267
 Alpha  occ. eigenvalues --   -0.69315  -0.57402  -0.55401  -0.50991  -0.49047
 Alpha virt. eigenvalues --    0.12446   0.15834   0.19349   0.22659   0.53464
 Alpha virt. eigenvalues --    0.55483   0.56463   0.58250   0.67817   0.69348
 Alpha virt. eigenvalues --    0.77905   0.78803   0.79786   0.80192   0.83129

 Mulliken charges:
               1
     1  O   -0.519398
     2  H    0.263150
     3  H    0.253961
     4  O   -0.515417
     5  H    0.259095
     6  H    0.258609
 Sum of Mulliken charges =  -0.00000

 Dipole moment (field-independent basis, Debye):
    X=              0.7941    Y=             -3.0563    Z=              0.0000  Tot=              3.1578
 Quadrupole moment (field-independent basis, Debye-Ang):
   XX=             -9.3612   YY=             -7.4848   ZZ=            -14.7193
   XY=              5.7986   XZ=              0.0000   YZ=              0.0000

 CCSD(T)=-152.662768\RMSD=6.873e-09\PG=CS [SG(H4O2)]\\@
 Normal termination of Gaussian 16 at Fri Aug 26 19:53:04 2022.
