 Gaussian 16, Revision A.03,
 Gaussian 16:  ES64L-G16RevA.03 25-Dec-2016

 ------------------
 #p CCSD(T)/cc-pVTZ
 ------------------

 ------------
 H2O_H2O_1590
 ------------
 Symbolic Z-matrix:
 Charge =  0 Multiplicity = 1

                         Standard orientation:
 ---------------------------------------------------------------------
 Center     Atomic      Atomic             Coordinates (Angstroms)
 Number     Number       Type             X           Y           Z
 ---------------------------------------------------------------------
      1          8           0        0.044920    1.740941   -0.000000
      2          1           0        0.042447    0.758343   -0.000000
      3          1           0       -0.883769    2.061946   -0.000000
      4          8           0        0.044920   -1.560603    0.000000
      5          1           0        0.860547   -2.108561    0.000000
      6          1           0       -0.737938   -2.154437    0.000000
 ---------------------------------------------------------------------

 SCF Done:  E(RHF) =  -152.113692671     A.U. after   10 cycles
 E2 =    -0.5269586654D+00 EUMP2 =    -0.15264065133615D+03
 CCSD(T)
 CCSD(T)= -0.15266766285D+03

 The electronic state is 1-A'.
 Alpha  occ. eigenvalues --  -20.57832 -20.53075  -1.35103  -1.30498  -0.72451
 Alpha  occ. eigenvalues --   -0.68083  -0.58910  -0.53872  -0.52238  -0.47651
 Alpha virt. eigenvalues --    0.12105   0.17517   0.18995   0.28502   0.50309
 Alpha virt. eigenvalues --    0.54591   0.56183   0.59485   0.69003   0.72097
 Alpha virt. eigenvalues --    0.74689   0.76862   0.81371   0.83121   0.84767

 Mulliken charges:
               1
     1  O   -0.539439
     2  H    0.275817
     3  H    0.246939
     4  O   -0.506991
     5  H    0.264796
     6  H    0.258877
 Sum of Mulliken charges =   0.00000

 Dipole moment (field-independent basis, Debye):
    X=             -1.5089    Y=             -3.5057    Z=             -0.0000  Tot=              3.8167
 Quadrupole moment (field-independent basis, Debye-Ang):
   XX=             -9.1613   YY=             -8.1914   ZZ=            -14.7347
   XY=             -3.8458   XZ=              0.0000   YZ=             -0.0000

 Normal termination of Gaussian 16 at Sat Aug 27 23:31:33 2022.
