 Gaussian 16, Revision A.03,
 Gaussian 16:  ES64L-G16RevA.03 25-Dec-2016

 ------------------
 #p CCSD(T)/cc-pVTZ
 ------------------

 ------------
 H2O_H2O_4257
 ------------
 Symbolic Z-matrix:
 Charge =  0 Multiplicity = 1

                         Standard orientation:
 ---------------------------------------------------------------------
 Center     Atomic      Atomic             Coordinates (Angstroms)
 Number     Number       Type             X           Y           Z
 ---------------------------------------------------------------------
      1          8           0        0.073525    2.800662    0.000000
      2          1           0        0.072919    1.818061    0.000000
      3          1           0       -0.855771    3.119902   -0.000000
      4          8           0        0.073525   -2.633702    0.000000
      5          1           0        0.507576   -3.515239    0.000000
      6          1           0       -0.901132   -2.758401   -0.000000
 ---------------------------------------------------------------------

 SCF Done:  E(RHF) =  -152.108215071     A.U. after   10 cycles
 E2 =    -0.5258428005D+00 EUMP2 =    -0.15263405787101D+03
 CCSD(T)
 CCSD(T)= -0.15266125733D+03

 The electronic state is 1-A'.
 Alpha  occ. eigenvalues --  -20.56243 -20.55017  -1.33544  -1.32324  -0.70953
 Alpha  occ. eigenvalues --   -0.69720  -0.57026  -0.55788  -0.50659  -0.49443
 Alpha virt. eigenvalues --    0.13054   0.14965   0.19461   0.21253   0.53393
 Alpha virt. eigenvalues --    0.54928   0.56580   0.57804   0.66756   0.68824
 Alpha virt. eigenvalues --    0.78232   0.79281   0.79417   0.80555   0.82631

 Mulliken charges:
               1
     1  O   -0.512407
     2  H    0.260019
     3  H    0.252179
     4  O   -0.513381
     5  H    0.258911
     6  H    0.254678
 Sum of Mulliken charges =  -0.00000

 Dipole moment (field-independent basis, Debye):
    X=             -2.5195    Y=             -2.9374    Z=             -0.0000  Tot=              3.8699
 Quadrupole moment (field-independent basis, Debye-Ang):
   XX=             -9.8097   YY=             -7.1258   ZZ=            -14.7140
   XY=             -3.8874   XZ=              0.0000   YZ=             -0.0000

 Normal termination of Gaussian 16 at Sun Aug 28 01:16:47 2022.
