 Gaussian 16, Revision A.03,
 Gaussian 16:  ES64L-G16RevA.03 25-Dec-2016

 ------------------
 #p CCSD(T)/cc-pVTZ
 ------------------

 ------------
 H2O_H2O_3878
 ------------
 Symbolic Z-matrix:
 Charge =  0 Multiplicity = 1

                         Standard orientation:
 ---------------------------------------------------------------------
 Center     Atomic      Atomic             Coordinates (Angstroms)
 Number     Number       Type             X           Y           Z
 ---------------------------------------------------------------------
      1          8           0        0.085598   -2.641654    0.000000
      2          1           0        0.085355   -1.659053    0.000000
      3          1           0       -0.843816   -2.960551    0.000000
      4          8           0        0.085598    2.492052    0.000000
      5          1           0        0.277057    3.455821    0.000000
      6          1           0       -0.888171    2.360603    0.000000
 ---------------------------------------------------------------------

 SCF Done:  E(RHF) =  -152.108047276     A.U. after   10 cycles
 E2 =    -0.5258920917D+00 EUMP2 =    -0.15263393936770D+03
 CCSD(T)
 CCSD(T)= -0.15266113899D+03

 The electronic state is 1-A'.
 Alpha  occ. eigenvalues --  -20.56340 -20.55114  -1.33640  -1.32419  -0.71055
 Alpha  occ. eigenvalues --   -0.69812  -0.57113  -0.55877  -0.50753  -0.49535
 Alpha virt. eigenvalues --    0.12438   0.15111   0.19130   0.21885   0.53172
 Alpha virt. eigenvalues --    0.55013   0.56490   0.57907   0.66740   0.68905
 Alpha virt. eigenvalues --    0.78146   0.78970   0.79329   0.81115   0.82534

 Mulliken charges:
               1
     1  O   -0.511080
     2  H    0.259307
     3  H    0.251386
     4  O   -0.511939
     5  H    0.259322
     6  H    0.253004
 Sum of Mulliken charges =  -0.00000

 Dipole moment (field-independent basis, Debye):
    X=             -2.9292    Y=              2.6428    Z=              0.0000  Tot=              3.9452
 Quadrupole moment (field-independent basis, Debye-Ang):
   XX=            -10.4000   YY=             -8.2511   ZZ=            -14.7133
   XY=              2.8758   XZ=              0.0000   YZ=              0.0000

 Normal termination of Gaussian 16 at Sat Aug 27 00:14:14 2022.
