 Gaussian 16, Revision A.03,
 Gaussian 16:  ES64L-G16RevA.03 25-Dec-2016

 ------------------
 #p CCSD(T)/cc-pVTZ
 ------------------

 ------------
 H2O_H2O_2186
 ------------
 Symbolic Z-matrix:
 Charge =  0 Multiplicity = 1

                         Standard orientation:
 ---------------------------------------------------------------------
 Center     Atomic      Atomic             Coordinates (Angstroms)
 Number     Number       Type             X           Y           Z
 ---------------------------------------------------------------------
      1          8           0        0.059663    1.978675    0.000000
      2          1           0        0.058167    0.996074    0.000000
      3          1           0       -0.869344    2.298756    0.000000
      4          8           0        0.059663   -1.801259   -0.000000
      5          1           0        0.706413   -2.541004   -0.000000
      6          1           0       -0.849846   -2.173147   -0.000000
 ---------------------------------------------------------------------

 SCF Done:  E(RHF) =  -152.111431657     A.U. after   10 cycles
 E2 =    -0.5263096050D+00 EUMP2 =    -0.15263774126221D+03
 CCSD(T)
 CCSD(T)= -0.15266482721D+03

 The electronic state is 1-A'.
 Alpha  occ. eigenvalues --  -20.57192 -20.53942  -1.34448  -1.31284  -0.71844
 Alpha  occ. eigenvalues --   -0.68684  -0.58079  -0.54751  -0.51583  -0.48428
 Alpha virt. eigenvalues --    0.12174   0.16677   0.19288   0.25286   0.52064
 Alpha virt. eigenvalues --    0.55516   0.56172   0.58877   0.68944   0.71914
 Alpha virt. eigenvalues --    0.76765   0.78177   0.80466   0.83438   0.83516

 Mulliken charges:
               1
     1  O   -0.524800
     2  H    0.267959
     3  H    0.248019
     4  O   -0.507803
     5  H    0.260968
     6  H    0.255657
 Sum of Mulliken charges =  -0.00000

 Dipole moment (field-independent basis, Debye):
    X=             -2.0206    Y=             -3.3014    Z=             -0.0000  Tot=              3.8707
 Quadrupole moment (field-independent basis, Debye-Ang):
   XX=             -9.3706   YY=             -7.8013   ZZ=            -14.7251
   XY=             -3.8272   XZ=             -0.0000   YZ=              0.0000

 Normal termination of Gaussian 16 at Sun Aug 28 05:12:16 2022.
