 Gaussian 16, Revision A.03,
 Gaussian 16:  ES64L-G16RevA.03 25-Dec-2016

 ------------------
 #p CCSD(T)/cc-pVTZ
 ------------------

 ------------
 H2O_H2O_1935
 ------------
 Symbolic Z-matrix:
 Charge =  0 Multiplicity = 1

                         Standard orientation:
 ---------------------------------------------------------------------
 Center     Atomic      Atomic             Coordinates (Angstroms)
 Number     Number       Type             X           Y           Z
 ---------------------------------------------------------------------
      1          8           0        0.063262    1.877898    0.000000
      2          1           0        0.061854    0.895298    0.000000
      3          1           0       -0.865773    2.197897    0.000000
      4          8           0        0.063262   -1.702429    0.000000
      5          1           0        0.660314   -2.482836    0.000000
      6          1           0       -0.868594   -2.014118    0.000000
 ---------------------------------------------------------------------

 SCF Done:  E(RHF) =  -152.111986710     A.U. after   10 cycles
 E2 =    -0.5265477895D+00 EUMP2 =    -0.15263853449972D+03
 CCSD(T)
 CCSD(T)= -0.15266559939D+03

 The electronic state is 1-A'.
 Alpha  occ. eigenvalues --  -20.57425 -20.53739  -1.34683  -1.31098  -0.72080
 Alpha  occ. eigenvalues --   -0.68521  -0.58357  -0.54540  -0.51815  -0.48242
 Alpha virt. eigenvalues --    0.12071   0.16867   0.19278   0.26395   0.51237
 Alpha virt. eigenvalues --    0.55356   0.56219   0.58757   0.69041   0.72520
 Alpha virt. eigenvalues --    0.76016   0.77737   0.80719   0.83343   0.84053

 Mulliken charges:
               1
     1  O   -0.527319
     2  H    0.269619
     3  H    0.246336
     4  O   -0.505867
     5  H    0.261790
     6  H    0.255441
 Sum of Mulliken charges =  -0.00000

 Dipole moment (field-independent basis, Debye):
    X=             -2.1356    Y=             -3.3138    Z=             -0.0000  Tot=              3.9423
 Quadrupole moment (field-independent basis, Debye-Ang):
   XX=             -9.4681   YY=             -8.0101   ZZ=            -14.7277
   XY=             -3.6070   XZ=             -0.0000   YZ=             -0.0000

 Normal termination of Gaussian 16 at Sun Aug 28 02:54:12 2022.
