 Gaussian 16, Revision A.03,
 Gaussian 16:  ES64L-G16RevA.03 25-Dec-2016

 ------------------
 #p CCSD(T)/cc-pVTZ
 ------------------

 -----------
 H2O_H2O_413
 -----------
 Symbolic Z-matrix:
 Charge =  0 Multiplicity = 1

                         Standard orientation:
 ---------------------------------------------------------------------
 Center     Atomic      Atomic             Coordinates (Angstroms)
 Number     Number       Type             X           Y           Z
 ---------------------------------------------------------------------
      1          8           0        0.052426    1.271940    0.000000
      2          1           0        0.049507    0.289342    0.000000
      3          1           0       -0.876116    1.593366    0.000000
      4          8           0        0.052426   -1.092197   -0.000000
      5          1           0        0.789257   -1.742264   -0.000000
      6          1           0       -0.801466   -1.578382   -0.000000
 ---------------------------------------------------------------------

 SCF Done:  E(RHF) =  -152.093819295     A.U. after   11 cycles
 E2 =    -0.5325368418D+00 EUMP2 =    -0.15262635613690D+03
 CCSD(T)
 CCSD(T)= -0.15265257813D+03

 The electronic state is 1-A'.
 Alpha  occ. eigenvalues --  -20.60578 -20.48000  -1.39436  -1.26754  -0.75816
 Alpha  occ. eigenvalues --   -0.72475  -0.57803  -0.55875  -0.48539  -0.43627
 Alpha virt. eigenvalues --    0.11071   0.17257   0.20165   0.33473   0.47449
 Alpha virt. eigenvalues --    0.53275   0.62026   0.63410   0.70902   0.72143
 Alpha virt. eigenvalues --    0.75394   0.79195   0.80812   0.82396   0.83945

 Mulliken charges:
               1
     1  O   -0.622902
     2  H    0.312098
     3  H    0.220568
     4  O   -0.413969
     5  H    0.256008
     6  H    0.248196
 Sum of Mulliken charges =  -0.00000

 Dipole moment (field-independent basis, Debye):
    X=             -1.6568    Y=             -4.4296    Z=             -0.0000  Tot=              4.7293
 Quadrupole moment (field-independent basis, Debye-Ang):
   XX=             -9.2045   YY=             -9.5788   ZZ=            -14.6555
   XY=             -2.9473   XZ=             -0.0000   YZ=              0.0000

 Normal termination of Gaussian 16 at Fri Aug 26 18:05:38 2022.
