 Gaussian 16, Revision A.03,
 Gaussian 16:  ES64L-G16RevA.03 25-Dec-2016

 ------------------
 #p CCSD(T)/cc-pVTZ
 ------------------

 -----------
 H2O_H2O_536
 -----------
 Symbolic Z-matrix:
 Charge =  0 Multiplicity = 1

                         Standard orientation:
 ---------------------------------------------------------------------
 Center     Atomic      Atomic             Coordinates (Angstroms)
 Number     Number       Type             X           Y           Z
 ---------------------------------------------------------------------
      1          8           0        0.059735    1.320480    0.000000
      2          1           0        0.057440    0.337881    0.000000
      3          1           0       -0.869011    1.641316    0.000000
      4          8           0        0.059735   -1.143162    0.000000
      5          1           0        0.705882   -1.883432    0.000000
      6          1           0       -0.850076   -1.514309    0.000000
 ---------------------------------------------------------------------

 SCF Done:  E(RHF) =  -152.101304399     A.U. after   11 cycles
 E2 =    -0.5316399051D+00 EUMP2 =    -0.15263294430392D+03
 CCSD(T)
 CCSD(T)= -0.15265936332D+03

 The electronic state is 1-A'.
 Alpha  occ. eigenvalues --  -20.60118 -20.49212  -1.38498  -1.27585  -0.75389
 Alpha  occ. eigenvalues --   -0.70713  -0.58634  -0.55157  -0.49813  -0.44537
 Alpha virt. eigenvalues --    0.11245   0.17272   0.19976   0.33312   0.47834
 Alpha virt. eigenvalues --    0.53601   0.61124   0.62159   0.71258   0.72251
 Alpha virt. eigenvalues --    0.73625   0.78493   0.80712   0.83124   0.84145

 Mulliken charges:
               1
     1  O   -0.604564
     2  H    0.311484
     3  H    0.223656
     4  O   -0.432463
     5  H    0.253519
     6  H    0.248368
 Sum of Mulliken charges =  -0.00000

 Dipole moment (field-independent basis, Debye):
    X=             -1.9096    Y=             -4.1916    Z=              0.0000  Tot=              4.6061
 Quadrupole moment (field-independent basis, Debye-Ang):
   XX=             -9.3595   YY=             -9.3586   ZZ=            -14.6747
   XY=             -2.9856   XZ=              0.0000   YZ=              0.0000

 Normal termination of Gaussian 16 at Fri Aug 26 18:54:23 2022.
