 Gaussian 16, Revision A.03,
 Gaussian 16:  ES64L-G16RevA.03 25-Dec-2016

 ------------------
 #p CCSD(T)/cc-pVTZ
 ------------------

 ------------
 H2O_H2O_3476
 ------------
 Symbolic Z-matrix:
 Charge =  0 Multiplicity = 1

                         Standard orientation:
 ---------------------------------------------------------------------
 Center     Atomic      Atomic             Coordinates (Angstroms)
 Number     Number       Type             X           Y           Z
 ---------------------------------------------------------------------
      1          8           0        0.090684   -2.476187    0.000000
      2          1           0        0.090604   -1.493586    0.000000
      3          1           0       -0.838783   -2.794929    0.000000
      4          8           0        0.090684    2.337478    0.000000
      5          1           0        0.154870    3.317980    0.000000
      6          1           0       -0.857639    2.080207    0.000000
 ---------------------------------------------------------------------

 SCF Done:  E(RHF) =  -152.107979395     A.U. after   10 cycles
 E2 =    -0.5259603476D+00 EUMP2 =    -0.15263393974240D+03
 CCSD(T)
 CCSD(T)= -0.15266113563D+03

 The electronic state is 1-A'.
 Alpha  occ. eigenvalues --  -20.56464 -20.55165  -1.33762  -1.32468  -0.71185
 Alpha  occ. eigenvalues --   -0.69856  -0.57230  -0.55921  -0.50872  -0.49582
 Alpha virt. eigenvalues --    0.11872   0.15311   0.19090   0.22604   0.53482
 Alpha virt. eigenvalues --    0.54905   0.56456   0.58005   0.67022   0.68917
 Alpha virt. eigenvalues --    0.78034   0.78655   0.79288   0.81291   0.82495

 Mulliken charges:
               1
     1  O   -0.510338
     2  H    0.259106
     3  H    0.250548
     4  O   -0.510359
     5  H    0.259612
     6  H    0.251432
 Sum of Mulliken charges =  -0.00000

 Dipole moment (field-independent basis, Debye):
    X=             -3.0972    Y=              2.4644    Z=              0.0000  Tot=              3.9580
 Quadrupole moment (field-independent basis, Debye-Ang):
   XX=            -10.7067   YY=             -8.9125   ZZ=            -14.7128
   XY=              2.3820   XZ=              0.0000   YZ=              0.0000

 CCSD(T)=-152.6611356\RMSD=7.263e-09\PG=CS [SG(H4O2)]\\@
 Normal termination of Gaussian 16 at Fri Aug 26 21:54:31 2022.
