 Gaussian 16, Revision A.03,
 Gaussian 16:  ES64L-G16RevA.03 25-Dec-2016

 ------------------
 #p CCSD(T)/cc-pVTZ
 ------------------

 ------------
 H2O_H2O_3549
 ------------
 Symbolic Z-matrix:
 Charge =  0 Multiplicity = 1

                         Standard orientation:
 ---------------------------------------------------------------------
 Center     Atomic      Atomic             Coordinates (Angstroms)
 Number     Number       Type             X           Y           Z
 ---------------------------------------------------------------------
      1          8           0       -0.013503    2.507307    0.000000
      2          1           0       -0.010727    1.524709    0.000000
      3          1           0        0.915086    2.828598    0.000000
      4          8           0       -0.013503   -2.348040    0.000000
      5          1           0       -0.996100   -2.350816    0.000000
      6          1           0        0.307789   -3.276629    0.000000
 ---------------------------------------------------------------------

 SCF Done:  E(RHF) =  -152.109055895     A.U. after   10 cycles
 E2 =    -0.5258411037D+00 EUMP2 =    -0.15263489699831D+03
 CCSD(T)
 CCSD(T)= -0.15266207129D+03

 The electronic state is 1-A'.
 Alpha  occ. eigenvalues --  -20.56407 -20.54873  -1.33705  -1.32186  -0.71113
 Alpha  occ. eigenvalues --   -0.69594  -0.57217  -0.55669  -0.50827  -0.49316
 Alpha virt. eigenvalues --    0.12487   0.15463   0.19190   0.22289   0.53292
 Alpha virt. eigenvalues --    0.55352   0.56556   0.57930   0.66916   0.69206
 Alpha virt. eigenvalues --    0.78072   0.78711   0.79529   0.80816   0.82874

 Mulliken charges:
               1
     1  O   -0.516898
     2  H    0.260885
     3  H    0.255064
     4  O   -0.515884
     5  H    0.257698
     6  H    0.259135
 Sum of Mulliken charges =   0.00000

 Dipole moment (field-independent basis, Debye):
    X=              0.4651    Y=             -2.8277    Z=              0.0000  Tot=              2.8657
 Quadrupole moment (field-independent basis, Debye-Ang):
   XX=             -9.6478   YY=             -7.7989   ZZ=            -14.7169
   XY=              6.7844   XZ=              0.0000   YZ=              0.0000

 Normal termination of Gaussian 16 at Fri Aug 26 22:19:53 2022.
