 Gaussian 16, Revision A.03,
 Gaussian 16:  ES64L-G16RevA.03 25-Dec-2016

 ------------------
 #p CCSD(T)/cc-pVTZ
 ------------------

 ------------
 H2O_H2O_4908
 ------------
 Symbolic Z-matrix:
 Charge =  0 Multiplicity = 1

                         Standard orientation:
 ---------------------------------------------------------------------
 Center     Atomic      Atomic             Coordinates (Angstroms)
 Number     Number       Type             X           Y           Z
 ---------------------------------------------------------------------
      1          8           0        0.070181    3.061732   -0.000000
      2          1           0        0.069532    2.079130   -0.000000
      3          1           0       -0.859102    3.381012   -0.000000
      4          8           0        0.070181   -2.891458    0.000000
      5          1           0        0.560920   -3.742740    0.000000
      6          1           0       -0.894242   -3.079594    0.000000
 ---------------------------------------------------------------------

 SCF Done:  E(RHF) =  -152.108037544     A.U. after   10 cycles
 E2 =    -0.5258277158D+00 EUMP2 =    -0.15263386525964D+03
 CCSD(T)
 CCSD(T)= -0.15266107196D+03

 The electronic state is 1-A'.
 Alpha  occ. eigenvalues --  -20.56128 -20.55107  -1.33430  -1.32412  -0.70838
 Alpha  occ. eigenvalues --   -0.69811  -0.56907  -0.55874  -0.50546  -0.49530
 Alpha virt. eigenvalues --    0.13452   0.14703   0.19626   0.20902   0.53647
 Alpha virt. eigenvalues --    0.54778   0.56686   0.57706   0.67069   0.68463
 Alpha virt. eigenvalues --    0.78339   0.79334   0.79699   0.80643   0.82083

 Mulliken charges:
               1
     1  O   -0.511906
     2  H    0.259023
     3  H    0.252849
     4  O   -0.512703
     5  H    0.257915
     6  H    0.254822
 Sum of Mulliken charges =  -0.00000

 Dipole moment (field-independent basis, Debye):
    X=             -2.4090    Y=             -2.9798    Z=              0.0000  Tot=              3.8318
 Quadrupole moment (field-independent basis, Debye-Ang):
   XX=             -9.6784   YY=             -6.6048   ZZ=            -14.7135
   XY=             -4.3250   XZ=              0.0000   YZ=             -0.0000

 Normal termination of Gaussian 16 at Sun Aug 28 06:49:10 2022.
