 Gaussian 16, Revision A.03,
 Gaussian 16:  ES64L-G16RevA.03 25-Dec-2016

 ------------------
 #p CCSD(T)/cc-pVTZ
 ------------------

 -----------
 H2O_H2O_815
 -----------
 Symbolic Z-matrix:
 Charge =  0 Multiplicity = 1

                         Standard orientation:
 ---------------------------------------------------------------------
 Center     Atomic      Atomic             Coordinates (Angstroms)
 Number     Number       Type             X           Y           Z
 ---------------------------------------------------------------------
      1          8           0        0.044972    1.431786    0.000000
      2          1           0        0.041929    0.449189    0.000000
      3          1           0       -0.883530    1.753329   -0.000000
      4          8           0        0.044972   -1.251500    0.000000
      5          1           0        0.860281   -1.799931    0.000000
      6          1           0       -0.738231   -1.844881   -0.000000
 ---------------------------------------------------------------------

 SCF Done:  E(RHF) =  -152.111141891     A.U. after   10 cycles
 E2 =    -0.5295463485D+00 EUMP2 =    -0.15264068823951D+03
 CCSD(T)
 CCSD(T)= -0.15266739928D+03

 The electronic state is 1-A'.
 Alpha  occ. eigenvalues --  -20.59293 -20.50677  -1.37017  -1.28590  -0.74061
 Alpha  occ. eigenvalues --   -0.68776  -0.59616  -0.53985  -0.51333  -0.45658
 Alpha virt. eigenvalues --    0.11661   0.18030   0.19162   0.32855   0.47965
 Alpha virt. eigenvalues --    0.54363   0.58217   0.62083   0.69397   0.71905
 Alpha virt. eigenvalues --    0.72483   0.77881   0.82038   0.82900   0.84587

 Mulliken charges:
               1
     1  O   -0.584803
     2  H    0.307127
     3  H    0.236580
     4  O   -0.479121
     5  H    0.264774
     6  H    0.255444
 Sum of Mulliken charges =  -0.00000

 Dipole moment (field-independent basis, Debye):
    X=             -1.4699    Y=             -3.9561    Z=             -0.0000  Tot=              4.2203
 Quadrupole moment (field-independent basis, Debye-Ang):
   XX=             -9.1478   YY=             -8.9945   ZZ=            -14.7136
   XY=             -3.2948   XZ=              0.0000   YZ=             -0.0000

 Normal termination of Gaussian 16 at Fri Aug 26 20:41:03 2022.
