 Gaussian 16, Revision A.03,
 Gaussian 16:  ES64L-G16RevA.03 25-Dec-2016

 ------------------
 #p CCSD(T)/cc-pVTZ
 ------------------

 ------------
 H2O_H2O_3608
 ------------
 Symbolic Z-matrix:
 Charge =  0 Multiplicity = 1

                         Standard orientation:
 ---------------------------------------------------------------------
 Center     Atomic      Atomic             Coordinates (Angstroms)
 Number     Number       Type             X           Y           Z
 ---------------------------------------------------------------------
      1          8           0        0.070193    2.543182    0.000000
      2          1           0        0.069407    1.560581    0.000000
      3          1           0       -0.859045    2.862591   -0.000000
      4          8           0        0.070193   -2.372928    0.000000
      5          1           0        0.560813   -3.224278    0.000000
      6          1           0       -0.894256   -2.560930   -0.000000
 ---------------------------------------------------------------------

 SCF Done:  E(RHF) =  -152.108698819     A.U. after   10 cycles
 E2 =    -0.5258816951D+00 EUMP2 =    -0.15263458051464D+03
 CCSD(T)
 CCSD(T)= -0.15266176037D+03

 The electronic state is 1-A'.
 Alpha  occ. eigenvalues --  -20.56413 -20.54820  -1.33707  -1.32130  -0.71115
 Alpha  occ. eigenvalues --   -0.69522  -0.57205  -0.55601  -0.50826  -0.49253
 Alpha virt. eigenvalues --    0.12632   0.15374   0.19456   0.21726   0.53352
 Alpha virt. eigenvalues --    0.55061   0.56463   0.58013   0.66865   0.69223
 Alpha virt. eigenvalues --    0.78077   0.78793   0.79595   0.80241   0.82869

 Mulliken charges:
               1
     1  O   -0.514014
     2  H    0.261670
     3  H    0.251403
     4  O   -0.513904
     5  H    0.259801
     6  H    0.255044
 Sum of Mulliken charges =  -0.00000

 Dipole moment (field-independent basis, Debye):
    X=             -2.3996    Y=             -3.0229    Z=             -0.0000  Tot=              3.8595
 Quadrupole moment (field-independent basis, Debye-Ang):
   XX=             -9.6819   YY=             -7.2604   ZZ=            -14.7158
   XY=             -3.9129   XZ=              0.0000   YZ=             -0.0000

 Normal termination of Gaussian 16 at Fri Aug 26 22:39:26 2022.
