 Gaussian 16, Revision A.03,
 Gaussian 16:  ES64L-G16RevA.03 25-Dec-2016

 ------------------
 #p CCSD(T)/cc-pVTZ
 ------------------

 ------------
 H2O_H2O_4363
 ------------
 Symbolic Z-matrix:
 Charge =  0 Multiplicity = 1

                         Standard orientation:
 ---------------------------------------------------------------------
 Center     Atomic      Atomic             Coordinates (Angstroms)
 Number     Number       Type             X           Y           Z
 ---------------------------------------------------------------------
      1          8           0        0.052273    2.847591    0.000000
      2          1           0        0.051022    1.864990    0.000000
      3          1           0       -0.876813    3.167441    0.000000
      4          8           0        0.052273   -2.667671   -0.000000
      5          1           0        0.790207   -3.316486   -0.000000
      6          1           0       -0.800792   -3.155304   -0.000000
 ---------------------------------------------------------------------

 SCF Done:  E(RHF) =  -152.108461218     A.U. after   10 cycles
 E2 =    -0.5258138585D+00 EUMP2 =    -0.15263427507654D+03
 CCSD(T)
 CCSD(T)= -0.15266147017D+03

 The electronic state is 1-A'.
 Alpha  occ. eigenvalues --  -20.56213 -20.54916  -1.33513  -1.32224  -0.70918
 Alpha  occ. eigenvalues --   -0.69624  -0.57008  -0.55695  -0.50632  -0.49347
 Alpha virt. eigenvalues --    0.13288   0.14992   0.19678   0.21101   0.53626
 Alpha virt. eigenvalues --    0.54864   0.56639   0.57804   0.66769   0.68851
 Alpha virt. eigenvalues --    0.78256   0.79507   0.79615   0.80005   0.82748

 Mulliken charges:
               1
     1  O   -0.513956
     2  H    0.260758
     3  H    0.253009
     4  O   -0.514722
     5  H    0.258586
     6  H    0.256325
 Sum of Mulliken charges =  -0.00000

 Dipole moment (field-independent basis, Debye):
    X=             -1.7920    Y=             -3.1626    Z=             -0.0000  Tot=              3.6350
 Quadrupole moment (field-independent basis, Debye-Ang):
   XX=             -9.2250   YY=             -6.3344   ZZ=            -14.7150
   XY=             -5.2693   XZ=             -0.0000   YZ=              0.0000

 Normal termination of Gaussian 16 at Sun Aug 28 02:16:14 2022.
