 Gaussian 16, Revision A.03,
 Gaussian 16:  ES64L-G16RevA.03 25-Dec-2016

 ------------------
 #p CCSD(T)/cc-pVTZ
 ------------------

 ------------
 H2O_H2O_2683
 ------------
 Symbolic Z-matrix:
 Charge =  0 Multiplicity = 1

                         Standard orientation:
 ---------------------------------------------------------------------
 Center     Atomic      Atomic             Coordinates (Angstroms)
 Number     Number       Type             X           Y           Z
 ---------------------------------------------------------------------
      1          8           0        0.070205    2.174211   -0.000000
      2          1           0        0.069280    1.191610   -0.000000
      3          1           0       -0.858988    2.493751   -0.000000
      4          8           0        0.070205   -2.003976    0.000000
      5          1           0        0.560705   -2.855396    0.000000
      6          1           0       -0.894270   -2.191842    0.000000
 ---------------------------------------------------------------------

 SCF Done:  E(RHF) =  -152.109864068     A.U. after   10 cycles
 E2 =    -0.5260855929D+00 EUMP2 =    -0.15263594966130D+03
 CCSD(T)
 CCSD(T)= -0.15266308184D+03

 The electronic state is 1-A'.
 Alpha  occ. eigenvalues --  -20.56828 -20.54442  -1.34102  -1.31762  -0.71513
 Alpha  occ. eigenvalues --   -0.69145  -0.57643  -0.55237  -0.51227  -0.48894
 Alpha virt. eigenvalues --    0.12161   0.16090   0.19425   0.23430   0.53406
 Alpha virt. eigenvalues --    0.55501   0.56177   0.58712   0.68846   0.69789
 Alpha virt. eigenvalues --    0.77589   0.79062   0.79956   0.80304   0.83221

 Mulliken charges:
               1
     1  O   -0.518221
     2  H    0.264906
     3  H    0.249074
     4  O   -0.510201
     5  H    0.259920
     6  H    0.254523
 Sum of Mulliken charges =  -0.00000

 Dipole moment (field-independent basis, Debye):
    X=             -2.3875    Y=             -3.0954    Z=              0.0000  Tot=              3.9092
 Quadrupole moment (field-independent basis, Debye-Ang):
   XX=             -9.6885   YY=             -7.7206   ZZ=            -14.7194
   XY=             -3.6197   XZ=              0.0000   YZ=             -0.0000

 Normal termination of Gaussian 16 at Fri Aug 26 16:32:18 2022.
