 Gaussian 16, Revision A.03,
 Gaussian 16:  ES64L-G16RevA.03 25-Dec-2016

 ------------------
 #p CCSD(T)/cc-pVTZ
 ------------------

 ------------
 H2O_H2O_2520
 ------------
 Symbolic Z-matrix:
 Charge =  0 Multiplicity = 1

                         Standard orientation:
 ---------------------------------------------------------------------
 Center     Atomic      Atomic             Coordinates (Angstroms)
 Number     Number       Type             X           Y           Z
 ---------------------------------------------------------------------
      1          8           0        0.026683    2.106030   -0.000000
      2          1           0        0.023897    1.123433   -0.000000
      3          1           0       -0.901902    2.427331   -0.000000
      4          8           0        0.026683   -1.932821    0.000000
      5          1           0        0.975078   -2.189828    0.000000
      6          1           0       -0.524006   -2.746608    0.000000
 ---------------------------------------------------------------------

 SCF Done:  E(RHF) =  -152.110904358     A.U. after   10 cycles
 E2 =    -0.5260669793D+00 EUMP2 =    -0.15263697133738D+03
 CCSD(T)
 CCSD(T)= -0.15266408045D+03

 The electronic state is 1-A'.
 Alpha  occ. eigenvalues --  -20.56912 -20.54223  -1.34180  -1.31554  -0.71580
 Alpha  occ. eigenvalues --   -0.68960  -0.57774  -0.55045  -0.51315  -0.48701
 Alpha virt. eigenvalues --    0.12315   0.16419   0.19286   0.24189   0.53241
 Alpha virt. eigenvalues --    0.55514   0.56389   0.58663   0.68968   0.70603
 Alpha virt. eigenvalues --    0.77397   0.78970   0.80148   0.81015   0.83636

 Mulliken charges:
               1
     1  O   -0.524425
     2  H    0.265863
     3  H    0.252911
     4  O   -0.512358
     5  H    0.260183
     6  H    0.257826
 Sum of Mulliken charges =  -0.00000

 Dipole moment (field-independent basis, Debye):
    X=             -0.9094    Y=             -3.1708    Z=              0.0000  Tot=              3.2986
 Quadrupole moment (field-independent basis, Debye-Ang):
   XX=             -9.2885   YY=             -7.7064   ZZ=            -14.7230
   XY=             -5.0865   XZ=              0.0000   YZ=             -0.0000

 Normal termination of Gaussian 16 at Fri Aug 26 15:19:52 2022.
