 Gaussian 16, Revision A.03,
 Gaussian 16:  ES64L-G16RevA.03 25-Dec-2016

 ------------------
 #p CCSD(T)/cc-pVTZ
 ------------------

 ------------
 H2O_H2O_4945
 ------------
 Symbolic Z-matrix:
 Charge =  0 Multiplicity = 1

                         Standard orientation:
 ---------------------------------------------------------------------
 Center     Atomic      Atomic             Coordinates (Angstroms)
 Number     Number       Type             X           Y           Z
 ---------------------------------------------------------------------
      1          8           0        0.026604    3.073330   -0.000000
      2          1           0        0.024720    2.090730   -0.000000
      3          1           0       -0.902277    3.393777   -0.000000
      4          8           0        0.026604   -2.900072    0.000000
      5          1           0        0.975235   -3.156206    0.000000
      6          1           0       -0.523338   -3.714364    0.000000
 ---------------------------------------------------------------------

 SCF Done:  E(RHF) =  -152.108284626     A.U. after   10 cycles
 E2 =    -0.5258005211D+00 EUMP2 =    -0.15263408514716D+03
 CCSD(T)
 CCSD(T)= -0.15266128732D+03

 The electronic state is 1-A'.
 Alpha  occ. eigenvalues --  -20.56111 -20.55071  -1.33414  -1.32377  -0.70819
 Alpha  occ. eigenvalues --   -0.69782  -0.56901  -0.55847  -0.50532  -0.49499
 Alpha virt. eigenvalues --    0.13517   0.14753   0.19691   0.20918   0.53687
 Alpha virt. eigenvalues --    0.54791   0.56725   0.57743   0.67066   0.68468
 Alpha virt. eigenvalues --    0.78350   0.79361   0.79730   0.80615   0.82104

 Mulliken charges:
               1
     1  O   -0.513556
     2  H    0.259186
     3  H    0.254337
     4  O   -0.514061
     5  H    0.257092
     6  H    0.257002
 Sum of Mulliken charges =  -0.00000

 Dipole moment (field-independent basis, Debye):
    X=             -0.9140    Y=             -3.0306    Z=              0.0000  Tot=              3.1654
 Quadrupole moment (field-independent basis, Debye-Ang):
   XX=             -9.2898   YY=             -6.3765   ZZ=            -14.7144
   XY=             -7.3011   XZ=              0.0000   YZ=              0.0000

 Normal termination of Gaussian 16 at Sun Aug 28 07:09:56 2022.
