 Gaussian 16, Revision A.03,
 Gaussian 16:  ES64L-G16RevA.03 25-Dec-2016

 ------------------
 #p CCSD(T)/cc-pVTZ
 ------------------

 ------------
 H2O_H2O_4235
 ------------
 Symbolic Z-matrix:
 Charge =  0 Multiplicity = 1

                         Standard orientation:
 ---------------------------------------------------------------------
 Center     Atomic      Atomic             Coordinates (Angstroms)
 Number     Number       Type             X           Y           Z
 ---------------------------------------------------------------------
      1          8           0        0.063220    2.795347   -0.000000
      2          1           0        0.062288    1.812746   -0.000000
      3          1           0       -0.865971    3.114894   -0.000000
      4          8           0        0.063220   -2.619815    0.000000
      5          1           0        0.660651   -3.399933    0.000000
      6          1           0       -0.868485   -2.931956    0.000000
 ---------------------------------------------------------------------

 SCF Done:  E(RHF) =  -152.108404616     A.U. after   10 cycles
 E2 =    -0.5258285899D+00 EUMP2 =    -0.15263423320597D+03
 CCSD(T)
 CCSD(T)= -0.15266142829D+03

 The electronic state is 1-A'.
 Alpha  occ. eigenvalues --  -20.56243 -20.54931  -1.33543  -1.32238  -0.70949
 Alpha  occ. eigenvalues --   -0.69636  -0.57034  -0.55707  -0.50661  -0.49360
 Alpha virt. eigenvalues --    0.13157   0.15023   0.19598   0.21182   0.53516
 Alpha virt. eigenvalues --    0.54902   0.56601   0.57810   0.66730   0.68904
 Alpha virt. eigenvalues --    0.78230   0.79359   0.79495   0.80200   0.82745

 Mulliken charges:
               1
     1  O   -0.513446
     2  H    0.260714
     3  H    0.252485
     4  O   -0.514294
     5  H    0.258926
     6  H    0.255616
 Sum of Mulliken charges =  -0.00000

 Dipole moment (field-independent basis, Debye):
    X=             -2.1663    Y=             -3.0895    Z=              0.0000  Tot=              3.7733
 Quadrupole moment (field-independent basis, Debye-Ang):
   XX=             -9.4541   YY=             -6.6550   ZZ=            -14.7148
   XY=             -4.5579   XZ=              0.0000   YZ=             -0.0000

 Normal termination of Gaussian 16 at Sun Aug 28 01:00:37 2022.
