 Gaussian 16, Revision A.03,
 Gaussian 16:  ES64L-G16RevA.03 25-Dec-2016

 ------------------
 #p CCSD(T)/cc-pVTZ
 ------------------

 ------------
 H2O_H2O_1838
 ------------
 Symbolic Z-matrix:
 Charge =  0 Multiplicity = 1

                         Standard orientation:
 ---------------------------------------------------------------------
 Center     Atomic      Atomic             Coordinates (Angstroms)
 Number     Number       Type             X           Y           Z
 ---------------------------------------------------------------------
      1          8           0        0.052339    1.840389    0.000000
      2          1           0        0.050368    0.857790    0.000000
      3          1           0       -0.876512    2.160919   -0.000000
      4          8           0        0.052339   -1.660546    0.000000
      5          1           0        0.789798   -2.309900    0.000000
      6          1           0       -0.801083   -2.147553   -0.000000
 ---------------------------------------------------------------------

 SCF Done:  E(RHF) =  -152.112746596     A.U. after   10 cycles
 E2 =    -0.5266133701D+00 EUMP2 =    -0.15263935996577D+03
 CCSD(T)
 CCSD(T)= -0.15266640720D+03

 The electronic state is 1-A'.
 Alpha  occ. eigenvalues --  -20.57533 -20.53490  -1.34787  -1.30867  -0.72162
 Alpha  occ. eigenvalues --   -0.68329  -0.58517  -0.54299  -0.51925  -0.48018
 Alpha virt. eigenvalues --    0.12139   0.17135   0.19137   0.27051   0.50963
 Alpha virt. eigenvalues --    0.54965   0.56341   0.59031   0.69068   0.72399
 Alpha virt. eigenvalues --    0.75677   0.77197   0.80946   0.83308   0.84434

 Mulliken charges:
               1
     1  O   -0.531745
     2  H    0.271306
     3  H    0.247226
     4  O   -0.507027
     5  H    0.263034
     6  H    0.257207
 Sum of Mulliken charges =  -0.00000

 Dipole moment (field-independent basis, Debye):
    X=             -1.7649    Y=             -3.4226    Z=             -0.0000  Tot=              3.8509
 Quadrupole moment (field-independent basis, Debye-Ang):
   XX=             -9.2328   YY=             -7.9989   ZZ=            -14.7310
   XY=             -3.8453   XZ=              0.0000   YZ=             -0.0000

 Normal termination of Gaussian 16 at Sun Aug 28 02:03:22 2022.
