 Gaussian 16, Revision A.03,
 Gaussian 16:  ES64L-G16RevA.03 25-Dec-2016

 ------------------
 #p CCSD(T)/cc-pVTZ
 ------------------

 ------------
 H2O_H2O_1427
 ------------
 Symbolic Z-matrix:
 Charge =  0 Multiplicity = 1

                         Standard orientation:
 ---------------------------------------------------------------------
 Center     Atomic      Atomic             Coordinates (Angstroms)
 Number     Number       Type             X           Y           Z
 ---------------------------------------------------------------------
      1          8           0        0.088237   -1.661529    0.000000
      2          1           0        0.087985   -0.678928    0.000000
      3          1           0       -0.841174   -1.980434    0.000000
      4          8           0        0.088237    1.517223    0.000000
      5          1           0        0.216242    2.491451    0.000000
      6          1           0       -0.874849    1.322358    0.000000
 ---------------------------------------------------------------------

 SCF Done:  E(RHF) =  -152.109914850     A.U. after   10 cycles
 E2 =    -0.5277318237D+00 EUMP2 =    -0.15263764667410D+03
 CCSD(T)
 CCSD(T)= -0.15266470587D+03

 The electronic state is 1-A'.
 Alpha  occ. eigenvalues --  -20.57978 -20.54014  -1.35350  -1.31399  -0.73048
 Alpha  occ. eigenvalues --   -0.68711  -0.58885  -0.54739  -0.52406  -0.48502
 Alpha virt. eigenvalues --    0.11566   0.16462   0.20211   0.28366   0.49607
 Alpha virt. eigenvalues --    0.54567   0.57833   0.58227   0.68362   0.73621
 Alpha virt. eigenvalues --    0.74629   0.77602   0.80856   0.81974   0.83497

 Mulliken charges:
               1
     1  O   -0.526165
     2  H    0.275148
     3  H    0.238903
     4  O   -0.480169
     5  H    0.248041
     6  H    0.244242
 Sum of Mulliken charges =   0.00000

 Dipole moment (field-independent basis, Debye):
    X=             -2.9429    Y=              2.8392    Z=              0.0000  Tot=              4.0892
 Quadrupole moment (field-independent basis, Debye-Ang):
   XX=            -10.6006   YY=             -8.8842   ZZ=            -14.7139
   XY=              2.4454   XZ=              0.0000   YZ=              0.0000

 CCSD(T)=-152.6647059\RMSD=7.339e-09\PG=CS [SG(H4O2)]\\@
 Normal termination of Gaussian 16 at Sat Aug 27 00:31:08 2022.
