 Gaussian 16, Revision A.03,
 Gaussian 16:  ES64L-G16RevA.03 25-Dec-2016

 ------------------
 #p CCSD(T)/cc-pVTZ
 ------------------

 ------------
 H2O_H2O_3344
 ------------
 Symbolic Z-matrix:
 Charge =  0 Multiplicity = 1

                         Standard orientation:
 ---------------------------------------------------------------------
 Center     Atomic      Atomic             Coordinates (Angstroms)
 Number     Number       Type             X           Y           Z
 ---------------------------------------------------------------------
      1          8           0        0.030181    2.436407    0.000000
      2          1           0        0.027913    1.453808    0.000000
      3          1           0       -0.898574    2.757218    0.000000
      4          8           0        0.030181   -2.260795   -0.000000
      5          1           0        0.959905   -2.578788   -0.000000
      6          1           0       -0.572143   -3.037139   -0.000000
 ---------------------------------------------------------------------

 SCF Done:  E(RHF) =  -152.109461023     A.U. after   10 cycles
 E2 =    -0.5258648300D+00 EUMP2 =    -0.15263532585343D+03
 CCSD(T)
 CCSD(T)= -0.15266248514D+03

 The electronic state is 1-A'.
 Alpha  occ. eigenvalues --  -20.56492 -20.54627  -1.33780  -1.31944  -0.71182
 Alpha  occ. eigenvalues --   -0.69345  -0.57309  -0.55431  -0.50906  -0.49077
 Alpha virt. eigenvalues --    0.12630   0.15665   0.19455   0.22147   0.53357
 Alpha virt. eigenvalues --    0.55303   0.56493   0.58112   0.67301   0.69343
 Alpha virt. eigenvalues --    0.77997   0.78823   0.79757   0.79898   0.83078

 Mulliken charges:
               1
     1  O   -0.518111
     2  H    0.262939
     3  H    0.253504
     4  O   -0.515877
     5  H    0.259255
     6  H    0.258290
 Sum of Mulliken charges =   0.00000

 Dipole moment (field-independent basis, Debye):
    X=             -1.0319    Y=             -3.1347    Z=             -0.0000  Tot=              3.3002
 Quadrupole moment (field-independent basis, Debye-Ang):
   XX=             -9.2295   YY=             -7.1538   ZZ=            -14.7185
   XY=             -5.6707   XZ=             -0.0000   YZ=              0.0000

 Normal termination of Gaussian 16 at Fri Aug 26 21:10:54 2022.
