 Gaussian 16, Revision A.03,
 Gaussian 16:  ES64L-G16RevA.03 25-Dec-2016

 ------------------
 #p CCSD(T)/cc-pVTZ
 ------------------

 ------------
 H2O_H2O_1679
 ------------
 Symbolic Z-matrix:
 Charge =  0 Multiplicity = 1

                         Standard orientation:
 ---------------------------------------------------------------------
 Center     Atomic      Atomic             Coordinates (Angstroms)
 Number     Number       Type             X           Y           Z
 ---------------------------------------------------------------------
      1          8           0        0.082814   -1.766784    0.000000
      2          1           0        0.082304   -0.784183    0.000000
      3          1           0       -0.846514   -2.085932    0.000000
      4          8           0        0.082814    1.612288    0.000000
      5          1           0        0.336638    2.561541    0.000000
      6          1           0       -0.897449    1.544541    0.000000
 ---------------------------------------------------------------------

 SCF Done:  E(RHF) =  -152.110820250     A.U. after   10 cycles
 E2 =    -0.5270568916D+00 EUMP2 =    -0.15263787714178D+03
 CCSD(T)
 CCSD(T)= -0.15266494723D+03

 The electronic state is 1-A'.
 Alpha  occ. eigenvalues --  -20.57669 -20.54024  -1.34973  -1.31383  -0.72487
 Alpha  occ. eigenvalues --   -0.68759  -0.58575  -0.54776  -0.52071  -0.48505
 Alpha virt. eigenvalues --    0.11710   0.16551   0.19828   0.27203   0.50443
 Alpha virt. eigenvalues --    0.55300   0.57126   0.58000   0.68943   0.74331
 Alpha virt. eigenvalues --    0.74902   0.77735   0.80667   0.82797   0.83643

 Mulliken charges:
               1
     1  O   -0.524596
     2  H    0.271385
     3  H    0.242272
     4  O   -0.495347
     5  H    0.256218
     6  H    0.250068
 Sum of Mulliken charges =  -0.00000

 Dipole moment (field-independent basis, Debye):
    X=             -2.7797    Y=              2.9655    Z=              0.0000  Tot=              4.0646
 Quadrupole moment (field-independent basis, Debye-Ang):
   XX=            -10.2830   YY=             -8.5845   ZZ=            -14.7214
   XY=              2.7844   XZ=              0.0000   YZ=              0.0000

 Normal termination of Gaussian 16 at Sun Aug 28 00:31:32 2022.
