 Gaussian 16, Revision A.03,
 Gaussian 16:  ES64L-G16RevA.03 25-Dec-2016

 ------------------
 #p CCSD(T)/cc-pVTZ
 ------------------

 ------------
 H2O_H2O_3551
 ------------
 Symbolic Z-matrix:
 Charge =  0 Multiplicity = 1

                         Standard orientation:
 ---------------------------------------------------------------------
 Center     Atomic      Atomic             Coordinates (Angstroms)
 Number     Number       Type             X           Y           Z
 ---------------------------------------------------------------------
      1          8           0        0.090684   -2.506103    0.000000
      2          1           0        0.090605   -1.523502    0.000000
      3          1           0       -0.838783   -2.824844    0.000000
      4          8           0        0.090684    2.367394    0.000000
      5          1           0        0.154871    3.347896    0.000000
      6          1           0       -0.857640    2.110124    0.000000
 ---------------------------------------------------------------------

 SCF Done:  E(RHF) =  -152.107947154     A.U. after   10 cycles
 E2 =    -0.5259484920D+00 EUMP2 =    -0.15263389564555D+03
 CCSD(T)
 CCSD(T)= -0.15266109356D+03

 The electronic state is 1-A'.
 Alpha  occ. eigenvalues --  -20.56440 -20.55178  -1.33738  -1.32480  -0.71160
 Alpha  occ. eigenvalues --   -0.69869  -0.57205  -0.55934  -0.50848  -0.49594
 Alpha virt. eigenvalues --    0.11927   0.15266   0.19054   0.22527   0.53386
 Alpha virt. eigenvalues --    0.54931   0.56461   0.57981   0.66941   0.68901
 Alpha virt. eigenvalues --    0.78057   0.78718   0.79275   0.81316   0.82478

 Mulliken charges:
               1
     1  O   -0.510256
     2  H    0.258949
     3  H    0.250711
     4  O   -0.510524
     5  H    0.259551
     6  H    0.251570
 Sum of Mulliken charges =   0.00000

 Dipole moment (field-independent basis, Debye):
    X=             -3.0984    Y=              2.4613    Z=              0.0000  Tot=              3.9570
 Quadrupole moment (field-independent basis, Debye-Ang):
   XX=            -10.7060   YY=             -8.9098   ZZ=            -14.7127
   XY=              2.3847   XZ=              0.0000   YZ=              0.0000

 CCSD(T)=-152.6610936\RMSD=7.266e-09\PG=CS [SG(H4O2)]\\@
 Normal termination of Gaussian 16 at Fri Aug 26 22:20:34 2022.
