 Gaussian 16, Revision A.03,
 Gaussian 16:  ES64L-G16RevA.03 25-Dec-2016

 ------------------
 #p CCSD(T)/cc-pVTZ
 ------------------

 ------------
 H2O_H2O_1115
 ------------
 Symbolic Z-matrix:
 Charge =  0 Multiplicity = 1

                         Standard orientation:
 ---------------------------------------------------------------------
 Center     Atomic      Atomic             Coordinates (Angstroms)
 Number     Number       Type             X           Y           Z
 ---------------------------------------------------------------------
      1          8           0        0.044949    1.551460   -0.000000
      2          1           0        0.042155    0.568862   -0.000000
      3          1           0       -0.883634    1.872768   -0.000000
      4          8           0        0.044949   -1.371150    0.000000
      5          1           0        0.860397   -1.919375    0.000000
      6          1           0       -0.738103   -1.964731    0.000000
 ---------------------------------------------------------------------

 SCF Done:  E(RHF) =  -152.113985882     A.U. after   10 cycles
 E2 =    -0.5281937569D+00 EUMP2 =    -0.15264217963898D+03
 CCSD(T)
 CCSD(T)= -0.15266906907D+03

 The electronic state is 1-A'.
 Alpha  occ. eigenvalues --  -20.58609 -20.51917  -1.36031  -1.29537  -0.73268
 Alpha  occ. eigenvalues --   -0.67960  -0.59652  -0.53116  -0.52644  -0.46662
 Alpha virt. eigenvalues --    0.11898   0.18051   0.18878   0.31378   0.48762
 Alpha virt. eigenvalues --    0.54746   0.56343   0.60805   0.69044   0.71561
 Alpha virt. eigenvalues --    0.72999   0.77290   0.82372   0.82589   0.84923

 Mulliken charges:
               1
     1  O   -0.561446
     2  H    0.292966
     3  H    0.242164
     4  O   -0.498186
     5  H    0.266267
     6  H    0.258235
 Sum of Mulliken charges =  -0.00000

 Dipole moment (field-independent basis, Debye):
    X=             -1.4900    Y=             -3.7257    Z=              0.0000  Tot=              4.0126
 Quadrupole moment (field-independent basis, Debye-Ang):
   XX=             -9.1565   YY=             -8.6414   ZZ=            -14.7307
   XY=             -3.5145   XZ=              0.0000   YZ=              0.0000

 CCSD(T)=-152.6690691\RMSD=7.150e-09\PG=CS [SG(H4O2)]\\@
 Normal termination of Gaussian 16 at Fri Aug 26 22:33:21 2022.
