 Gaussian 16, Revision A.03,
 Gaussian 16:  ES64L-G16RevA.03 25-Dec-2016

 ------------------
 #p CCSD(T)/cc-pVTZ
 ------------------

 ------------
 H2O_H2O_1697
 ------------
 Symbolic Z-matrix:
 Charge =  0 Multiplicity = 1

                         Standard orientation:
 ---------------------------------------------------------------------
 Center     Atomic      Atomic             Coordinates (Angstroms)
 Number     Number       Type             X           Y           Z
 ---------------------------------------------------------------------
      1          8           0       -0.019940    1.773624    0.000000
      2          1           0       -0.016270    0.791030    0.000000
      3          1           0        0.908356    2.095760    0.000000
      4          8           0       -0.019940   -1.606558    0.000000
      5          1           0       -0.993650   -1.738451    0.000000
      6          1           0        0.420607   -2.484866    0.000000
 ---------------------------------------------------------------------

 SCF Done:  E(RHF) =  -152.112967847     A.U. after   10 cycles
 E2 =    -0.5267452325D+00 EUMP2 =    -0.15263971307905D+03
 CCSD(T)
 CCSD(T)= -0.15266675021D+03

 The electronic state is 1-A'.
 Alpha  occ. eigenvalues --  -20.57634 -20.53518  -1.34922  -1.30913  -0.72349
 Alpha  occ. eigenvalues --   -0.68400  -0.58685  -0.54319  -0.52049  -0.48070
 Alpha virt. eigenvalues --    0.12186   0.17330   0.19135   0.27818   0.51491
 Alpha virt. eigenvalues --    0.54320   0.55918   0.59839   0.68939   0.73488
 Alpha virt. eigenvalues --    0.75039   0.77638   0.81004   0.83129   0.84301

 Mulliken charges:
               1
     1  O   -0.537828
     2  H    0.271279
     3  H    0.252699
     4  O   -0.506204
     5  H    0.262877
     6  H    0.257178
 Sum of Mulliken charges =  -0.00000

 Dipole moment (field-independent basis, Debye):
    X=              0.6788    Y=             -3.2130    Z=              0.0000  Tot=              3.2840
 Quadrupole moment (field-independent basis, Debye-Ang):
   XX=             -9.4480   YY=             -8.3210   ZZ=            -14.7308
   XY=              4.5291   XZ=              0.0000   YZ=              0.0000

 Normal termination of Gaussian 16 at Sun Aug 28 00:47:17 2022.
