 Gaussian 16, Revision A.03,
 Gaussian 16:  ES64L-G16RevA.03 25-Dec-2016

 ------------------
 #p CCSD(T)/cc-pVTZ
 ------------------

 ------------
 H2O_H2O_3374
 ------------
 Symbolic Z-matrix:
 Charge =  0 Multiplicity = 1

                         Standard orientation:
 ---------------------------------------------------------------------
 Center     Atomic      Atomic             Coordinates (Angstroms)
 Number     Number       Type             X           Y           Z
 ---------------------------------------------------------------------
      1          8           0       -0.013510    2.437502    0.000000
      2          1           0       -0.010651    1.454905    0.000000
      3          1           0        0.915052    2.758871    0.000000
      4          8           0       -0.013510   -2.278237    0.000000
      5          1           0       -0.996107   -2.281096    0.000000
      6          1           0        0.307860   -3.206800    0.000000
 ---------------------------------------------------------------------

 SCF Done:  E(RHF) =  -152.109236329     A.U. after   10 cycles
 E2 =    -0.5258604983D+00 EUMP2 =    -0.15263509682729D+03
 CCSD(T)
 CCSD(T)= -0.15266226405D+03

 The electronic state is 1-A'.
 Alpha  occ. eigenvalues --  -20.56467 -20.54819  -1.33762  -1.32133  -0.71171
 Alpha  occ. eigenvalues --   -0.69541  -0.57281  -0.55619  -0.50886  -0.49265
 Alpha virt. eigenvalues --    0.12384   0.15591   0.19192   0.22534   0.53424
 Alpha virt. eigenvalues --    0.55433   0.56516   0.57999   0.67166   0.69269
 Alpha virt. eigenvalues --    0.78015   0.78644   0.79578   0.80794   0.82943

 Mulliken charges:
               1
     1  O   -0.517665
     2  H    0.261305
     3  H    0.255050
     4  O   -0.515750
     5  H    0.257869
     6  H    0.259190
 Sum of Mulliken charges =  -0.00000

 Dipole moment (field-independent basis, Debye):
    X=              0.4654    Y=             -2.8372    Z=              0.0000  Tot=              2.8751
 Quadrupole moment (field-independent basis, Debye-Ang):
   XX=             -9.6478   YY=             -7.8584   ZZ=            -14.7175
   XY=              6.5933   XZ=              0.0000   YZ=              0.0000

 Normal termination of Gaussian 16 at Fri Aug 26 21:20:53 2022.
