 Gaussian 16, Revision A.03,
 Gaussian 16:  ES64L-G16RevA.03 25-Dec-2016

 ------------------
 #p CCSD(T)/cc-pVTZ
 ------------------

 ------------
 H2O_H2O_4642
 ------------
 Symbolic Z-matrix:
 Charge =  0 Multiplicity = 1

                         Standard orientation:
 ---------------------------------------------------------------------
 Center     Atomic      Atomic             Coordinates (Angstroms)
 Number     Number       Type             X           Y           Z
 ---------------------------------------------------------------------
      1          8           0        0.037406    2.956783    0.000000
      2          1           0        0.035763    1.974183    0.000000
      3          1           0       -0.891553    3.277003    0.000000
      4          8           0        0.037406   -2.777785   -0.000000
      5          1           0        0.917947   -3.213851   -0.000000
      6          1           0       -0.660659   -3.469313   -0.000000
 ---------------------------------------------------------------------

 SCF Done:  E(RHF) =  -152.108403045     A.U. after   10 cycles
 E2 =    -0.5258019550D+00 EUMP2 =    -0.15263420500044D+03
 CCSD(T)
 CCSD(T)= -0.15266140338D+03

 The electronic state is 1-A'.
 Alpha  occ. eigenvalues --  -20.56158 -20.54977  -1.33460  -1.32284  -0.70864
 Alpha  occ. eigenvalues --   -0.69687  -0.56953  -0.55755  -0.50579  -0.49407
 Alpha virt. eigenvalues --    0.13428   0.14882   0.19707   0.21003   0.53671
 Alpha virt. eigenvalues --    0.54841   0.56689   0.57792   0.66907   0.68666
 Alpha virt. eigenvalues --    0.78306   0.79450   0.79679   0.80310   0.82552

 Mulliken charges:
               1
     1  O   -0.513975
     2  H    0.260102
     3  H    0.253785
     4  O   -0.514620
     5  H    0.257825
     6  H    0.256882
 Sum of Mulliken charges =  -0.00000

 Dipole moment (field-independent basis, Debye):
    X=             -1.2836    Y=             -3.1382    Z=             -0.0000  Tot=              3.3906
 Quadrupole moment (field-independent basis, Debye-Ang):
   XX=             -9.1597   YY=             -6.2045   ZZ=            -14.7148
   XY=             -6.3356   XZ=             -0.0000   YZ=              0.0000

 Normal termination of Gaussian 16 at Sun Aug 28 04:34:47 2022.
