 Gaussian 16, Revision A.03,
 Gaussian 16:  ES64L-G16RevA.03 25-Dec-2016

 ------------------
 #p CCSD(T)/cc-pVTZ
 ------------------

 ------------
 H2O_H2O_4310
 ------------
 Symbolic Z-matrix:
 Charge =  0 Multiplicity = 1

                         Standard orientation:
 ---------------------------------------------------------------------
 Center     Atomic      Atomic             Coordinates (Angstroms)
 Number     Number       Type             X           Y           Z
 ---------------------------------------------------------------------
      1          8           0        0.063219    2.825263    0.000000
      2          1           0        0.062298    1.842662    0.000000
      3          1           0       -0.865975    3.144801    0.000000
      4          8           0        0.063219   -2.649731   -0.000000
      5          1           0        0.660658   -3.429841   -0.000000
      6          1           0       -0.868483   -2.961881   -0.000000
 ---------------------------------------------------------------------

 SCF Done:  E(RHF) =  -152.108364730     A.U. after   10 cycles
 E2 =    -0.5258263600D+00 EUMP2 =    -0.15263419108993D+03
 CCSD(T)
 CCSD(T)= -0.15266138772D+03

 The electronic state is 1-A'.
 Alpha  occ. eigenvalues --  -20.56227 -20.54948  -1.33528  -1.32255  -0.70934
 Alpha  occ. eigenvalues --   -0.69653  -0.57018  -0.55723  -0.50645  -0.49377
 Alpha virt. eigenvalues --    0.13203   0.14984   0.19608   0.21141   0.53537
 Alpha virt. eigenvalues --    0.54889   0.56613   0.57801   0.66758   0.68854
 Alpha virt. eigenvalues --    0.78244   0.79416   0.79479   0.80238   0.82716

 Mulliken charges:
               1
     1  O   -0.513309
     2  H    0.260549
     3  H    0.252556
     4  O   -0.514181
     5  H    0.258806
     6  H    0.255580
 Sum of Mulliken charges =  -0.00000

 Dipole moment (field-independent basis, Debye):
    X=             -2.1667    Y=             -3.0870    Z=             -0.0000  Tot=              3.7715
 Quadrupole moment (field-independent basis, Debye-Ang):
   XX=             -9.4540   YY=             -6.6115   ZZ=            -14.7146
   XY=             -4.5888   XZ=             -0.0000   YZ=             -0.0000

 Normal termination of Gaussian 16 at Sun Aug 28 01:46:43 2022.
