 Gaussian 16, Revision A.03,
 Gaussian 16:  ES64L-G16RevA.03 25-Dec-2016

 ------------------
 #p CCSD(T)/cc-pVTZ
 ------------------

 ------------
 H2O_H2O_1418
 ------------
 Symbolic Z-matrix:
 Charge =  0 Multiplicity = 1

                         Standard orientation:
 ---------------------------------------------------------------------
 Center     Atomic      Atomic             Coordinates (Angstroms)
 Number     Number       Type             X           Y           Z
 ---------------------------------------------------------------------
      1          8           0        0.033877    1.669575    0.000000
      2          1           0        0.030701    0.686979    0.000000
      3          1           0       -0.894581    1.991245    0.000000
      4          8           0        0.033877   -1.492118   -0.000000
      5          1           0        0.940463   -1.871076   -0.000000
      6          1           0       -0.618613   -2.226804   -0.000000
 ---------------------------------------------------------------------

 SCF Done:  E(RHF) =  -152.114098165     A.U. after   10 cycles
 E2 =    -0.5272763704D+00 EUMP2 =    -0.15264137453505D+03
 CCSD(T)
 CCSD(T)= -0.15266835500D+03

 The electronic state is 1-A'.
 Alpha  occ. eigenvalues --  -20.58059 -20.52778  -1.35368  -1.30250  -0.72715
 Alpha  occ. eigenvalues --   -0.67979  -0.59205  -0.53555  -0.52492  -0.47402
 Alpha virt. eigenvalues --    0.12095   0.17830   0.18877   0.29535   0.50048
 Alpha virt. eigenvalues --    0.54389   0.55930   0.60383   0.68774   0.72349
 Alpha virt. eigenvalues --    0.73973   0.77024   0.81679   0.82923   0.84748

 Mulliken charges:
               1
     1  O   -0.547194
     2  H    0.279836
     3  H    0.248067
     4  O   -0.504410
     5  H    0.265375
     6  H    0.258326
 Sum of Mulliken charges =  -0.00000

 Dipole moment (field-independent basis, Debye):
    X=             -1.1362    Y=             -3.5146    Z=             -0.0000  Tot=              3.6937
 Quadrupole moment (field-independent basis, Debye-Ang):
   XX=             -9.1860   YY=             -8.3722   ZZ=            -14.7349
   XY=             -3.9201   XZ=             -0.0000   YZ=             -0.0000

 Normal termination of Gaussian 16 at Sat Aug 27 00:27:45 2022.
