 Gaussian 16, Revision A.03,
 Gaussian 16:  ES64L-G16RevA.03 25-Dec-2016

 ------------------
 #p CCSD(T)/cc-pVTZ
 ------------------

 ------------
 H2O_H2O_4078
 ------------
 Symbolic Z-matrix:
 Charge =  0 Multiplicity = 1

                         Standard orientation:
 ---------------------------------------------------------------------
 Center     Atomic      Atomic             Coordinates (Angstroms)
 Number     Number       Type             X           Y           Z
 ---------------------------------------------------------------------
      1          8           0        0.085598   -2.721431    0.000000
      2          1           0        0.085362   -1.738829    0.000000
      3          1           0       -0.843819   -3.040320    0.000000
      4          8           0        0.085598    2.571827    0.000000
      5          1           0        0.277063    3.535594    0.000000
      6          1           0       -0.888173    2.440385    0.000000
 ---------------------------------------------------------------------

 SCF Done:  E(RHF) =  -152.107970373     A.U. after   10 cycles
 E2 =    -0.5258771274D+00 EUMP2 =    -0.15263384750008D+03
 CCSD(T)
 CCSD(T)= -0.15266105116D+03

 The electronic state is 1-A'.
 Alpha  occ. eigenvalues --  -20.56290 -20.55149  -1.33591  -1.32453  -0.71005
 Alpha  occ. eigenvalues --   -0.69847  -0.57063  -0.55911  -0.50704  -0.49569
 Alpha virt. eigenvalues --    0.12618   0.14995   0.19124   0.21711   0.53176
 Alpha virt. eigenvalues --    0.54974   0.56517   0.57842   0.66745   0.68796
 Alpha virt. eigenvalues --    0.78192   0.79176   0.79297   0.81120   0.82451

 Mulliken charges:
               1
     1  O   -0.510915
     2  H    0.258986
     3  H    0.251685
     4  O   -0.511942
     5  H    0.259039
     6  H    0.253147
 Sum of Mulliken charges =   0.00000

 Dipole moment (field-independent basis, Debye):
    X=             -2.9314    Y=              2.6362    Z=              0.0000  Tot=              3.9424
 Quadrupole moment (field-independent basis, Debye-Ang):
   XX=            -10.3989   YY=             -8.2106   ZZ=            -14.7130
   XY=              2.8970   XZ=              0.0000   YZ=              0.0000

 Normal termination of Gaussian 16 at Sat Aug 27 23:20:19 2022.
