 Gaussian 16, Revision A.03,
 Gaussian 16:  ES64L-G16RevA.03 25-Dec-2016

 ------------------
 #p CCSD(T)/cc-pVTZ
 ------------------

 ------------
 H2O_H2O_3509
 ------------
 Symbolic Z-matrix:
 Charge =  0 Multiplicity = 1

                         Standard orientation:
 ---------------------------------------------------------------------
 Center     Atomic      Atomic             Coordinates (Angstroms)
 Number     Number       Type             X           Y           Z
 ---------------------------------------------------------------------
      1          8           0        0.066755    2.504847    0.000000
      2          1           0        0.065836    1.522246    0.000000
      3          1           0       -0.862440    2.824383    0.000000
      4          8           0        0.066755   -2.331735   -0.000000
      5          1           0        0.611894   -3.149248   -0.000000
      6          1           0       -0.883368   -2.582282   -0.000000
 ---------------------------------------------------------------------

 SCF Done:  E(RHF) =  -152.108872866     A.U. after   10 cycles
 E2 =    -0.5258866084D+00 EUMP2 =    -0.15263475947443D+03
 CCSD(T)
 CCSD(T)= -0.15266193356D+03

 The electronic state is 1-A'.
 Alpha  occ. eigenvalues --  -20.56445 -20.54753  -1.33737  -1.32065  -0.71144
 Alpha  occ. eigenvalues --   -0.69457  -0.57242  -0.55538  -0.50858  -0.49190
 Alpha virt. eigenvalues --    0.12621   0.15462   0.19484   0.21809   0.53384
 Alpha virt. eigenvalues --    0.55081   0.56445   0.58068   0.66986   0.69280
 Alpha virt. eigenvalues --    0.78047   0.78802   0.79655   0.80045   0.82936

 Mulliken charges:
               1
     1  O   -0.514746
     2  H    0.262184
     3  H    0.251383
     4  O   -0.514134
     5  H    0.259898
     6  H    0.255416
 Sum of Mulliken charges =  -0.00000

 Dipole moment (field-independent basis, Debye):
    X=             -2.2812    Y=             -3.0797    Z=             -0.0000  Tot=              3.8325
 Quadrupole moment (field-independent basis, Debye-Ang):
   XX=             -9.5628   YY=             -7.1790   ZZ=            -14.7164
   XY=             -4.0727   XZ=             -0.0000   YZ=              0.0000

 CCSD(T)=-152.6619336\RMSD=7.073e-09\PG=CS [SG(H4O2)]\\@
 Normal termination of Gaussian 16 at Fri Aug 26 22:06:40 2022.
