 Gaussian 16, Revision A.03,
 Gaussian 16:  ES64L-G16RevA.03 25-Dec-2016

 ------------------
 #p CCSD(T)/cc-pVTZ
 ------------------

 ------------
 H2O_H2O_3886
 ------------
 Symbolic Z-matrix:
 Charge =  0 Multiplicity = 1

                         Standard orientation:
 ---------------------------------------------------------------------
 Center     Atomic      Atomic             Coordinates (Angstroms)
 Number     Number       Type             X           Y           Z
 ---------------------------------------------------------------------
      1          8           0        0.059628    2.656790   -0.000000
      2          1           0        0.058526    1.674189   -0.000000
      3          1           0       -0.869508    2.976497   -0.000000
      4          8           0        0.059628   -2.479327    0.000000
      5          1           0        0.706674   -3.218811    0.000000
      6          1           0       -0.849732   -2.851579    0.000000
 ---------------------------------------------------------------------

 SCF Done:  E(RHF) =  -152.108685880     A.U. after   10 cycles
 E2 =    -0.5258405328D+00 EUMP2 =    -0.15263452641254D+03
 CCSD(T)
 CCSD(T)= -0.15266171117D+03

 The electronic state is 1-A'.
 Alpha  occ. eigenvalues --  -20.56326 -20.54819  -1.33623  -1.32129  -0.71028
 Alpha  occ. eigenvalues --   -0.69525  -0.57124  -0.55602  -0.50743  -0.49253
 Alpha virt. eigenvalues --    0.12957   0.15237   0.19583   0.21403   0.53469
 Alpha virt. eigenvalues --    0.54953   0.56544   0.57870   0.66700   0.69144
 Alpha virt. eigenvalues --    0.78154   0.79148   0.79595   0.79911   0.82879

 Mulliken charges:
               1
     1  O   -0.514504
     2  H    0.261671
     3  H    0.252254
     4  O   -0.514908
     5  H    0.259419
     6  H    0.256068
 Sum of Mulliken charges =  -0.00000

 Dipole moment (field-independent basis, Debye):
    X=             -2.0408    Y=             -3.1375    Z=              0.0000  Tot=              3.7429
 Quadrupole moment (field-independent basis, Debye-Ang):
   XX=             -9.3625   YY=             -6.7599   ZZ=            -14.7158
   XY=             -4.6133   XZ=              0.0000   YZ=             -0.0000

 CCSD(T)=-152.6617112\RMSD=7.109e-09\PG=CS [SG(H4O2)]\\@
 Normal termination of Gaussian 16 at Sat Aug 27 00:16:57 2022.
