 Gaussian 16, Revision A.03,
 Gaussian 16:  ES64L-G16RevA.03 25-Dec-2016

 ------------------
 #p CCSD(T)/cc-pVTZ
 ------------------

 ------------
 H2O_H2O_4993
 ------------
 Symbolic Z-matrix:
 Charge =  0 Multiplicity = 1

                         Standard orientation:
 ---------------------------------------------------------------------
 Center     Atomic      Atomic             Coordinates (Angstroms)
 Number     Number       Type             X           Y           Z
 ---------------------------------------------------------------------
      1          8           0        0.033741    3.095609   -0.000000
      2          1           0        0.032071    2.113009   -0.000000
      3          1           0       -0.895209    3.415855   -0.000000
      4          8           0        0.033741   -2.918048    0.000000
      5          1           0        0.940906   -3.295617    0.000000
      6          1           0       -0.617622   -3.653734    0.000000
 ---------------------------------------------------------------------

 SCF Done:  E(RHF) =  -152.108266182     A.U. after   10 cycles
 E2 =    -0.5258024109D+00 EUMP2 =    -0.15263406859286D+03
 CCSD(T)
 CCSD(T)= -0.15266127109D+03

 The electronic state is 1-A'.
 Alpha  occ. eigenvalues --  -20.56106 -20.55052  -1.33408  -1.32358  -0.70813
 Alpha  occ. eigenvalues --   -0.69762  -0.56895  -0.55827  -0.50526  -0.49480
 Alpha virt. eigenvalues --    0.13549   0.14753   0.19737   0.20886   0.53723
 Alpha virt. eigenvalues --    0.54791   0.56730   0.57753   0.67086   0.68471
 Alpha virt. eigenvalues --    0.78356   0.79380   0.79754   0.80578   0.82125

 Mulliken charges:
               1
     1  O   -0.513404
     2  H    0.259325
     3  H    0.254049
     4  O   -0.513938
     5  H    0.257286
     6  H    0.256683
 Sum of Mulliken charges =  -0.00000

 Dipole moment (field-independent basis, Debye):
    X=             -1.1588    Y=             -3.1053    Z=              0.0000  Tot=              3.3145
 Quadrupole moment (field-independent basis, Debye-Ang):
   XX=             -9.1873   YY=             -6.0718   ZZ=            -14.7143
   XY=             -6.8496   XZ=              0.0000   YZ=             -0.0000

 Normal termination of Gaussian 16 at Sun Aug 28 07:31:20 2022.
