 Gaussian 16, Revision A.03,
 Gaussian 16:  ES64L-G16RevA.03 25-Dec-2016

 ------------------
 #p CCSD(T)/cc-pVTZ
 ------------------

 -----------
 H2O_H2O_436
 -----------
 Symbolic Z-matrix:
 Charge =  0 Multiplicity = 1

                         Standard orientation:
 ---------------------------------------------------------------------
 Center     Atomic      Atomic             Coordinates (Angstroms)
 Number     Number       Type             X           Y           Z
 ---------------------------------------------------------------------
      1          8           0        0.059742    1.280588   -0.000000
      2          1           0        0.057370    0.297989   -0.000000
      3          1           0       -0.868979    1.601497   -0.000000
      4          8           0        0.059742   -1.103279    0.000000
      5          1           0        0.705831   -1.843600    0.000000
      6          1           0       -0.850098   -1.474355    0.000000
 ---------------------------------------------------------------------

 SCF Done:  E(RHF) =  -152.095062837     A.U. after   11 cycles
 E2 =    -0.5325024766D+00 EUMP2 =    -0.15262756531388D+03
 CCSD(T)
 CCSD(T)= -0.15265383356D+03

 The electronic state is 1-A'.
 Alpha  occ. eigenvalues --  -20.60476 -20.48415  -1.39244  -1.27052  -0.75992
 Alpha  occ. eigenvalues --   -0.71803  -0.58019  -0.55713  -0.48984  -0.43945
 Alpha virt. eigenvalues --    0.11090   0.17110   0.20209   0.33336   0.47823
 Alpha virt. eigenvalues --    0.53289   0.61423   0.62994   0.71537   0.72157
 Alpha virt. eigenvalues --    0.74838   0.79033   0.80296   0.83035   0.84031

 Mulliken charges:
               1
     1  O   -0.614900
     2  H    0.309921
     3  H    0.219418
     4  O   -0.412540
     5  H    0.251238
     6  H    0.246863
 Sum of Mulliken charges =  -0.00000

 Dipole moment (field-independent basis, Debye):
    X=             -1.8918    Y=             -4.3313    Z=              0.0000  Tot=              4.7264
 Quadrupole moment (field-independent basis, Debye-Ang):
   XX=             -9.3535   YY=             -9.5138   ZZ=            -14.6565
   XY=             -2.9214   XZ=              0.0000   YZ=             -0.0000

 Normal termination of Gaussian 16 at Fri Aug 26 18:15:11 2022.
