 Gaussian 16, Revision A.03,
 Gaussian 16:  ES64L-G16RevA.03 25-Dec-2016

 ------------------
 #p CCSD(T)/cc-pVTZ
 ------------------

 ------------
 H2O_H2O_1002
 ------------
 Symbolic Z-matrix:
 Charge =  0 Multiplicity = 1

                         Standard orientation:
 ---------------------------------------------------------------------
 Center     Atomic      Atomic             Coordinates (Angstroms)
 Number     Number       Type             X           Y           Z
 ---------------------------------------------------------------------
      1          8           0        0.088239   -1.492003    0.000000
      2          1           0        0.087957   -0.509402    0.000000
      3          1           0       -0.841162   -1.810937    0.000000
      4          8           0        0.088239    1.347703    0.000000
      5          1           0        0.216215    2.321935    0.000000
      6          1           0       -0.874840    1.152809    0.000000
 ---------------------------------------------------------------------

 SCF Done:  E(RHF) =  -152.107683019     A.U. after   10 cycles
 E2 =    -0.5294021128D+00 EUMP2 =    -0.15263708513162D+03
 CCSD(T)
 CCSD(T)= -0.15266402352D+03

 The electronic state is 1-A'.
 Alpha  occ. eigenvalues --  -20.58718 -20.53137  -1.36354  -1.30687  -0.74424
 Alpha  occ. eigenvalues --   -0.68193  -0.59564  -0.53844  -0.53277  -0.47752
 Alpha virt. eigenvalues --    0.11481   0.16534   0.20415   0.30785   0.48407
 Alpha virt. eigenvalues --    0.53474   0.58303   0.60482   0.68521   0.72024
 Alpha virt. eigenvalues --    0.74238   0.77842   0.80466   0.81952   0.83288

 Mulliken charges:
               1
     1  O   -0.540040
     2  H    0.285085
     3  H    0.231340
     4  O   -0.448553
     5  H    0.236050
     6  H    0.236117
 Sum of Mulliken charges =  -0.00000

 Dipole moment (field-independent basis, Debye):
    X=             -2.9040    Y=              3.0386    Z=              0.0000  Tot=              4.2032
 Quadrupole moment (field-independent basis, Debye-Ang):
   XX=            -10.6063   YY=             -9.0401   ZZ=            -14.6967
   XY=              2.3896   XZ=              0.0000   YZ=              0.0000

 Normal termination of Gaussian 16 at Fri Aug 26 21:50:32 2022.
