 Gaussian 16, Revision A.03,
 Gaussian 16:  ES64L-G16RevA.03 25-Dec-2016

 ------------------
 #p CCSD(T)/cc-pVTZ
 ------------------

 ------------
 H2O_H2O_4648
 ------------
 Symbolic Z-matrix:
 Charge =  0 Multiplicity = 1

                         Standard orientation:
 ---------------------------------------------------------------------
 Center     Atomic      Atomic             Coordinates (Angstroms)
 Number     Number       Type             X           Y           Z
 ---------------------------------------------------------------------
      1          8           0       -0.016576    2.948320    0.000000
      2          1           0       -0.014317    1.965721    0.000000
      3          1           0        0.912181    3.269122    0.000000
      4          8           0       -0.016576   -2.784909    0.000000
      5          1           0       -0.996925   -2.851429    0.000000
      6          1           0        0.364283   -3.690697    0.000000
 ---------------------------------------------------------------------

 SCF Done:  E(RHF) =  -152.108366450     A.U. after   10 cycles
 E2 =    -0.5257993220D+00 EUMP2 =    -0.15263416577193D+03
 CCSD(T)
 CCSD(T)= -0.15266136571D+03

 The electronic state is 1-A'.
 Alpha  occ. eigenvalues --  -20.56155 -20.55087  -1.33458  -1.32394  -0.70864
 Alpha  occ. eigenvalues --   -0.69800  -0.56948  -0.55866  -0.50576  -0.49517
 Alpha virt. eigenvalues --    0.13317   0.14833   0.19478   0.21166   0.53510
 Alpha virt. eigenvalues --    0.54863   0.56688   0.57752   0.66922   0.68565
 Alpha virt. eigenvalues --    0.78308   0.79342   0.79606   0.80723   0.82221

 Mulliken charges:
               1
     1  O   -0.514027
     2  H    0.259139
     3  H    0.254816
     4  O   -0.514526
     5  H    0.256876
     6  H    0.257722
 Sum of Mulliken charges =  -0.00000

 Dipole moment (field-independent basis, Debye):
    X=              0.5702    Y=             -2.8634    Z=              0.0000  Tot=              2.9196
 Quadrupole moment (field-independent basis, Debye-Ang):
   XX=             -9.5438   YY=             -7.1523   ZZ=            -14.7146
   XY=              7.7415   XZ=              0.0000   YZ=              0.0000

 Normal termination of Gaussian 16 at Sun Aug 28 04:36:57 2022.
