 Gaussian 16, Revision A.03,
 Gaussian 16:  ES64L-G16RevA.03 25-Dec-2016

 ------------------
 #p CCSD(T)/cc-pVTZ
 ------------------

 ----------
 H2O_H2O_56
 ----------
 Symbolic Z-matrix:
 Charge =  0 Multiplicity = 1

                         Standard orientation:
 ---------------------------------------------------------------------
 Center     Atomic      Atomic             Coordinates (Angstroms)
 Number     Number       Type             X           Y           Z
 ---------------------------------------------------------------------
      1          8           0        0.076817   -1.123285    0.000000
      2          1           0        0.075498   -0.140685    0.000000
      3          1           0       -0.852247   -1.443199    0.000000
      4          8           0        0.076817    0.960188    0.000000
      5          1           0        0.451624    1.868497    0.000000
      6          1           0       -0.903952    1.020163    0.000000
 ---------------------------------------------------------------------

 SCF Done:  E(RHF) =  -152.033978798     A.U. after   11 cycles
 E2 =    -0.5376516999D+00 EUMP2 =    -0.15257163049773D+03
 CCSD(T)
 CCSD(T)= -0.15259715461D+03

 The electronic state is 1-A'.
 Alpha  occ. eigenvalues --  -20.61953 -20.45415  -1.44154  -1.25333  -0.82388
 Alpha  occ. eigenvalues --   -0.74083  -0.58553  -0.55110  -0.45804  -0.41942
 Alpha virt. eigenvalues --    0.10388   0.15866   0.21599   0.31889   0.49346
 Alpha virt. eigenvalues --    0.51422   0.60167   0.64652   0.70640   0.71926
 Alpha virt. eigenvalues --    0.76642   0.79143   0.81485   0.85127   0.87823

 Mulliken charges:
               1
     1  O   -0.639757
     2  H    0.270307
     3  H    0.190406
     4  O   -0.292081
     5  H    0.230481
     6  H    0.240644
 Sum of Mulliken charges =  -0.00000

 Dipole moment (field-independent basis, Debye):
    X=             -2.3364    Y=              4.6592    Z=              0.0000  Tot=              5.2122
 Quadrupole moment (field-independent basis, Debye-Ang):
   XX=             -9.9080   YY=            -10.0671   ZZ=            -14.5273
   XY=              2.4779   XZ=              0.0000   YZ=              0.0000

 Normal termination of Gaussian 16 at Fri Aug 26 15:34:02 2022.
