 Gaussian 16, Revision A.03,
 Gaussian 16:  ES64L-G16RevA.03 25-Dec-2016

 ------------------
 #p CCSD(T)/cc-pVTZ
 ------------------

 ------------
 H2O_H2O_1041
 ------------
 Symbolic Z-matrix:
 Charge =  0 Multiplicity = 1

                         Standard orientation:
 ---------------------------------------------------------------------
 Center     Atomic      Atomic             Coordinates (Angstroms)
 Number     Number       Type             X           Y           Z
 ---------------------------------------------------------------------
      1          8           0        0.041244    1.521285   -0.000000
      2          1           0        0.038172    0.538689   -0.000000
      3          1           0       -0.887248    1.842856   -0.000000
      4          8           0        0.041244   -1.341456    0.000000
      5          1           0        0.890661   -1.835414    0.000000
      6          1           0       -0.701491   -1.984767    0.000000
 ---------------------------------------------------------------------

 SCF Done:  E(RHF) =  -152.113687664     A.U. after   10 cycles
 E2 =    -0.5284587237D+00 EUMP2 =    -0.15264214638738D+03
 CCSD(T)
 CCSD(T)= -0.15266900184D+03

 The electronic state is 1-A'.
 Alpha  occ. eigenvalues --  -20.58755 -20.51656  -1.36232  -1.29332  -0.73445
 Alpha  occ. eigenvalues --   -0.68040  -0.59727  -0.53297  -0.52365  -0.46450
 Alpha virt. eigenvalues --    0.11872   0.18203   0.18816   0.31810   0.48611
 Alpha virt. eigenvalues --    0.54699   0.56479   0.61433   0.68848   0.71721
 Alpha virt. eigenvalues --    0.72823   0.77449   0.82374   0.82626   0.84834

 Mulliken charges:
               1
     1  O   -0.567345
     2  H    0.296084
     3  H    0.242049
     4  O   -0.494446
     5  H    0.266297
     6  H    0.257360
 Sum of Mulliken charges =  -0.00000

 Dipole moment (field-independent basis, Debye):
    X=             -1.3641    Y=             -3.7656    Z=              0.0000  Tot=              4.0051
 Quadrupole moment (field-independent basis, Debye-Ang):
   XX=             -9.1448   YY=             -8.7253   ZZ=            -14.7279
   XY=             -3.5046   XZ=              0.0000   YZ=             -0.0000

 CCSD(T)=-152.6690018\RMSD=7.379e-09\PG=CS [SG(H4O2)]\\@
 Normal termination of Gaussian 16 at Fri Aug 26 22:05:54 2022.
