 Gaussian 16, Revision A.03,
 Gaussian 16:  ES64L-G16RevA.03 25-Dec-2016

 ------------------
 #p CCSD(T)/cc-pVTZ
 ------------------

 ------------
 H2O_H2O_4215
 ------------
 Symbolic Z-matrix:
 Charge =  0 Multiplicity = 1

                         Standard orientation:
 ---------------------------------------------------------------------
 Center     Atomic      Atomic             Coordinates (Angstroms)
 Number     Number       Type             X           Y           Z
 ---------------------------------------------------------------------
      1          8           0        0.044831    2.788036   -0.000000
      2          1           0        0.043318    1.805435   -0.000000
      3          1           0       -0.884170    3.108133   -0.000000
      4          8           0        0.044831   -2.607609    0.000000
      5          1           0        0.860993   -3.154771    0.000000
      6          1           0       -0.737445   -3.202209    0.000000
 ---------------------------------------------------------------------

 SCF Done:  E(RHF) =  -152.108606318     A.U. after   10 cycles
 E2 =    -0.5258112604D+00 EUMP2 =    -0.15263441757816D+03
 CCSD(T)
 CCSD(T)= -0.15266160839D+03

 The electronic state is 1-A'.
 Alpha  occ. eigenvalues --  -20.56241 -20.54870  -1.33541  -1.32180  -0.70944
 Alpha  occ. eigenvalues --   -0.69580  -0.57041  -0.55654  -0.50661  -0.49305
 Alpha virt. eigenvalues --    0.13219   0.15080   0.19670   0.21186   0.53606
 Alpha virt. eigenvalues --    0.54883   0.56625   0.57815   0.66708   0.68958
 Alpha virt. eigenvalues --    0.78229   0.79547   0.79617   0.79796   0.82817

 Mulliken charges:
               1
     1  O   -0.514662
     2  H    0.261153
     3  H    0.253230
     4  O   -0.515289
     5  H    0.258654
     6  H    0.256914
 Sum of Mulliken charges =  -0.00000

 Dipole moment (field-independent basis, Debye):
    X=             -1.5363    Y=             -3.1764    Z=              0.0000  Tot=              3.5284
 Quadrupole moment (field-independent basis, Debye-Ang):
   XX=             -9.1568   YY=             -6.4008   ZZ=            -14.7155
   XY=             -5.5985   XZ=              0.0000   YZ=             -0.0000

 Normal termination of Gaussian 16 at Sun Aug 28 00:52:43 2022.
