 Gaussian 16, Revision A.03,
 Gaussian 16:  ES64L-G16RevA.03 25-Dec-2016

 ------------------
 #p CCSD(T)/cc-pVTZ
 ------------------

 ------------
 H2O_H2O_2144
 ------------
 Symbolic Z-matrix:
 Charge =  0 Multiplicity = 1

                         Standard orientation:
 ---------------------------------------------------------------------
 Center     Atomic      Atomic             Coordinates (Angstroms)
 Number     Number       Type             X           Y           Z
 ---------------------------------------------------------------------
      1          8           0        0.030233    1.957738   -0.000000
      2          1           0        0.027384    0.975141   -0.000000
      3          1           0       -0.898332    2.279098   -0.000000
      4          8           0        0.030233   -1.782161    0.000000
      5          1           0        0.959769   -2.100704    0.000000
      6          1           0       -0.572551   -2.558150    0.000000
 ---------------------------------------------------------------------

 SCF Done:  E(RHF) =  -152.111955735     A.U. after   10 cycles
 E2 =    -0.5262760840D+00 EUMP2 =    -0.15263823181855D+03
 CCSD(T)
 CCSD(T)= -0.15266530868D+03

 The electronic state is 1-A'.
 Alpha  occ. eigenvalues --  -20.57207 -20.53876  -1.34465  -1.31226  -0.71858
 Alpha  occ. eigenvalues --   -0.68648  -0.58129  -0.54701  -0.51604  -0.48380
 Alpha virt. eigenvalues --    0.12271   0.16856   0.19196   0.25628   0.52475
 Alpha virt. eigenvalues --    0.55037   0.56368   0.58800   0.69026   0.72166
 Alpha virt. eigenvalues --    0.76646   0.78210   0.80523   0.83534   0.83797

 Mulliken charges:
               1
     1  O   -0.528909
     2  H    0.267857
     3  H    0.251716
     4  O   -0.509913
     5  H    0.261300
     6  H    0.257948
 Sum of Mulliken charges =  -0.00000

 Dipole moment (field-independent basis, Debye):
    X=             -1.0263    Y=             -3.2749    Z=              0.0000  Tot=              3.4319
 Quadrupole moment (field-independent basis, Debye-Ang):
   XX=             -9.2304   YY=             -7.8703   ZZ=            -14.7271
   XY=             -4.6302   XZ=              0.0000   YZ=             -0.0000

 Normal termination of Gaussian 16 at Sun Aug 28 04:41:57 2022.
