 Gaussian 16, Revision A.03,
 Gaussian 16:  ES64L-G16RevA.03 25-Dec-2016

 ------------------
 #p CCSD(T)/cc-pVTZ
 ------------------

 -----------
 H2O_H2O_958
 -----------
 Symbolic Z-matrix:
 Charge =  0 Multiplicity = 1

                         Standard orientation:
 ---------------------------------------------------------------------
 Center     Atomic      Atomic             Coordinates (Angstroms)
 Number     Number       Type             X           Y           Z
 ---------------------------------------------------------------------
      1          8           0        0.070244    1.486116   -0.000000
      2          1           0        0.068866    0.503515   -0.000000
      3          1           0       -0.858801    1.806085   -0.000000
      4          8           0        0.070244   -1.315946    0.000000
      5          1           0        0.560351   -2.167592    0.000000
      6          1           0       -0.894318   -1.503365    0.000000
 ---------------------------------------------------------------------

 SCF Done:  E(RHF) =  -152.111228026     A.U. after   10 cycles
 E2 =    -0.5291058067D+00 EUMP2 =    -0.15264033383258D+03
 CCSD(T)
 CCSD(T)= -0.15266717198D+03

 The electronic state is 1-A'.
 Alpha  occ. eigenvalues --  -20.58907 -20.51890  -1.36487  -1.29572  -0.73920
 Alpha  occ. eigenvalues --   -0.68218  -0.59672  -0.53487  -0.52585  -0.46657
 Alpha virt. eigenvalues --    0.11618   0.17186   0.19633   0.31793   0.48221
 Alpha virt. eigenvalues --    0.54458   0.59027   0.59560   0.69769   0.72553
 Alpha virt. eigenvalues --    0.73844   0.76864   0.81609   0.82631   0.84269

 Mulliken charges:
               1
     1  O   -0.560541
     2  H    0.296098
     3  H    0.233636
     4  O   -0.468534
     5  H    0.249895
     6  H    0.249446
 Sum of Mulliken charges =  -0.00000

 Dipole moment (field-independent basis, Debye):
    X=             -2.3080    Y=             -3.6103    Z=             -0.0000  Tot=              4.2850
 Quadrupole moment (field-independent basis, Debye-Ang):
   XX=             -9.7085   YY=             -8.8312   ZZ=            -14.7133
   XY=             -3.0389   XZ=              0.0000   YZ=             -0.0000

 Normal termination of Gaussian 16 at Fri Aug 26 21:34:32 2022.
