 Gaussian 16, Revision A.03,
 Gaussian 16:  ES64L-G16RevA.03 25-Dec-2016

 ------------------
 #p CCSD(T)/cc-pVTZ
 ------------------

 ------------
 H2O_H2O_2068
 ------------
 Symbolic Z-matrix:
 Charge =  0 Multiplicity = 1

                         Standard orientation:
 ---------------------------------------------------------------------
 Center     Atomic      Atomic             Coordinates (Angstroms)
 Number     Number       Type             X           Y           Z
 ---------------------------------------------------------------------
      1          8           0        0.033836    1.928860    0.000000
      2          1           0        0.031108    0.946262    0.000000
      3          1           0       -0.894768    2.250106    0.000000
      4          8           0        0.033836   -1.751372   -0.000000
      5          1           0        0.940595   -2.129917   -0.000000
      6          1           0       -0.618318   -2.486355   -0.000000
 ---------------------------------------------------------------------

 SCF Done:  E(RHF) =  -152.112220810     A.U. after   10 cycles
 E2 =    -0.5263375347D+00 EUMP2 =    -0.15263855834420D+03
 CCSD(T)
 CCSD(T)= -0.15266562722D+03

 The electronic state is 1-A'.
 Alpha  occ. eigenvalues --  -20.57282 -20.53767  -1.34537  -1.31124  -0.71925
 Alpha  occ. eigenvalues --   -0.68552  -0.58221  -0.54591  -0.51677  -0.48278
 Alpha virt. eigenvalues --    0.12261   0.16956   0.19168   0.25970   0.52134
 Alpha virt. eigenvalues --    0.54948   0.56397   0.58883   0.69069   0.72322
 Alpha virt. eigenvalues --    0.76436   0.77904   0.80636   0.83487   0.84163

 Mulliken charges:
               1
     1  O   -0.529924
     2  H    0.268605
     3  H    0.250960
     4  O   -0.509336
     5  H    0.261697
     6  H    0.257997
 Sum of Mulliken charges =  -0.00000

 Dipole moment (field-independent basis, Debye):
    X=             -1.1467    Y=             -3.3262    Z=             -0.0000  Tot=              3.5183
 Quadrupole moment (field-independent basis, Debye-Ang):
   XX=             -9.1873   YY=             -7.8779   ZZ=            -14.7283
   XY=             -4.4609   XZ=             -0.0000   YZ=             -0.0000

 Normal termination of Gaussian 16 at Sun Aug 28 04:06:02 2022.
