 Gaussian 16, Revision A.03,
 Gaussian 16:  ES64L-G16RevA.03 25-Dec-2016

 ------------------
 #p CCSD(T)/cc-pVTZ
 ------------------

 -----------
 H2O_H2O_105
 -----------
 Symbolic Z-matrix:
 Charge =  0 Multiplicity = 1

                         Standard orientation:
 ---------------------------------------------------------------------
 Center     Atomic      Atomic             Coordinates (Angstroms)
 Number     Number       Type             X           Y           Z
 ---------------------------------------------------------------------
      1          8           0        0.079897   -1.140986    0.000000
      2          1           0        0.078850   -0.158385    0.000000
      3          1           0       -0.849256   -1.460643    0.000000
      4          8           0        0.079897    0.982015    0.000000
      5          1           0        0.394752    1.912807    0.000000
      6          1           0       -0.902697    0.977989    0.000000
 ---------------------------------------------------------------------

 SCF Done:  E(RHF) =  -152.044342080     A.U. after   11 cycles
 E2 =    -0.5373319372D+00 EUMP2 =    -0.15258167401736D+03
 CCSD(T)
 CCSD(T)= -0.15260731566D+03

 The electronic state is 1-A'.
 Alpha  occ. eigenvalues --  -20.61694 -20.46314  -1.43355  -1.25900  -0.81909
 Alpha  occ. eigenvalues --   -0.72908  -0.58048  -0.55828  -0.46811  -0.42593
 Alpha virt. eigenvalues --    0.10523   0.15952   0.21498   0.32007   0.49392
 Alpha virt. eigenvalues --    0.51486   0.60043   0.64997   0.71026   0.72219
 Alpha virt. eigenvalues --    0.76379   0.78804   0.81015   0.85573   0.86712

 Mulliken charges:
               1
     1  O   -0.626467
     2  H    0.272895
     3  H    0.193091
     4  O   -0.308231
     5  H    0.229863
     6  H    0.238849
 Sum of Mulliken charges =  -0.00000

 Dipole moment (field-independent basis, Debye):
    X=             -2.4519    Y=              4.4615    Z=              0.0000  Tot=              5.0908
 Quadrupole moment (field-independent basis, Debye-Ang):
   XX=            -10.0623   YY=             -9.9489   ZZ=            -14.5413
   XY=              2.4385   XZ=              0.0000   YZ=              0.0000

 Normal termination of Gaussian 16 at Fri Aug 26 15:53:33 2022.
