 Gaussian 16, Revision A.03,
 Gaussian 16:  ES64L-G16RevA.03 25-Dec-2016

 ------------------
 #p CCSD(T)/cc-pVTZ
 ------------------

 ------------
 H2O_H2O_1928
 ------------
 Symbolic Z-matrix:
 Charge =  0 Multiplicity = 1

                         Standard orientation:
 ---------------------------------------------------------------------
 Center     Atomic      Atomic             Coordinates (Angstroms)
 Number     Number       Type             X           Y           Z
 ---------------------------------------------------------------------
      1          8           0        0.085606   -1.863834    0.000000
      2          1           0        0.085258   -0.881233    0.000000
      3          1           0       -0.843773   -2.182831    0.000000
      4          8           0        0.085606    1.714250    0.000000
      5          1           0        0.276961    2.678041    0.000000
      6          1           0       -0.888149    1.582697    0.000000
 ---------------------------------------------------------------------

 SCF Done:  E(RHF) =  -152.110063720     A.U. after   10 cycles
 E2 =    -0.5267264826D+00 EUMP2 =    -0.15263679020282D+03
 CCSD(T)
 CCSD(T)= -0.15266389214D+03

 The electronic state is 1-A'.
 Alpha  occ. eigenvalues --  -20.57392 -20.54391  -1.34681  -1.31721  -0.72176
 Alpha  occ. eigenvalues --   -0.69070  -0.58235  -0.55146  -0.51785  -0.48842
 Alpha virt. eigenvalues --    0.11670   0.16340   0.19876   0.25938   0.51538
 Alpha virt. eigenvalues --    0.55587   0.56839   0.57709   0.68628   0.73780
 Alpha virt. eigenvalues --    0.75879   0.78518   0.80248   0.83062   0.83096

 Mulliken charges:
               1
     1  O   -0.519449
     2  H    0.267540
     3  H    0.244139
     4  O   -0.499765
     5  H    0.258215
     6  H    0.249321
 Sum of Mulliken charges =  -0.00000

 Dipole moment (field-independent basis, Debye):
    X=             -2.8848    Y=              2.8141    Z=              0.0000  Tot=              4.0300
 Quadrupole moment (field-independent basis, Debye-Ang):
   XX=            -10.4318   YY=             -8.6362   ZZ=            -14.7191
   XY=              2.6635   XZ=              0.0000   YZ=              0.0000

 Normal termination of Gaussian 16 at Sun Aug 28 02:51:33 2022.
