 Gaussian 16, Revision A.03,
 Gaussian 16:  ES64L-G16RevA.03 25-Dec-2016

 ------------------
 #p CCSD(T)/cc-pVTZ
 ------------------

 -----------
 H2O_H2O_555
 -----------
 Symbolic Z-matrix:
 Charge =  0 Multiplicity = 1

                         Standard orientation:
 ---------------------------------------------------------------------
 Center     Atomic      Atomic             Coordinates (Angstroms)
 Number     Number       Type             X           Y           Z
 ---------------------------------------------------------------------
      1          8           0        0.079885   -1.320493    0.000000
      2          1           0        0.078989   -0.337892    0.000000
      3          1           0       -0.849318   -1.640006    0.000000
      4          8           0        0.079885    1.161497    0.000000
      5          1           0        0.394884    2.092240    0.000000
      6          1           0       -0.902709    1.157624    0.000000
 ---------------------------------------------------------------------

 SCF Done:  E(RHF) =  -152.098350404     A.U. after   11 cycles
 E2 =    -0.5321871942D+00 EUMP2 =    -0.15263053759828D+03
 CCSD(T)
 CCSD(T)= -0.15265704453D+03

 The electronic state is 1-A'.
 Alpha  occ. eigenvalues --  -20.59946 -20.50440  -1.38412  -1.28587  -0.76494
 Alpha  occ. eigenvalues --   -0.69143  -0.59156  -0.54952  -0.51108  -0.45559
 Alpha virt. eigenvalues --    0.11213   0.16669   0.20450   0.32761   0.48448
 Alpha virt. eigenvalues --    0.53010   0.59185   0.63581   0.71209   0.71948
 Alpha virt. eigenvalues --    0.74045   0.78424   0.78939   0.83706   0.83974

 Mulliken charges:
               1
     1  O   -0.580543
     2  H    0.296452
     3  H    0.219228
     4  O   -0.406294
     5  H    0.234473
     6  H    0.236684
 Sum of Mulliken charges =  -0.00000

 Dipole moment (field-independent basis, Debye):
    X=             -2.5629    Y=              3.7485    Z=              0.0000  Tot=              4.5409
 Quadrupole moment (field-independent basis, Debye-Ang):
   XX=            -10.1242   YY=             -9.2823   ZZ=            -14.6584
   XY=              2.6368   XZ=              0.0000   YZ=              0.0000

 Normal termination of Gaussian 16 at Fri Aug 26 19:02:14 2022.
