 Gaussian 16, Revision A.03,
 Gaussian 16:  ES64L-G16RevA.03 25-Dec-2016

 ------------------
 #p CCSD(T)/cc-pVTZ
 ------------------

 ------------
 H2O_H2O_4739
 ------------
 Symbolic Z-matrix:
 Charge =  0 Multiplicity = 1

                         Standard orientation:
 ---------------------------------------------------------------------
 Center     Atomic      Atomic             Coordinates (Angstroms)
 Number     Number       Type             X           Y           Z
 ---------------------------------------------------------------------
      1          8           0        0.048549    2.997444   -0.000000
      2          1           0        0.047253    2.014844   -0.000000
      3          1           0       -0.880523    3.317336   -0.000000
      4          8           0        0.048549   -2.817019    0.000000
      5          1           0        0.827311   -3.416216    0.000000
      6          1           0       -0.770822   -3.359364    0.000000
 ---------------------------------------------------------------------

 SCF Done:  E(RHF) =  -152.108308997     A.U. after   10 cycles
 E2 =    -0.5258080675D+00 EUMP2 =    -0.15263411706453D+03
 CCSD(T)
 CCSD(T)= -0.15266131764D+03

 The electronic state is 1-A'.
 Alpha  occ. eigenvalues --  -20.56146 -20.54992  -1.33447  -1.32298  -0.70852
 Alpha  occ. eigenvalues --   -0.69700  -0.56936  -0.55767  -0.50566  -0.49420
 Alpha virt. eigenvalues --    0.13467   0.14838   0.19726   0.20953   0.53700
 Alpha virt. eigenvalues --    0.54824   0.56694   0.57783   0.66962   0.68617
 Alpha virt. eigenvalues --    0.78319   0.79438   0.79727   0.80341   0.82464

 Mulliken charges:
               1
     1  O   -0.513420
     2  H    0.259967
     3  H    0.253387
     4  O   -0.514127
     5  H    0.257958
     6  H    0.256235
 Sum of Mulliken charges =  -0.00000

 Dipole moment (field-independent basis, Debye):
    X=             -1.6659    Y=             -3.1612    Z=              0.0000  Tot=              3.5733
 Quadrupole moment (field-independent basis, Debye-Ang):
   XX=             -9.1821   YY=             -6.0599   ZZ=            -14.7145
   XY=             -5.7141   XZ=              0.0000   YZ=             -0.0000

 Normal termination of Gaussian 16 at Sun Aug 28 05:30:07 2022.
