 Gaussian 16, Revision A.03,
 Gaussian 16:  ES64L-G16RevA.03 25-Dec-2016

 ------------------
 #p CCSD(T)/cc-pVTZ
 ------------------

 ------------
 H2O_H2O_2734
 ------------
 Symbolic Z-matrix:
 Charge =  0 Multiplicity = 1

                         Standard orientation:
 ---------------------------------------------------------------------
 Center     Atomic      Atomic             Coordinates (Angstroms)
 Number     Number       Type             X           Y           Z
 ---------------------------------------------------------------------
      1          8           0        0.066767    2.195708    0.000000
      2          1           0        0.065713    1.213108    0.000000
      3          1           0       -0.862384    2.515372    0.000000
      4          8           0        0.066767   -2.022614   -0.000000
      5          1           0        0.611795   -2.840202   -0.000000
      6          1           0       -0.883390   -2.273032   -0.000000
 ---------------------------------------------------------------------

 SCF Done:  E(RHF) =  -152.109911082     A.U. after   10 cycles
 E2 =    -0.5260553758D+00 EUMP2 =    -0.15263596645831D+03
 CCSD(T)
 CCSD(T)= -0.15266309926D+03

 The electronic state is 1-A'.
 Alpha  occ. eigenvalues --  -20.56798 -20.54420  -1.34072  -1.31740  -0.71480
 Alpha  occ. eigenvalues --   -0.69125  -0.57616  -0.55218  -0.51199  -0.48873
 Alpha virt. eigenvalues --    0.12236   0.16082   0.19417   0.23298   0.53316
 Alpha virt. eigenvalues --    0.55518   0.56179   0.58765   0.68855   0.69615
 Alpha virt. eigenvalues --    0.77638   0.79053   0.79969   0.80083   0.83256

 Mulliken charges:
               1
     1  O   -0.518518
     2  H    0.264943
     3  H    0.249483
     4  O   -0.510999
     5  H    0.260052
     6  H    0.255039
 Sum of Mulliken charges =  -0.00000

 Dipole moment (field-independent basis, Debye):
    X=             -2.2716    Y=             -3.1428    Z=             -0.0000  Tot=              3.8778
 Quadrupole moment (field-independent basis, Debye-Ang):
   XX=             -9.5675   YY=             -7.5970   ZZ=            -14.7196
   XY=             -3.7905   XZ=             -0.0000   YZ=              0.0000

 CCSD(T)=-152.6630993\RMSD=6.861e-09\PG=CS [SG(H4O2)]\\@
 Normal termination of Gaussian 16 at Fri Aug 26 16:54:35 2022.
