 Gaussian 16, Revision A.03,
 Gaussian 16:  ES64L-G16RevA.03 25-Dec-2016

 ------------------
 #p CCSD(T)/cc-pVTZ
 ------------------

 -----------
 H2O_H2O_749
 -----------
 Symbolic Z-matrix:
 Charge =  0 Multiplicity = 1

                         Standard orientation:
 ---------------------------------------------------------------------
 Center     Atomic      Atomic             Coordinates (Angstroms)
 Number     Number       Type             X           Y           Z
 ---------------------------------------------------------------------
      1          8           0        0.013695   -1.390426    0.000000
      2          1           0        0.008553   -0.407838    0.000000
      3          1           0       -0.914118   -1.713951    0.000000
      4          8           0        0.013695    1.231224    0.000000
      5          1           0        0.996283    1.236365    0.000000
      6          1           0       -0.309831    2.159037    0.000000
 ---------------------------------------------------------------------

 SCF Done:  E(RHF) =  -152.107247280     A.U. after   10 cycles
 E2 =    -0.5301326553D+00 EUMP2 =    -0.15263737993492D+03
 CCSD(T)
 CCSD(T)= -0.15266406519D+03

 The electronic state is 1-A'.
 Alpha  occ. eigenvalues --  -20.59309 -20.51026  -1.37296  -1.28961  -0.75240
 Alpha  occ. eigenvalues --   -0.68015  -0.60090  -0.54112  -0.51597  -0.46034
 Alpha virt. eigenvalues --    0.11828   0.18202   0.19190   0.33357   0.48281
 Alpha virt. eigenvalues --    0.53805   0.57038   0.66193   0.68369   0.72121
 Alpha virt. eigenvalues --    0.74610   0.76257   0.80003   0.83441   0.84043

 Mulliken charges:
               1
     1  O   -0.591374
     2  H    0.293836
     3  H    0.248099
     4  O   -0.443254
     5  H    0.257767
     6  H    0.234926
 Sum of Mulliken charges =  -0.00000

 Dipole moment (field-independent basis, Debye):
    X=             -0.4625    Y=              3.5774    Z=              0.0000  Tot=              3.6072
 Quadrupole moment (field-independent basis, Debye-Ang):
   XX=             -9.6177   YY=             -9.1130   ZZ=            -14.6926
   XY=              3.7061   XZ=              0.0000   YZ=              0.0000

 Normal termination of Gaussian 16 at Fri Aug 26 20:16:18 2022.
