 Gaussian 16, Revision A.03,
 Gaussian 16:  ES64L-G16RevA.03 25-Dec-2016

 ------------------
 #p CCSD(T)/cc-pVTZ
 ------------------

 ------------
 H2O_H2O_4227
 ------------
 Symbolic Z-matrix:
 Charge =  0 Multiplicity = 1

                         Standard orientation:
 ---------------------------------------------------------------------
 Center     Atomic      Atomic             Coordinates (Angstroms)
 Number     Number       Type             X           Y           Z
 ---------------------------------------------------------------------
      1          8           0        0.088229   -2.778395    0.000000
      2          1           0        0.088081   -1.795793    0.000000
      3          1           0       -0.841216   -3.097201    0.000000
      4          8           0        0.088229    2.634070    0.000000
      5          1           0        0.216339    3.608285    0.000000
      6          1           0       -0.874876    2.439308    0.000000
 ---------------------------------------------------------------------

 SCF Done:  E(RHF) =  -152.107835126     A.U. after   10 cycles
 E2 =    -0.5258759300D+00 EUMP2 =    -0.15263371105568D+03
 CCSD(T)
 CCSD(T)= -0.15266091927D+03

 The electronic state is 1-A'.
 Alpha  occ. eigenvalues --  -20.56260 -20.55222  -1.33561  -1.32524  -0.70976
 Alpha  occ. eigenvalues --   -0.69920  -0.57028  -0.55979  -0.50673  -0.49639
 Alpha virt. eigenvalues --    0.12657   0.14898   0.19036   0.21711   0.53184
 Alpha virt. eigenvalues --    0.54922   0.56530   0.57785   0.66796   0.68666
 Alpha virt. eigenvalues --    0.78221   0.79230   0.79374   0.81271   0.82180

 Mulliken charges:
               1
     1  O   -0.510359
     2  H    0.258355
     3  H    0.251851
     4  O   -0.511432
     5  H    0.258743
     6  H    0.252842
 Sum of Mulliken charges =  -0.00000

 Dipole moment (field-independent basis, Debye):
    X=             -3.0231    Y=              2.5388    Z=              0.0000  Tot=              3.9477
 Quadrupole moment (field-independent basis, Debye-Ang):
   XX=            -10.5509   YY=             -8.5151   ZZ=            -14.7125
   XY=              2.6620   XZ=              0.0000   YZ=              0.0000

 Normal termination of Gaussian 16 at Sun Aug 28 00:57:18 2022.
