 Gaussian 16, Revision A.03,
 Gaussian 16:  ES64L-G16RevA.03 25-Dec-2016

 ------------------
 #p CCSD(T)/cc-pVTZ
 ------------------

 ------------
 H2O_H2O_1805
 ------------
 Symbolic Z-matrix:
 Charge =  0 Multiplicity = 1

                         Standard orientation:
 ---------------------------------------------------------------------
 Center     Atomic      Atomic             Coordinates (Angstroms)
 Number     Number       Type             X           Y           Z
 ---------------------------------------------------------------------
      1          8           0        0.079864   -1.819110    0.000000
      2          1           0        0.079225   -0.836509    0.000000
      3          1           0       -0.849422   -2.138381    0.000000
      4          8           0        0.079864    1.660073    0.000000
      5          1           0        0.395106    2.590734    0.000000
      6          1           0       -0.902731    1.656455    0.000000
 ---------------------------------------------------------------------

 SCF Done:  E(RHF) =  -152.110984823     A.U. after   10 cycles
 E2 =    -0.5268225301D+00 EUMP2 =    -0.15263780735321D+03
 CCSD(T)
 CCSD(T)= -0.15266488290D+03

 The electronic state is 1-A'.
 Alpha  occ. eigenvalues --  -20.57534 -20.54035  -1.34819  -1.31387  -0.72289
 Alpha  occ. eigenvalues --   -0.68771  -0.58431  -0.54801  -0.51929  -0.48514
 Alpha virt. eigenvalues --    0.11789   0.16573   0.19677   0.26653   0.50879
 Alpha virt. eigenvalues --    0.55486   0.56710   0.58092   0.69033   0.73743
 Alpha virt. eigenvalues --    0.75462   0.78052   0.80577   0.83059   0.83608

 Mulliken charges:
               1
     1  O   -0.523699
     2  H    0.269678
     3  H    0.243649
     4  O   -0.499890
     5  H    0.258630
     6  H    0.251632
 Sum of Mulliken charges =  -0.00000

 Dipole moment (field-independent basis, Debye):
    X=             -2.6878    Y=              3.0233    Z=              0.0000  Tot=              4.0453
 Quadrupole moment (field-independent basis, Debye-Ang):
   XX=            -10.1262   YY=             -8.4336   ZZ=            -14.7230
   XY=              2.9522   XZ=              0.0000   YZ=              0.0000

 Normal termination of Gaussian 16 at Sun Aug 28 01:48:48 2022.
