 Gaussian 16, Revision A.03,
 Gaussian 16:  ES64L-G16RevA.03 25-Dec-2016

 ------------------
 #p CCSD(T)/cc-pVTZ
 ------------------

 ------------
 H2O_H2O_1504
 ------------
 Symbolic Z-matrix:
 Charge =  0 Multiplicity = 1

                         Standard orientation:
 ---------------------------------------------------------------------
 Center     Atomic      Atomic             Coordinates (Angstroms)
 Number     Number       Type             X           Y           Z
 ---------------------------------------------------------------------
      1          8           0        0.082816   -1.696979    0.000000
      2          1           0        0.082284   -0.714377    0.000000
      3          1           0       -0.846505   -2.016148    0.000000
      4          8           0        0.082816    1.542486    0.000000
      5          1           0        0.336618    2.491744    0.000000
      6          1           0       -0.897446    1.474718    0.000000
 ---------------------------------------------------------------------

 SCF Done:  E(RHF) =  -152.110986393     A.U. after   10 cycles
 E2 =    -0.5274133004D+00 EUMP2 =    -0.15263839969360D+03
 CCSD(T)
 CCSD(T)= -0.15266544715D+03

 The electronic state is 1-A'.
 Alpha  occ. eigenvalues --  -20.57892 -20.53799  -1.35226  -1.31187  -0.72784
 Alpha  occ. eigenvalues --   -0.68593  -0.58834  -0.54541  -0.52309  -0.48304
 Alpha virt. eigenvalues --    0.11681   0.16624   0.19878   0.28158   0.49782
 Alpha virt. eigenvalues --    0.55042   0.57580   0.58120   0.69023   0.74135
 Alpha virt. eigenvalues --    0.74629   0.77319   0.80947   0.82479   0.83743

 Mulliken charges:
               1
     1  O   -0.528430
     2  H    0.274912
     3  H    0.240433
     4  O   -0.488470
     5  H    0.252425
     6  H    0.249130
 Sum of Mulliken charges =  -0.00000

 Dipole moment (field-independent basis, Debye):
    X=             -2.7692    Y=              3.0165    Z=              0.0000  Tot=              4.0948
 Quadrupole moment (field-independent basis, Debye-Ang):
   XX=            -10.2873   YY=             -8.6510   ZZ=            -14.7205
   XY=              2.7547   XZ=              0.0000   YZ=              0.0000

 Normal termination of Gaussian 16 at Sat Aug 27 00:59:13 2022.
