 Gaussian 16, Revision A.03,
 Gaussian 16:  ES64L-G16RevA.03 25-Dec-2016

 ------------------
 #p CCSD(T)/cc-pVTZ
 ------------------

 -----------
 H2O_H2O_732
 -----------
 Symbolic Z-matrix:
 Charge =  0 Multiplicity = 1

                         Standard orientation:
 ---------------------------------------------------------------------
 Center     Atomic      Atomic             Coordinates (Angstroms)
 Number     Number       Type             X           Y           Z
 ---------------------------------------------------------------------
      1          8           0        0.073581    1.394571    0.000000
      2          1           0        0.072324    0.411971    0.000000
      3          1           0       -0.855504    1.714426   -0.000000
      4          8           0        0.073581   -1.227709    0.000000
      5          1           0        0.507048   -2.109532    0.000000
      6          1           0       -0.901158   -1.351764   -0.000000
 ---------------------------------------------------------------------

 SCF Done:  E(RHF) =  -152.106757354     A.U. after   10 cycles
 E2 =    -0.5305232159D+00 EUMP2 =    -0.15263728056985D+03
 CCSD(T)
 CCSD(T)= -0.15266396081D+03

 The electronic state is 1-A'.
 Alpha  occ. eigenvalues --  -20.59457 -20.51053  -1.37386  -1.28966  -0.74961
 Alpha  occ. eigenvalues --   -0.68746  -0.59526  -0.54221  -0.51718  -0.45997
 Alpha virt. eigenvalues --    0.11415   0.16991   0.19979   0.32612   0.48153
 Alpha virt. eigenvalues --    0.53846   0.59299   0.61529   0.70185   0.72213
 Alpha virt. eigenvalues --    0.74037   0.77547   0.80485   0.83310   0.84032

 Mulliken charges:
               1
     1  O   -0.574079
     2  H    0.300803
     3  H    0.227057
     4  O   -0.440307
     5  H    0.242838
     6  H    0.243688
 Sum of Mulliken charges =  -0.00000

 Dipole moment (field-independent basis, Debye):
    X=             -2.3875    Y=             -3.7297    Z=             -0.0000  Tot=              4.4284
 Quadrupole moment (field-independent basis, Debye-Ang):
   XX=             -9.8393   YY=             -9.0729   ZZ=            -14.6903
   XY=             -2.8733   XZ=             -0.0000   YZ=              0.0000

 Normal termination of Gaussian 16 at Fri Aug 26 20:10:04 2022.
