 Gaussian 16, Revision A.03,
 Gaussian 16:  ES64L-G16RevA.03 25-Dec-2016

 ------------------
 #p CCSD(T)/cc-pVTZ
 ------------------

 ------------
 H2O_H2O_3164
 ------------
 Symbolic Z-matrix:
 Charge =  0 Multiplicity = 1

                         Standard orientation:
 ---------------------------------------------------------------------
 Center     Atomic      Atomic             Coordinates (Angstroms)
 Number     Number       Type             X           Y           Z
 ---------------------------------------------------------------------
      1          8           0        0.048582    2.369196    0.000000
      2          1           0        0.046929    1.386595    0.000000
      3          1           0       -0.880374    2.689425    0.000000
      4          8           0        0.048582   -2.188806   -0.000000
      5          1           0        0.827125   -2.788286   -0.000000
      6          1           0       -0.770986   -2.730853   -0.000000
 ---------------------------------------------------------------------

 SCF Done:  E(RHF) =  -152.109625728     A.U. after   10 cycles
 E2 =    -0.5259082195D+00 EUMP2 =    -0.15263553394768D+03
 CCSD(T)
 CCSD(T)= -0.15266268472D+03

 The electronic state is 1-A'.
 Alpha  occ. eigenvalues --  -20.56576 -20.54509  -1.33858  -1.31828  -0.71259
 Alpha  occ. eigenvalues --   -0.69222  -0.57393  -0.55313  -0.50986  -0.48961
 Alpha virt. eigenvalues --    0.12582   0.15804   0.19495   0.22338   0.53267
 Alpha virt. eigenvalues --    0.55319   0.56393   0.58371   0.67771   0.69351
 Alpha virt. eigenvalues --    0.77918   0.79098   0.79305   0.79869   0.83180

 Mulliken charges:
               1
     1  O   -0.518139
     2  H    0.263941
     3  H    0.251852
     4  O   -0.514723
     5  H    0.260039
     6  H    0.257030
 Sum of Mulliken charges =  -0.00000

 Dipole moment (field-independent basis, Debye):
    X=             -1.6577    Y=             -3.2354    Z=             -0.0000  Tot=              3.6353
 Quadrupole moment (field-independent basis, Debye-Ang):
   XX=             -9.1828   YY=             -7.0781   ZZ=            -14.7191
   XY=             -4.7484   XZ=             -0.0000   YZ=              0.0000

 Normal termination of Gaussian 16 at Fri Aug 26 20:09:51 2022.
