 Gaussian 16, Revision A.03,
 Gaussian 16:  ES64L-G16RevA.03 25-Dec-2016

 ------------------
 #p CCSD(T)/cc-pVTZ
 ------------------

 ------------
 H2O_H2O_3504
 ------------
 Symbolic Z-matrix:
 Charge =  0 Multiplicity = 1

                         Standard orientation:
 ---------------------------------------------------------------------
 Center     Atomic      Atomic             Coordinates (Angstroms)
 Number     Number       Type             X           Y           Z
 ---------------------------------------------------------------------
      1          8           0        0.082802    2.494748    0.000000
      2          1           0        0.082446    1.512147    0.000000
      3          1           0       -0.846576    2.813751    0.000000
      4          8           0        0.082802   -2.340226   -0.000000
      5          1           0        0.336773   -3.289438   -0.000000
      6          1           0       -0.897472   -2.272633   -0.000000
 ---------------------------------------------------------------------

 SCF Done:  E(RHF) =  -152.108361080     A.U. after   10 cycles
 E2 =    -0.5259263482D+00 EUMP2 =    -0.15263428742792D+03
 CCSD(T)
 CCSD(T)= -0.15266147361D+03

 The electronic state is 1-A'.
 Alpha  occ. eigenvalues --  -20.56451 -20.54979  -1.33747  -1.32286  -0.71163
 Alpha  occ. eigenvalues --   -0.69675  -0.57229  -0.55748  -0.50861  -0.49405
 Alpha virt. eigenvalues --    0.12237   0.15362   0.19264   0.22120   0.53384
 Alpha virt. eigenvalues --    0.55040   0.56438   0.58068   0.66965   0.69111
 Alpha virt. eigenvalues --    0.78044   0.78661   0.79453   0.80902   0.82688

 Mulliken charges:
               1
     1  O   -0.512131
     2  H    0.260463
     3  H    0.250760
     4  O   -0.512015
     5  H    0.259759
     6  H    0.253164
 Sum of Mulliken charges =  -0.00000

 Dipole moment (field-independent basis, Debye):
    X=             -2.8288    Y=             -2.7465    Z=             -0.0000  Tot=              3.9427
 Quadrupole moment (field-independent basis, Debye-Ang):
   XX=            -10.2498   YY=             -8.0716   ZZ=            -14.7144
   XY=             -3.0565   XZ=             -0.0000   YZ=              0.0000

 Normal termination of Gaussian 16 at Fri Aug 26 22:05:00 2022.
