 Gaussian 16, Revision A.03,
 Gaussian 16:  ES64L-G16RevA.03 25-Dec-2016

 ------------------
 #p CCSD(T)/cc-pVTZ
 ------------------

 ------------
 H2O_H2O_4335
 ------------
 Symbolic Z-matrix:
 Charge =  0 Multiplicity = 1

                         Standard orientation:
 ---------------------------------------------------------------------
 Center     Atomic      Atomic             Coordinates (Angstroms)
 Number     Number       Type             X           Y           Z
 ---------------------------------------------------------------------
      1          8           0        0.063219    2.835235    0.000000
      2          1           0        0.062301    1.852634    0.000000
      3          1           0       -0.865976    3.154770    0.000000
      4          8           0        0.063219   -2.659703   -0.000000
      5          1           0        0.660660   -3.439811   -0.000000
      6          1           0       -0.868482   -2.971856   -0.000000
 ---------------------------------------------------------------------

 SCF Done:  E(RHF) =  -152.108351958     A.U. after   10 cycles
 E2 =    -0.5258257215D+00 EUMP2 =    -0.15263417767997D+03
 CCSD(T)
 CCSD(T)= -0.15266137479D+03

 The electronic state is 1-A'.
 Alpha  occ. eigenvalues --  -20.56222 -20.54954  -1.33523  -1.32261  -0.70929
 Alpha  occ. eigenvalues --   -0.69659  -0.57012  -0.55729  -0.50640  -0.49382
 Alpha virt. eigenvalues --    0.13217   0.14972   0.19611   0.21128   0.53544
 Alpha virt. eigenvalues --    0.54885   0.56618   0.57798   0.66769   0.68837
 Alpha virt. eigenvalues --    0.78249   0.79435   0.79474   0.80251   0.82706

 Mulliken charges:
               1
     1  O   -0.513264
     2  H    0.260494
     3  H    0.252579
     4  O   -0.514142
     5  H    0.258766
     6  H    0.255567
 Sum of Mulliken charges =  -0.00000

 Dipole moment (field-independent basis, Debye):
    X=             -2.1669    Y=             -3.0862    Z=             -0.0000  Tot=              3.7710
 Quadrupole moment (field-independent basis, Debye-Ang):
   XX=             -9.4540   YY=             -6.5970   ZZ=            -14.7146
   XY=             -4.5991   XZ=             -0.0000   YZ=              0.0000

 Normal termination of Gaussian 16 at Sun Aug 28 01:56:25 2022.
