 Gaussian 16, Revision A.03,
 Gaussian 16:  ES64L-G16RevA.03 25-Dec-2016

 ------------------
 #p CCSD(T)/cc-pVTZ
 ------------------

 ------------
 H2O_H2O_4222
 ------------
 Symbolic Z-matrix:
 Charge =  0 Multiplicity = 1

                         Standard orientation:
 ---------------------------------------------------------------------
 Center     Atomic      Atomic             Coordinates (Angstroms)
 Number     Number       Type             X           Y           Z
 ---------------------------------------------------------------------
      1          8           0       -0.019824    2.780813    0.000000
      2          1           0       -0.017524    1.798214    0.000000
      3          1           0        0.908921    3.101654    0.000000
      4          8           0       -0.019824   -2.613691    0.000000
      5          1           0       -0.993717   -2.744226    0.000000
      6          1           0        0.419498   -3.492612    0.000000
 ---------------------------------------------------------------------

 SCF Done:  E(RHF) =  -152.108607560     A.U. after   10 cycles
 E2 =    -0.5258026215D+00 EUMP2 =    -0.15263441018176D+03
 CCSD(T)
 CCSD(T)= -0.15266160214D+03

 The electronic state is 1-A'.
 Alpha  occ. eigenvalues --  -20.56233 -20.54973  -1.33535  -1.32282  -0.70940
 Alpha  occ. eigenvalues --   -0.69688  -0.57034  -0.55758  -0.50655  -0.49408
 Alpha virt. eigenvalues --    0.13090   0.15054   0.19440   0.21399   0.53378
 Alpha virt. eigenvalues --    0.55003   0.56641   0.57815   0.66722   0.68863
 Alpha virt. eigenvalues --    0.78234   0.79273   0.79446   0.80572   0.82693

 Mulliken charges:
               1
     1  O   -0.515036
     2  H    0.260188
     3  H    0.254610
     4  O   -0.515487
     5  H    0.257547
     6  H    0.258178
 Sum of Mulliken charges =  -0.00000

 Dipole moment (field-independent basis, Debye):
    X=              0.6808    Y=             -2.9402    Z=              0.0000  Tot=              3.0180
 Quadrupole moment (field-independent basis, Debye-Ang):
   XX=             -9.4472   YY=             -7.1160   ZZ=            -14.7154
   XY=              7.0734   XZ=              0.0000   YZ=              0.0000

 Normal termination of Gaussian 16 at Sun Aug 28 00:55:17 2022.
