 Gaussian 16, Revision A.03,
 Gaussian 16:  ES64L-G16RevA.03 25-Dec-2016

 ------------------
 #p CCSD(T)/cc-pVTZ
 ------------------

 ------------
 H2O_H2O_3216
 ------------
 Symbolic Z-matrix:
 Charge =  0 Multiplicity = 1

                         Standard orientation:
 ---------------------------------------------------------------------
 Center     Atomic      Atomic             Coordinates (Angstroms)
 Number     Number       Type             X           Y           Z
 ---------------------------------------------------------------------
      1          8           0        0.041138    2.388889   -0.000000
      2          1           0        0.039225    1.406290   -0.000000
      3          1           0       -0.887733    2.709365   -0.000000
      4          8           0        0.041138   -2.208962    0.000000
      5          1           0        0.891138   -2.701919    0.000000
      6          1           0       -0.700838   -2.853151    0.000000
 ---------------------------------------------------------------------

 SCF Done:  E(RHF) =  -152.109618618     A.U. after   10 cycles
 E2 =    -0.5258909787D+00 EUMP2 =    -0.15263550959675D+03
 CCSD(T)
 CCSD(T)= -0.15266266204D+03

 The electronic state is 1-A'.
 Alpha  occ. eigenvalues --  -20.56550 -20.54531  -1.33834  -1.31849  -0.71234
 Alpha  occ. eigenvalues --   -0.69246  -0.57369  -0.55336  -0.50962  -0.48983
 Alpha virt. eigenvalues --    0.12615   0.15772   0.19495   0.22272   0.53294
 Alpha virt. eigenvalues --    0.55315   0.56433   0.58282   0.67632   0.69356
 Alpha virt. eigenvalues --    0.77943   0.79003   0.79448   0.79848   0.83163

 Mulliken charges:
               1
     1  O   -0.518380
     2  H    0.263736
     3  H    0.252490
     4  O   -0.515259
     5  H    0.259828
     6  H    0.257585
 Sum of Mulliken charges =  -0.00000

 Dipole moment (field-independent basis, Debye):
    X=             -1.4044    Y=             -3.2226    Z=              0.0000  Tot=              3.5154
 Quadrupole moment (field-independent basis, Debye-Ang):
   XX=             -9.1491   YY=             -7.0610   ZZ=            -14.7191
   XY=             -5.0890   XZ=              0.0000   YZ=              0.0000

 Normal termination of Gaussian 16 at Fri Aug 26 20:27:00 2022.
