 Gaussian 16, Revision A.03,
 Gaussian 16:  ES64L-G16RevA.03 25-Dec-2016

 ------------------
 #p CCSD(T)/cc-pVTZ
 ------------------

 ------------
 H2O_H2O_2089
 ------------
 Symbolic Z-matrix:
 Charge =  0 Multiplicity = 1

                         Standard orientation:
 ---------------------------------------------------------------------
 Center     Atomic      Atomic             Coordinates (Angstroms)
 Number     Number       Type             X           Y           Z
 ---------------------------------------------------------------------
      1          8           0        0.048617    1.940385    0.000000
      2          1           0        0.046581    0.957785    0.000000
      3          1           0       -0.880214    2.260976    0.000000
      4          8           0        0.048617   -1.760033   -0.000000
      5          1           0        0.826926   -2.359815   -0.000000
      6          1           0       -0.771162   -2.301760   -0.000000
 ---------------------------------------------------------------------

 SCF Done:  E(RHF) =  -152.112044401     A.U. after   10 cycles
 E2 =    -0.5263480136D+00 EUMP2 =    -0.15263839241499D+03
 CCSD(T)
 CCSD(T)= -0.15266546439D+03

 The electronic state is 1-A'.
 Alpha  occ. eigenvalues --  -20.57278 -20.53762  -1.34529  -1.31116  -0.71914
 Alpha  occ. eigenvalues --   -0.68534  -0.58202  -0.54581  -0.51669  -0.48266
 Alpha virt. eigenvalues --    0.12231   0.16888   0.19198   0.25826   0.51782
 Alpha virt. eigenvalues --    0.55186   0.56395   0.58979   0.69044   0.72198
 Alpha virt. eigenvalues --    0.76509   0.77753   0.80636   0.83482   0.84049

 Mulliken charges:
               1
     1  O   -0.528083
     2  H    0.268904
     3  H    0.248918
     4  O   -0.508352
     5  H    0.261691
     6  H    0.256922
 Sum of Mulliken charges =   0.00000

 Dipole moment (field-independent basis, Debye):
    X=             -1.6453    Y=             -3.3764    Z=             -0.0000  Tot=              3.7559
 Quadrupole moment (field-independent basis, Debye-Ang):
   XX=             -9.1864   YY=             -7.8023   ZZ=            -14.7277
   XY=             -4.0867   XZ=             -0.0000   YZ=              0.0000

 Normal termination of Gaussian 16 at Sun Aug 28 04:14:27 2022.
