 Gaussian 16, Revision A.03,
 Gaussian 16:  ES64L-G16RevA.03 25-Dec-2016

 ------------------
 #p CCSD(T)/cc-pVTZ
 ------------------

 ------------
 H2O_H2O_3695
 ------------
 Symbolic Z-matrix:
 Charge =  0 Multiplicity = 1

                         Standard orientation:
 ---------------------------------------------------------------------
 Center     Atomic      Atomic             Coordinates (Angstroms)
 Number     Number       Type             X           Y           Z
 ---------------------------------------------------------------------
      1          8           0        0.026637    2.574724   -0.000000
      2          1           0        0.024376    1.592125   -0.000000
      3          1           0       -0.902120    2.895528   -0.000000
      4          8           0        0.026637   -2.401486    0.000000
      5          1           0        0.975170   -2.657986    0.000000
      6          1           0       -0.523616   -3.215567    0.000000
 ---------------------------------------------------------------------

 SCF Done:  E(RHF) =  -152.109055573     A.U. after   10 cycles
 E2 =    -0.5258277275D+00 EUMP2 =    -0.15263488330038D+03
 CCSD(T)
 CCSD(T)= -0.15266205827D+03

 The electronic state is 1-A'.
 Alpha  occ. eigenvalues --  -20.56369 -20.54777  -1.33664  -1.32090  -0.71068
 Alpha  occ. eigenvalues --   -0.69493  -0.57180  -0.55572  -0.50788  -0.49220
 Alpha virt. eigenvalues --    0.12809   0.15397   0.19468   0.21737   0.53350
 Alpha virt. eigenvalues --    0.55152   0.56562   0.57909   0.66798   0.69224
 Alpha virt. eigenvalues --    0.78111   0.78892   0.79623   0.80163   0.82935

 Mulliken charges:
               1
     1  O   -0.516660
     2  H    0.261812
     3  H    0.254006
     4  O   -0.516174
     5  H    0.258634
     6  H    0.258383
 Sum of Mulliken charges =  -0.00000

 Dipole moment (field-independent basis, Debye):
    X=             -0.9123    Y=             -3.0708    Z=             -0.0000  Tot=              3.2035
 Quadrupole moment (field-independent basis, Debye-Ang):
   XX=             -9.2885   YY=             -7.0632   ZZ=            -14.7171
   XY=             -6.1603   XZ=              0.0000   YZ=             -0.0000

 Normal termination of Gaussian 16 at Fri Aug 26 23:09:41 2022.
