 Gaussian 16, Revision A.03,
 Gaussian 16:  ES64L-G16RevA.03 25-Dec-2016

 ------------------
 #p CCSD(T)/cc-pVTZ
 ------------------

 ------------
 H2O_H2O_4261
 ------------
 Symbolic Z-matrix:
 Charge =  0 Multiplicity = 1

                         Standard orientation:
 ---------------------------------------------------------------------
 Center     Atomic      Atomic             Coordinates (Angstroms)
 Number     Number       Type             X           Y           Z
 ---------------------------------------------------------------------
      1          8           0        0.059622    2.806372   -0.000000
      2          1           0        0.058582    1.823771   -0.000000
      3          1           0       -0.869533    3.126022    0.000000
      4          8           0        0.059622   -2.628902   -0.000000
      5          1           0        0.706714   -3.368346   -0.000000
      6          1           0       -0.849714   -3.001210    0.000000
 ---------------------------------------------------------------------

 SCF Done:  E(RHF) =  -152.108439103     A.U. after   10 cycles
 E2 =    -0.5258235370D+00 EUMP2 =    -0.15263426264019D+03
 CCSD(T)
 CCSD(T)= -0.15266145725D+03

 The electronic state is 1-A'.
 Alpha  occ. eigenvalues --  -20.56236 -20.54917  -1.33536  -1.32225  -0.70942
 Alpha  occ. eigenvalues --   -0.69624  -0.57029  -0.55695  -0.50655  -0.49348
 Alpha virt. eigenvalues --    0.13198   0.15022   0.19631   0.21157   0.53558
 Alpha virt. eigenvalues --    0.54888   0.56612   0.57807   0.66734   0.68902
 Alpha virt. eigenvalues --    0.78236   0.79437   0.79507   0.80106   0.82759

 Mulliken charges:
               1
     1  O   -0.513682
     2  H    0.260804
     3  H    0.252641
     4  O   -0.514498
     5  H    0.258852
     6  H    0.255884
 Sum of Mulliken charges =  -0.00000

 Dipole moment (field-independent basis, Debye):
    X=             -2.0432    Y=             -3.1228    Z=              0.0000  Tot=              3.7318
 Quadrupole moment (field-independent basis, Debye-Ang):
   XX=             -9.3619   YY=             -6.5334   ZZ=            -14.7149
   XY=             -4.7864   XZ=             -0.0000   YZ=              0.0000

 Normal termination of Gaussian 16 at Sun Aug 28 01:18:29 2022.
