 Gaussian 16, Revision A.03,
 Gaussian 16:  ES64L-G16RevA.03 25-Dec-2016

 ------------------
 #p CCSD(T)/cc-pVTZ
 ------------------

 ------------
 H2O_H2O_3490
 ------------
 Symbolic Z-matrix:
 Charge =  0 Multiplicity = 1

                         Standard orientation:
 ---------------------------------------------------------------------
 Center     Atomic      Atomic             Coordinates (Angstroms)
 Number     Number       Type             X           Y           Z
 ---------------------------------------------------------------------
      1          8           0        0.044848    2.498842   -0.000000
      2          1           0        0.043153    1.516242   -0.000000
      3          1           0       -0.884094    2.819111   -0.000000
      4          8           0        0.044848   -2.318432    0.000000
      5          1           0        0.860909   -2.865744    0.000000
      6          1           0       -0.737539   -2.912887    0.000000
 ---------------------------------------------------------------------

 SCF Done:  E(RHF) =  -152.109239288     A.U. after   10 cycles
 E2 =    -0.5258577133D+00 EUMP2 =    -0.15263509700151D+03
 CCSD(T)
 CCSD(T)= -0.15266226321D+03

 The electronic state is 1-A'.
 Alpha  occ. eigenvalues --  -20.56445 -20.54642  -1.33735  -1.31957  -0.71136
 Alpha  occ. eigenvalues --   -0.69354  -0.57257  -0.55440  -0.50860  -0.49088
 Alpha virt. eigenvalues --    0.12768   0.15549   0.19557   0.21826   0.53406
 Alpha virt. eigenvalues --    0.55107   0.56487   0.58036   0.67051   0.69335
 Alpha virt. eigenvalues --    0.78044   0.79097   0.79458   0.79749   0.83056

 Mulliken charges:
               1
     1  O   -0.516885
     2  H    0.262962
     3  H    0.252581
     4  O   -0.515633
     5  H    0.259639
     6  H    0.257336
 Sum of Mulliken charges =  -0.00000

 Dipole moment (field-independent basis, Debye):
    X=             -1.5329    Y=             -3.2117    Z=              0.0000  Tot=              3.5588
 Quadrupole moment (field-independent basis, Debye-Ang):
   XX=             -9.1568   YY=             -6.8675   ZZ=            -14.7178
   XY=             -5.1169   XZ=              0.0000   YZ=             -0.0000

 Normal termination of Gaussian 16 at Fri Aug 26 21:59:03 2022.
