 Gaussian 16, Revision A.03,
 Gaussian 16:  ES64L-G16RevA.03 25-Dec-2016

 ------------------
 #p CCSD(T)/cc-pVTZ
 ------------------

 ------------
 H2O_H2O_4444
 ------------
 Symbolic Z-matrix:
 Charge =  0 Multiplicity = 1

                         Standard orientation:
 ---------------------------------------------------------------------
 Center     Atomic      Atomic             Coordinates (Angstroms)
 Number     Number       Type             X           Y           Z
 ---------------------------------------------------------------------
      1          8           0        0.030149    2.875182    0.000000
      2          1           0        0.028238    1.892582    0.000000
      3          1           0       -0.898722    3.195655    0.000000
      4          8           0        0.030149   -2.699547   -0.000000
      5          1           0        0.959988   -3.017204   -0.000000
      6          1           0       -0.571894   -3.476111   -0.000000
 ---------------------------------------------------------------------

 SCF Done:  E(RHF) =  -152.108512153     A.U. after   10 cycles
 E2 =    -0.5258003133D+00 EUMP2 =    -0.15263431246623D+03
 CCSD(T)
 CCSD(T)= -0.15266150763D+03

 The electronic state is 1-A'.
 Alpha  occ. eigenvalues --  -20.56191 -20.54957  -1.33493  -1.32265  -0.70897
 Alpha  occ. eigenvalues --   -0.69669  -0.56990  -0.55739  -0.50612  -0.49389
 Alpha virt. eigenvalues --    0.13312   0.14962   0.19636   0.21123   0.53580
 Alpha virt. eigenvalues --    0.54889   0.56666   0.57802   0.66805   0.68770
 Alpha virt. eigenvalues --    0.78274   0.79465   0.79520   0.80316   0.82670

 Mulliken charges:
               1
     1  O   -0.514527
     2  H    0.260320
     3  H    0.254060
     4  O   -0.515125
     5  H    0.257829
     6  H    0.257443
 Sum of Mulliken charges =  -0.00000

 Dipole moment (field-independent basis, Debye):
    X=             -1.0344    Y=             -3.0841    Z=             -0.0000  Tot=              3.2530
 Quadrupole moment (field-independent basis, Debye-Ang):
   XX=             -9.2303   YY=             -6.5185   ZZ=            -14.7151
   XY=             -6.6219   XZ=             -0.0000   YZ=             -0.0000

 Normal termination of Gaussian 16 at Sun Aug 28 02:53:06 2022.
