 Gaussian 16, Revision A.03,
 Gaussian 16:  ES64L-G16RevA.03 25-Dec-2016

 ------------------
 #p CCSD(T)/cc-pVTZ
 ------------------

 ------------
 H2O_H2O_3403
 ------------
 Symbolic Z-matrix:
 Charge =  0 Multiplicity = 1

                         Standard orientation:
 ---------------------------------------------------------------------
 Center     Atomic      Atomic             Coordinates (Angstroms)
 Number     Number       Type             X           Y           Z
 ---------------------------------------------------------------------
      1          8           0        0.085600   -2.452186    0.000000
      2          1           0        0.085337   -1.469585    0.000000
      3          1           0       -0.843808   -2.771101    0.000000
      4          8           0        0.085600    2.302587    0.000000
      5          1           0        0.277039    3.266359    0.000000
      6          1           0       -0.888168    2.171119    0.000000
 ---------------------------------------------------------------------

 SCF Done:  E(RHF) =  -152.108298998     A.U. after   10 cycles
 E2 =    -0.5259518222D+00 EUMP2 =    -0.15263425081970D+03
 CCSD(T)
 CCSD(T)= -0.15266143685D+03

 The electronic state is 1-A'.
 Alpha  occ. eigenvalues --  -20.56487 -20.55015  -1.33782  -1.32321  -0.71202
 Alpha  occ. eigenvalues --   -0.69709  -0.57262  -0.55781  -0.50896  -0.49439
 Alpha virt. eigenvalues --    0.12061   0.15404   0.19238   0.22354   0.53523
 Alpha virt. eigenvalues --    0.54984   0.56434   0.58096   0.67103   0.69079
 Alpha virt. eigenvalues --    0.78010   0.78610   0.79422   0.81041   0.82645

 Mulliken charges:
               1
     1  O   -0.511719
     2  H    0.260256
     3  H    0.250466
     4  O   -0.511270
     5  H    0.259767
     6  H    0.252500
 Sum of Mulliken charges =  -0.00000

 Dipole moment (field-independent basis, Debye):
    X=             -2.9227    Y=              2.6633    Z=              0.0000  Tot=              3.9541
 Quadrupole moment (field-independent basis, Debye-Ang):
   XX=            -10.4040   YY=             -8.3444   ZZ=            -14.7141
   XY=              2.8256   XZ=              0.0000   YZ=              0.0000

 Normal termination of Gaussian 16 at Fri Aug 26 21:30:22 2022.
