 Gaussian 16, Revision A.03,
 Gaussian 16:  ES64L-G16RevA.03 25-Dec-2016

 ------------------
 #p CCSD(T)/cc-pVTZ
 ------------------

 -----------
 H2O_H2O_648
 -----------
 Symbolic Z-matrix:
 Charge =  0 Multiplicity = 1

                         Standard orientation:
 ---------------------------------------------------------------------
 Center     Atomic      Atomic             Coordinates (Angstroms)
 Number     Number       Type             X           Y           Z
 ---------------------------------------------------------------------
      1          8           0        0.016812   -1.352772    0.000000
      2          1           0        0.011717   -0.370184    0.000000
      3          1           0       -0.911016   -1.676254    0.000000
      4          8           0        0.016812    1.189458    0.000000
      5          1           0        0.996964    1.258806    0.000000
      6          1           0       -0.366660    2.094143    0.000000
 ---------------------------------------------------------------------

 SCF Done:  E(RHF) =  -152.104590701     A.U. after   10 cycles
 E2 =    -0.5307841264D+00 EUMP2 =    -0.15263537482724D+03
 CCSD(T)
 CCSD(T)= -0.15266194504D+03

 The electronic state is 1-A'.
 Alpha  occ. eigenvalues --  -20.59618 -20.50283  -1.37817  -1.28396  -0.75664
 Alpha  occ. eigenvalues --   -0.68559  -0.59822  -0.54542  -0.50817  -0.45437
 Alpha virt. eigenvalues --    0.11689   0.18172   0.19296   0.33702   0.47978
 Alpha virt. eigenvalues --    0.53697   0.57676   0.67477   0.68501   0.72153
 Alpha virt. eigenvalues --    0.74301   0.76516   0.79731   0.83848   0.83965

 Mulliken charges:
               1
     1  O   -0.602312
     2  H    0.297184
     3  H    0.244423
     4  O   -0.433638
     5  H    0.258776
     6  H    0.235566
 Sum of Mulliken charges =  -0.00000

 Dipole moment (field-independent basis, Debye):
    X=             -0.5573    Y=              3.7713    Z=              0.0000  Tot=              3.8122
 Quadrupole moment (field-independent basis, Debye-Ang):
   XX=             -9.5052   YY=             -9.2086   ZZ=            -14.6829
   XY=              3.5090   XZ=              0.0000   YZ=              0.0000

 Normal termination of Gaussian 16 at Fri Aug 26 19:37:04 2022.
