 Gaussian 16, Revision A.03,
 Gaussian 16:  ES64L-G16RevA.03 25-Dec-2016

 ------------------
 #p CCSD(T)/cc-pVTZ
 ------------------

 ------------
 H2O_H2O_3091
 ------------
 Symbolic Z-matrix:
 Charge =  0 Multiplicity = 1

                         Standard orientation:
 ---------------------------------------------------------------------
 Center     Atomic      Atomic             Coordinates (Angstroms)
 Number     Number       Type             X           Y           Z
 ---------------------------------------------------------------------
      1          8           0        0.041142    2.339028    0.000000
      2          1           0        0.039186    1.356428    0.000000
      3          1           0       -0.887715    2.659543    0.000000
      4          8           0        0.041142   -2.159104   -0.000000
      5          1           0        0.891121   -2.652098   -0.000000
      6          1           0       -0.700862   -2.803260   -0.000000
 ---------------------------------------------------------------------

 SCF Done:  E(RHF) =  -152.109807348     A.U. after   10 cycles
 E2 =    -0.5259128506D+00 EUMP2 =    -0.15263572019831D+03
 CCSD(T)
 CCSD(T)= -0.15266286576D+03

 The electronic state is 1-A'.
 Alpha  occ. eigenvalues --  -20.56606 -20.54472  -1.33886  -1.31792  -0.71286
 Alpha  occ. eigenvalues --   -0.69188  -0.57429  -0.55281  -0.51015  -0.48928
 Alpha virt. eigenvalues --    0.12556   0.15880   0.19468   0.22516   0.53233
 Alpha virt. eigenvalues --    0.55407   0.56404   0.58428   0.68001   0.69342
 Alpha virt. eigenvalues --    0.77884   0.79046   0.79415   0.79900   0.83222

 Mulliken charges:
               1
     1  O   -0.519097
     2  H    0.264161
     3  H    0.252305
     4  O   -0.514864
     5  H    0.259953
     6  H    0.257542
 Sum of Mulliken charges =  -0.00000

 Dipole moment (field-independent basis, Debye):
    X=             -1.4037    Y=             -3.2330    Z=             -0.0000  Tot=              3.5246
 Quadrupole moment (field-independent basis, Debye-Ang):
   XX=             -9.1492   YY=             -7.1408   ZZ=            -14.7197
   XY=             -4.9996   XZ=             -0.0000   YZ=             -0.0000

 Normal termination of Gaussian 16 at Fri Aug 26 19:43:10 2022.
