 Gaussian 16, Revision A.03,
 Gaussian 16:  ES64L-G16RevA.03 25-Dec-2016

 ------------------
 #p CCSD(T)/cc-pVTZ
 ------------------

 -----------
 H2O_H2O_389
 -----------
 Symbolic Z-matrix:
 Charge =  0 Multiplicity = 1

                         Standard orientation:
 ---------------------------------------------------------------------
 Center     Atomic      Atomic             Coordinates (Angstroms)
 Number     Number       Type             X           Y           Z
 ---------------------------------------------------------------------
      1          8           0        0.048725    1.262237   -0.000000
      2          1           0        0.045512    0.279641   -0.000000
      3          1           0       -0.879721    1.583941    0.000000
      4          8           0        0.048725   -1.082002   -0.000000
      5          1           0        0.826315   -1.682717   -0.000000
      6          1           0       -0.771703   -1.622747    0.000000
 ---------------------------------------------------------------------

 SCF Done:  E(RHF) =  -152.091936556     A.U. after   11 cycles
 E2 =    -0.5326908142D+00 EUMP2 =    -0.15262462737056D+03
 CCSD(T)
 CCSD(T)= -0.15265080608D+03

 The electronic state is 1-A'.
 Alpha  occ. eigenvalues --  -20.60672 -20.47711  -1.39648  -1.26560  -0.75879
 Alpha  occ. eigenvalues --   -0.72902  -0.57626  -0.56033  -0.48228  -0.43414
 Alpha virt. eigenvalues --    0.11041   0.17291   0.20187   0.33534   0.47273
 Alpha virt. eigenvalues --    0.53215   0.61996   0.64156   0.70589   0.72107
 Alpha virt. eigenvalues --    0.75895   0.79287   0.80902   0.82190   0.83888

 Mulliken charges:
               1
     1  O   -0.627817
     2  H    0.311726
     3  H    0.220699
     4  O   -0.410052
     5  H    0.257477
     6  H    0.247967
 Sum of Mulliken charges =  -0.00000

 Dipole moment (field-independent basis, Debye):
    X=             -1.5366    Y=             -4.4827    Z=              0.0000  Tot=              4.7388
 Quadrupole moment (field-independent basis, Debye-Ang):
   XX=             -9.1549   YY=             -9.6278   ZZ=            -14.6514
   XY=             -2.9430   XZ=             -0.0000   YZ=              0.0000

 Normal termination of Gaussian 16 at Fri Aug 26 17:53:25 2022.
