 Gaussian 16, Revision A.03,
 Gaussian 16:  ES64L-G16RevA.03 25-Dec-2016

 ------------------
 #p CCSD(T)/cc-pVTZ
 ------------------

 -----------
 H2O_H2O_938
 -----------
 Symbolic Z-matrix:
 Charge =  0 Multiplicity = 1

                         Standard orientation:
 ---------------------------------------------------------------------
 Center     Atomic      Atomic             Coordinates (Angstroms)
 Number     Number       Type             X           Y           Z
 ---------------------------------------------------------------------
      1          8           0        0.052386    1.481373    0.000000
      2          1           0        0.049906    0.498775    0.000000
      3          1           0       -0.876300    1.802384    0.000000
      4          8           0        0.052386   -1.301584   -0.000000
      5          1           0        0.789508   -1.951321   -0.000000
      6          1           0       -0.801288   -1.788150   -0.000000
 ---------------------------------------------------------------------

 SCF Done:  E(RHF) =  -152.112614419     A.U. after   10 cycles
 E2 =    -0.5289706835D+00 EUMP2 =    -0.15264158510287D+03
 CCSD(T)
 CCSD(T)= -0.15266838735D+03

 The electronic state is 1-A'.
 Alpha  occ. eigenvalues --  -20.58992 -20.51318  -1.36559  -1.29077  -0.73718
 Alpha  occ. eigenvalues --   -0.68310  -0.59702  -0.53586  -0.52010  -0.46170
 Alpha virt. eigenvalues --    0.11728   0.17847   0.19170   0.32252   0.48206
 Alpha virt. eigenvalues --    0.54553   0.57784   0.60725   0.69746   0.71669
 Alpha virt. eigenvalues --    0.72631   0.77494   0.82243   0.82742   0.84740

 Mulliken charges:
               1
     1  O   -0.571768
     2  H    0.301639
     3  H    0.237215
     4  O   -0.487325
     5  H    0.263932
     6  H    0.256308
 Sum of Mulliken charges =  -0.00000

 Dipole moment (field-independent basis, Debye):
    X=             -1.7216    Y=             -3.8361    Z=             -0.0000  Tot=              4.2047
 Quadrupole moment (field-independent basis, Debye-Ang):
   XX=             -9.2276   YY=             -8.8380   ZZ=            -14.7215
   XY=             -3.3086   XZ=             -0.0000   YZ=             -0.0000

 Normal termination of Gaussian 16 at Fri Aug 26 21:27:04 2022.
