 Gaussian 16, Revision A.03,
 Gaussian 16:  ES64L-G16RevA.03 25-Dec-2016

 ------------------
 #p CCSD(T)/cc-pVTZ
 ------------------

 -----------
 H2O_H2O_544
 -----------
 Symbolic Z-matrix:
 Charge =  0 Multiplicity = 1

                         Standard orientation:
 ---------------------------------------------------------------------
 Center     Atomic      Atomic             Coordinates (Angstroms)
 Number     Number       Type             X           Y           Z
 ---------------------------------------------------------------------
      1          8           0        0.030365    1.319493   -0.000000
      2          1           0        0.026040    0.336901   -0.000000
      3          1           0       -0.897717    1.642247   -0.000000
      4          8           0        0.030365   -1.144007    0.000000
      5          1           0        0.959421   -1.463946    0.000000
      6          1           0       -0.573584   -1.919089    0.000000
 ---------------------------------------------------------------------

 SCF Done:  E(RHF) =  -152.101803104     A.U. after   11 cycles
 E2 =    -0.5313755761D+00 EUMP2 =    -0.15263317868030D+03
 CCSD(T)
 CCSD(T)= -0.15265959790D+03

 The electronic state is 1-A'.
 Alpha  occ. eigenvalues --  -20.60046 -20.49089  -1.38447  -1.27488  -0.75536
 Alpha  occ. eigenvalues --   -0.70294  -0.58935  -0.55108  -0.49618  -0.44463
 Alpha virt. eigenvalues --    0.11422   0.17928   0.19574   0.33762   0.47429
 Alpha virt. eigenvalues --    0.53732   0.59257   0.66979   0.68831   0.72267
 Alpha virt. eigenvalues --    0.73834   0.77980   0.80382   0.83573   0.83907

 Mulliken charges:
               1
     1  O   -0.614934
     2  H    0.307077
     3  H    0.234525
     4  O   -0.433313
     5  H    0.261986
     6  H    0.244659
 Sum of Mulliken charges =  -0.00000

 Dipole moment (field-independent basis, Debye):
    X=             -0.9794    Y=             -4.1624    Z=              0.0000  Tot=              4.2761
 Quadrupole moment (field-independent basis, Debye-Ang):
   XX=             -9.1934   YY=             -9.3602   ZZ=            -14.6769
   XY=             -3.1833   XZ=              0.0000   YZ=             -0.0000

 Normal termination of Gaussian 16 at Fri Aug 26 18:57:19 2022.
