 Gaussian 16, Revision A.03,
 Gaussian 16:  ES64L-G16RevA.03 25-Dec-2016

 ------------------
 #p CCSD(T)/cc-pVTZ
 ------------------

 ------------
 H2O_H2O_2737
 ------------
 Symbolic Z-matrix:
 Charge =  0 Multiplicity = 1

                         Standard orientation:
 ---------------------------------------------------------------------
 Center     Atomic      Atomic             Coordinates (Angstroms)
 Number     Number       Type             X           Y           Z
 ---------------------------------------------------------------------
      1          8           0        0.055999    2.198861   -0.000000
      2          1           0        0.054512    1.216261   -0.000000
      3          1           0       -0.873011    2.518934   -0.000000
      4          8           0        0.055999   -2.019965    0.000000
      5          1           0        0.749751   -2.715820    0.000000
      6          1           0       -0.827236   -2.450548    0.000000
 ---------------------------------------------------------------------

 SCF Done:  E(RHF) =  -152.110229560     A.U. after   10 cycles
 E2 =    -0.5260251788D+00 EUMP2 =    -0.15263625473909D+03
 CCSD(T)
 CCSD(T)= -0.15266338161D+03

 The electronic state is 1-A'.
 Alpha  occ. eigenvalues --  -20.56798 -20.54315  -1.34068  -1.31639  -0.71468
 Alpha  occ. eigenvalues --   -0.69029  -0.57628  -0.55123  -0.51199  -0.48776
 Alpha virt. eigenvalues --    0.12364   0.16162   0.19401   0.23333   0.53019
 Alpha virt. eigenvalues --    0.55592   0.56215   0.58874   0.68986   0.69605
 Alpha virt. eigenvalues --    0.77641   0.79005   0.79841   0.80056   0.83399

 Mulliken charges:
               1
     1  O   -0.520142
     2  H    0.265462
     3  H    0.250319
     4  O   -0.512128
     5  H    0.260291
     6  H    0.256198
 Sum of Mulliken charges =   0.00000

 Dipole moment (field-independent basis, Debye):
    X=             -1.9057    Y=             -3.2500    Z=              0.0000  Tot=              3.7675
 Quadrupole moment (field-independent basis, Debye-Ang):
   XX=             -9.2885   YY=             -7.4039   ZZ=            -14.7208
   XY=             -4.2204   XZ=              0.0000   YZ=             -0.0000

 CCSD(T)=-152.6633816\RMSD=6.791e-09\PG=CS [SG(H4O2)]\\@
 Normal termination of Gaussian 16 at Fri Aug 26 16:55:50 2022.
