 Gaussian 16, Revision A.03,
 Gaussian 16:  ES64L-G16RevA.03 25-Dec-2016

 ------------------
 #p CCSD(T)/cc-pVTZ
 ------------------

 -----------
 H2O_H2O_425
 -----------
 Symbolic Z-matrix:
 Charge =  0 Multiplicity = 1

                         Standard orientation:
 ---------------------------------------------------------------------
 Center     Atomic      Atomic             Coordinates (Angstroms)
 Number     Number       Type             X           Y           Z
 ---------------------------------------------------------------------
      1          8           0        0.092949   -1.256395    0.000000
      2          1           0        0.092949   -0.273793    0.000000
      3          1           0       -0.836544   -1.575061    0.000000
      4          8           0        0.092949    1.123607    0.000000
      5          1           0        0.092950    2.106210    0.000000
      6          1           0       -0.836544    0.804941    0.000000
 ---------------------------------------------------------------------

 SCF Done:  E(RHF) =  -152.080659594     A.U. after   11 cycles
 E2 =    -0.5346115313D+00 EUMP2 =    -0.15261527112547D+03
 CCSD(T)
 CCSD(T)= -0.15264165148D+03

 The electronic state is 1-A'.
 Alpha  occ. eigenvalues --  -20.60221 -20.50926  -1.39671  -1.29154  -0.79296
 Alpha  occ. eigenvalues --   -0.67984  -0.59361  -0.55520  -0.51697  -0.46096
 Alpha virt. eigenvalues --    0.11186   0.16268   0.21329   0.32195   0.48697
 Alpha virt. eigenvalues --    0.51363   0.59151   0.66196   0.71117   0.71657
 Alpha virt. eigenvalues --    0.74140   0.76856   0.78974   0.82352   0.83990

 Mulliken charges:
               1
     1  O   -0.563706
     2  H    0.277893
     3  H    0.208681
     4  O   -0.380259
     5  H    0.228854
     6  H    0.228537
 Sum of Mulliken charges =  -0.00000

 Dipole moment (field-independent basis, Debye):
    X=             -2.9755    Y=              3.3398    Z=              0.0000  Tot=              4.4731
 Quadrupole moment (field-independent basis, Debye-Ang):
   XX=            -10.8650   YY=             -9.5795   ZZ=            -14.6090
   XY=              1.9909   XZ=              0.0000   YZ=              0.0000

 Normal termination of Gaussian 16 at Fri Aug 26 18:10:42 2022.
