 Gaussian 16, Revision A.03,
 Gaussian 16:  ES64L-G16RevA.03 25-Dec-2016

 ------------------
 #p CCSD(T)/cc-pVTZ
 ------------------

 ------------
 H2O_H2O_3577
 ------------
 Symbolic Z-matrix:
 Charge =  0 Multiplicity = 1

                         Standard orientation:
 ---------------------------------------------------------------------
 Center     Atomic      Atomic             Coordinates (Angstroms)
 Number     Number       Type             X           Y           Z
 ---------------------------------------------------------------------
      1          8           0        0.088231   -2.519123    0.000000
      2          1           0        0.088067   -1.536522    0.000000
      3          1           0       -0.841209   -2.837945    0.000000
      4          8           0        0.088231    2.374801    0.000000
      5          1           0        0.216323    3.349018    0.000000
      6          1           0       -0.874872    2.180024    0.000000
 ---------------------------------------------------------------------

 SCF Done:  E(RHF) =  -152.108068105     A.U. after   10 cycles
 E2 =    -0.5259346613D+00 EUMP2 =    -0.15263400276617D+03
 CCSD(T)
 CCSD(T)= -0.15266119779D+03

 The electronic state is 1-A'.
 Alpha  occ. eigenvalues --  -20.56429 -20.55116  -1.33727  -1.32420  -0.71147
 Alpha  occ. eigenvalues --   -0.69810  -0.57199  -0.55877  -0.50839  -0.49536
 Alpha virt. eigenvalues --    0.12072   0.15272   0.19115   0.22320   0.53338
 Alpha virt. eigenvalues --    0.54984   0.56457   0.58000   0.66903   0.68968
 Alpha virt. eigenvalues --    0.78065   0.78720   0.79330   0.81219   0.82540

 Mulliken charges:
               1
     1  O   -0.510833
     2  H    0.259391
     3  H    0.250794
     4  O   -0.511118
     5  H    0.259591
     6  H    0.252175
 Sum of Mulliken charges =  -0.00000

 Dipole moment (field-independent basis, Debye):
    X=             -3.0151    Y=              2.5605    Z=              0.0000  Tot=              3.9556
 Quadrupole moment (field-independent basis, Debye-Ang):
   XX=            -10.5553   YY=             -8.5960   ZZ=            -14.7132
   XY=              2.6166   XZ=              0.0000   YZ=              0.0000

 CCSD(T)=-152.6611978\RMSD=7.246e-09\PG=CS [SG(H4O2)]\\@
 Normal termination of Gaussian 16 at Fri Aug 26 22:29:17 2022.
