 Gaussian 16, Revision A.03,
 Gaussian 16:  ES64L-G16RevA.03 25-Dec-2016

 ------------------
 #p CCSD(T)/cc-pVTZ
 ------------------

 -----------
 H2O_H2O_692
 -----------
 Symbolic Z-matrix:
 Charge =  0 Multiplicity = 1

                         Standard orientation:
 ---------------------------------------------------------------------
 Center     Atomic      Atomic             Coordinates (Angstroms)
 Number     Number       Type             X           Y           Z
 ---------------------------------------------------------------------
      1          8           0        0.037589    1.381146   -0.000000
      2          1           0        0.033942    0.398551   -0.000000
      3          1           0       -0.890715    1.703260    0.000000
      4          8           0        0.037589   -1.202301   -0.000000
      5          1           0        0.917239   -1.640162   -0.000000
      6          1           0       -0.661885   -1.892405    0.000000
 ---------------------------------------------------------------------

 SCF Done:  E(RHF) =  -152.108190272     A.U. after   10 cycles
 E2 =    -0.5302670200D+00 EUMP2 =    -0.15263845729186D+03
 CCSD(T)
 CCSD(T)= -0.15266505350D+03

 The electronic state is 1-A'.
 Alpha  occ. eigenvalues --  -20.59616 -20.49997  -1.37578  -1.28102  -0.74569
 Alpha  occ. eigenvalues --   -0.69413  -0.59392  -0.54446  -0.50604  -0.45135
 Alpha virt. eigenvalues --    0.11570   0.18067   0.19280   0.33341   0.47693
 Alpha virt. eigenvalues --    0.54130   0.58724   0.64124   0.68971   0.72380
 Alpha virt. eigenvalues --    0.72637   0.78098   0.81456   0.83126   0.84270

 Mulliken charges:
               1
     1  O   -0.598481
     2  H    0.309576
     3  H    0.235926
     4  O   -0.462740
     5  H    0.263855
     6  H    0.251865
 Sum of Mulliken charges =  -0.00000

 Dipole moment (field-independent basis, Debye):
    X=             -1.2217    Y=             -4.0537    Z=             -0.0000  Tot=              4.2338
 Quadrupole moment (field-independent basis, Debye-Ang):
   XX=             -9.1386   YY=             -9.1591   ZZ=            -14.7003
   XY=             -3.2560   XZ=             -0.0000   YZ=             -0.0000

 Normal termination of Gaussian 16 at Fri Aug 26 19:52:57 2022.
