 Gaussian 16, Revision A.03,
 Gaussian 16:  ES64L-G16RevA.03 25-Dec-2016

 ------------------
 #p CCSD(T)/cc-pVTZ
 ------------------

 -----------
 H2O_H2O_348
 -----------
 Symbolic Z-matrix:
 Charge =  0 Multiplicity = 1

                         Standard orientation:
 ---------------------------------------------------------------------
 Center     Atomic      Atomic             Coordinates (Angstroms)
 Number     Number       Type             X           Y           Z
 ---------------------------------------------------------------------
      1          8           0        0.016856   -1.233101    0.000000
      2          1           0        0.011232   -0.250516    0.000000
      3          1           0       -0.910797   -1.557083    0.000000
      4          8           0        0.016856    1.069806    0.000000
      5          1           0        0.996969    1.139682    0.000000
      6          1           0       -0.367105    1.974284    0.000000
 ---------------------------------------------------------------------

 SCF Done:  E(RHF) =  -152.084252877     A.U. after   11 cycles
 E2 =    -0.5334728925D+00 EUMP2 =    -0.15261772576996D+03
 CCSD(T)
 CCSD(T)= -0.15264382946D+03

 The electronic state is 1-A'.
 Alpha  occ. eigenvalues --  -20.60637 -20.47919  -1.40134  -1.26787  -0.78298
 Alpha  occ. eigenvalues --   -0.70568  -0.58390  -0.56182  -0.48284  -0.43682
 Alpha virt. eigenvalues --    0.11254   0.17709   0.20006   0.34102   0.47628
 Alpha virt. eigenvalues --    0.52695   0.59207   0.68560   0.71959   0.72066
 Alpha virt. eigenvalues --    0.75804   0.77145   0.77953   0.83974   0.84868

 Mulliken charges:
               1
     1  O   -0.636977
     2  H    0.291251
     3  H    0.235823
     4  O   -0.381403
     5  H    0.260023
     6  H    0.231283
 Sum of Mulliken charges =  -0.00000

 Dipole moment (field-independent basis, Debye):
    X=             -0.5379    Y=              4.1812    Z=              0.0000  Tot=              4.2157
 Quadrupole moment (field-independent basis, Debye-Ang):
   XX=             -9.4630   YY=             -9.6139   ZZ=            -14.6274
   XY=              3.1671   XZ=              0.0000   YZ=              0.0000

 Normal termination of Gaussian 16 at Fri Aug 26 17:36:28 2022.
