 Gaussian 16, Revision A.03,
 Gaussian 16:  ES64L-G16RevA.03 25-Dec-2016

 ------------------
 #p CCSD(T)/cc-pVTZ
 ------------------

 ------------
 H2O_H2O_1821
 ------------
 Symbolic Z-matrix:
 Charge =  0 Multiplicity = 1

                         Standard orientation:
 ---------------------------------------------------------------------
 Center     Atomic      Atomic             Coordinates (Angstroms)
 Number     Number       Type             X           Y           Z
 ---------------------------------------------------------------------
      1          8           0       -0.023278    1.825266    0.000000
      2          1           0       -0.019876    0.842671    0.000000
      3          1           0        0.905107    2.147148    0.000000
      4          8           0       -0.023278   -1.654917    0.000000
      5          1           0       -0.986329   -1.849947    0.000000
      6          1           0        0.473539   -2.502666    0.000000
 ---------------------------------------------------------------------

 SCF Done:  E(RHF) =  -152.112771524     A.U. after   10 cycles
 E2 =    -0.5265786373D+00 EUMP2 =    -0.15263935016148D+03
 CCSD(T)
 CCSD(T)= -0.15266639862D+03

 The electronic state is 1-A'.
 Alpha  occ. eigenvalues --  -20.57505 -20.53615  -1.34777  -1.30994  -0.72184
 Alpha  occ. eigenvalues --   -0.68459  -0.58514  -0.54427  -0.51910  -0.48151
 Alpha virt. eigenvalues --    0.12208   0.17210   0.19133   0.27167   0.51848
 Alpha virt. eigenvalues --    0.54405   0.56046   0.59396   0.68987   0.73072
 Alpha virt. eigenvalues --    0.75556   0.77814   0.80862   0.83287   0.84330

 Mulliken charges:
               1
     1  O   -0.534773
     2  H    0.269894
     3  H    0.252243
     4  O   -0.508151
     5  H    0.262498
     6  H    0.258288
 Sum of Mulliken charges =   0.00000

 Dipole moment (field-independent basis, Debye):
    X=              0.7906    Y=             -3.2439    Z=              0.0000  Tot=              3.3389
 Quadrupole moment (field-independent basis, Debye-Ang):
   XX=             -9.3627   YY=             -8.1844   ZZ=            -14.7305
   XY=              4.5459   XZ=              0.0000   YZ=              0.0000

 Normal termination of Gaussian 16 at Sun Aug 28 01:54:55 2022.
