 Gaussian 16, Revision A.03,
 Gaussian 16:  ES64L-G16RevA.03 25-Dec-2016

 ------------------
 #p CCSD(T)/cc-pVTZ
 ------------------

 ------------
 H2O_H2O_3575
 ------------
 Symbolic Z-matrix:
 Charge =  0 Multiplicity = 1

                         Standard orientation:
 ---------------------------------------------------------------------
 Center     Atomic      Atomic             Coordinates (Angstroms)
 Number     Number       Type             X           Y           Z
 ---------------------------------------------------------------------
      1          8           0        0.092949   -2.512858    0.000000
      2          1           0        0.092949   -1.530256    0.000000
      3          1           0       -0.836544   -2.831524    0.000000
      4          8           0        0.092949    2.380071    0.000000
      5          1           0        0.092950    3.362673    0.000000
      6          1           0       -0.836544    2.061404    0.000000
 ---------------------------------------------------------------------

 SCF Done:  E(RHF) =  -152.107800296     A.U. after   10 cycles
 E2 =    -0.5259556037D+00 EUMP2 =    -0.15263375589955D+03
 CCSD(T)
 CCSD(T)= -0.15266095825D+03

 The electronic state is 1-A'.
 Alpha  occ. eigenvalues --  -20.56434 -20.55251  -1.33733  -1.32552  -0.71156
 Alpha  occ. eigenvalues --   -0.69941  -0.57195  -0.56003  -0.50841  -0.49664
 Alpha virt. eigenvalues --    0.11814   0.15231   0.18969   0.22715   0.53382
 Alpha virt. eigenvalues --    0.54882   0.56467   0.57936   0.66938   0.68812
 Alpha virt. eigenvalues --    0.78064   0.78769   0.79209   0.81374   0.82410

 Mulliken charges:
               1
     1  O   -0.509622
     2  H    0.258387
     3  H    0.250752
     4  O   -0.510013
     5  H    0.259461
     6  H    0.251035
 Sum of Mulliken charges =  -0.00000

 Dipole moment (field-independent basis, Debye):
    X=             -3.1761    Y=              2.3545    Z=              0.0000  Tot=              3.9537
 Quadrupole moment (field-independent basis, Debye-Ang):
   XX=            -10.8512   YY=             -9.2495   ZZ=            -14.7121
   XY=              2.1524   XZ=              0.0000   YZ=              0.0000

 CCSD(T)=-152.6609582\RMSD=7.251e-09\PG=CS [SG(H4O2)]\\@
 Normal termination of Gaussian 16 at Fri Aug 26 22:28:35 2022.
