 Gaussian 16, Revision A.03,
 Gaussian 16:  ES64L-G16RevA.03 25-Dec-2016

 ------------------
 #p CCSD(T)/cc-pVTZ
 ------------------

 -----------
 H2O_H2O_176
 -----------
 Symbolic Z-matrix:
 Charge =  0 Multiplicity = 1

                         Standard orientation:
 ---------------------------------------------------------------------
 Center     Atomic      Atomic             Coordinates (Angstroms)
 Number     Number       Type             X           Y           Z
 ---------------------------------------------------------------------
      1          8           0        0.090691   -1.159883    0.000000
      2          1           0        0.090515   -0.177282    0.000000
      3          1           0       -0.838745   -1.478716    0.000000
      4          8           0        0.090691    1.021191    0.000000
      5          1           0        0.154782    2.001701    0.000000
      6          1           0       -0.857607    0.763829    0.000000
 ---------------------------------------------------------------------

 SCF Done:  E(RHF) =  -152.049202315     A.U. after   11 cycles
 E2 =    -0.5376798947D+00 EUMP2 =    -0.15258688220925D+03
 CCSD(T)
 CCSD(T)= -0.15261271332D+03

 The electronic state is 1-A'.
 Alpha  occ. eigenvalues --  -20.61185 -20.48380  -1.42619  -1.27384  -0.82295
 Alpha  occ. eigenvalues --   -0.69865  -0.57471  -0.57280  -0.49103  -0.44226
 Alpha virt. eigenvalues --    0.10835   0.15988   0.21645   0.31882   0.49254
 Alpha virt. eigenvalues --    0.50870   0.59716   0.66898   0.71261   0.72737
 Alpha virt. eigenvalues --    0.75368   0.77699   0.79558   0.83915   0.85577

 Mulliken charges:
               1
     1  O   -0.590708
     2  H    0.264295
     3  H    0.193417
     4  O   -0.328813
     5  H    0.226535
     6  H    0.235273
 Sum of Mulliken charges =   0.00000

 Dipole moment (field-independent basis, Debye):
    X=             -2.8386    Y=              3.8608    Z=              0.0000  Tot=              4.7920
 Quadrupole moment (field-independent basis, Debye-Ang):
   XX=            -10.6728   YY=             -9.8359   ZZ=            -14.5444
   XY=              2.0573   XZ=              0.0000   YZ=              0.0000

 Normal termination of Gaussian 16 at Fri Aug 26 16:23:30 2022.
