 Gaussian 16, Revision A.03,
 Gaussian 16:  ES64L-G16RevA.03 25-Dec-2016

 ------------------
 #p CCSD(T)/cc-pVTZ
 ------------------

 ------------
 H2O_H2O_1865
 ------------
 Symbolic Z-matrix:
 Charge =  0 Multiplicity = 1

                         Standard orientation:
 ---------------------------------------------------------------------
 Center     Atomic      Atomic             Coordinates (Angstroms)
 Number     Number       Type             X           Y           Z
 ---------------------------------------------------------------------
      1          8           0        0.044905    1.850639    0.000000
      2          1           0        0.042587    0.868040    0.000000
      3          1           0       -0.883833    2.171498    0.000000
      4          8           0        0.044905   -1.670286   -0.000000
      5          1           0        0.860618   -2.218117   -0.000000
      6          1           0       -0.737859   -2.264244   -0.000000
 ---------------------------------------------------------------------

 SCF Done:  E(RHF) =  -152.112831454     A.U. after   10 cycles
 E2 =    -0.5265577343D+00 EUMP2 =    -0.15263938918837D+03
 CCSD(T)
 CCSD(T)= -0.15266643708D+03

 The electronic state is 1-A'.
 Alpha  occ. eigenvalues --  -20.57501 -20.53492  -1.34753  -1.30869  -0.72125
 Alpha  occ. eigenvalues --   -0.68331  -0.58488  -0.54308  -0.51893  -0.48023
 Alpha virt. eigenvalues --    0.12188   0.17177   0.19104   0.26962   0.51209
 Alpha virt. eigenvalues --    0.54821   0.56378   0.59081   0.69072   0.72386
 Alpha virt. eigenvalues --    0.75775   0.77219   0.80930   0.83341   0.84511

 Mulliken charges:
               1
     1  O   -0.532531
     2  H    0.271000
     3  H    0.248485
     4  O   -0.507850
     5  H    0.262956
     6  H    0.257939
 Sum of Mulliken charges =  -0.00000

 Dipole moment (field-independent basis, Debye):
    X=             -1.5156    Y=             -3.4264    Z=             -0.0000  Tot=              3.7466
 Quadrupole moment (field-independent basis, Debye-Ang):
   XX=             -9.1609   YY=             -7.9698   ZZ=            -14.7313
   XY=             -4.0327   XZ=             -0.0000   YZ=              0.0000

 Normal termination of Gaussian 16 at Sun Aug 28 02:18:07 2022.
