 Gaussian 16, Revision A.03,
 Gaussian 16:  ES64L-G16RevA.03 25-Dec-2016

 ------------------
 #p CCSD(T)/cc-pVTZ
 ------------------

 -----------
 H2O_H2O_249
 -----------
 Symbolic Z-matrix:
 Charge =  0 Multiplicity = 1

                         Standard orientation:
 ---------------------------------------------------------------------
 Center     Atomic      Atomic             Coordinates (Angstroms)
 Number     Number       Type             X           Y           Z
 ---------------------------------------------------------------------
      1          8           0       -0.013769   -1.190978   -0.000000
      2          1           0       -0.007705   -0.208395   -0.000000
      3          1           0        0.913739   -1.515374    0.000000
      4          8           0       -0.013769    1.031802   -0.000000
      5          1           0       -0.996352    1.037866   -0.000000
      6          1           0        0.310628    1.959311    0.000000
 ---------------------------------------------------------------------

 SCF Done:  E(RHF) =  -152.070378447     A.U. after   11 cycles
 E2 =    -0.5346941353D+00 EUMP2 =    -0.15260507258212D+03
 CCSD(T)
 CCSD(T)= -0.15263096835D+03

 The electronic state is 1-A'.
 Alpha  occ. eigenvalues --  -20.60988 -20.47092  -1.41313  -1.26283  -0.79920
 Alpha  occ. eigenvalues --   -0.70942  -0.57866  -0.56869  -0.47364  -0.43125
 Alpha virt. eigenvalues --    0.11128   0.17541   0.20258   0.34032   0.47816
 Alpha virt. eigenvalues --    0.52126   0.59473   0.68860   0.71703   0.72716
 Alpha virt. eigenvalues --    0.76250   0.77010   0.78421   0.84421   0.85358

 Mulliken charges:
               1
     1  O   -0.649801
     2  H    0.282988
     3  H    0.234286
     4  O   -0.358160
     5  H    0.261644
     6  H    0.229043
 Sum of Mulliken charges =  -0.00000

 Dipole moment (field-independent basis, Debye):
    X=              0.4309    Y=              4.2568    Z=              0.0000  Tot=              4.2786
 Quadrupole moment (field-independent basis, Debye-Ang):
   XX=             -9.5394   YY=             -9.7620   ZZ=            -14.5973
   XY=             -3.1186   XZ=              0.0000   YZ=             -0.0000

 Normal termination of Gaussian 16 at Fri Aug 26 16:54:17 2022.
