 Gaussian 16, Revision A.03,
 Gaussian 16:  ES64L-G16RevA.03 25-Dec-2016

 ------------------
 #p CCSD(T)/cc-pVTZ
 ------------------

 -----------
 H2O_H2O_174
 -----------
 Symbolic Z-matrix:
 Charge =  0 Multiplicity = 1

                         Standard orientation:
 ---------------------------------------------------------------------
 Center     Atomic      Atomic             Coordinates (Angstroms)
 Number     Number       Type             X           Y           Z
 ---------------------------------------------------------------------
      1          8           0       -0.013783   -1.161060   -0.000000
      2          1           0       -0.007551   -0.178479   -0.000000
      3          1           0        0.913670   -1.485615   -0.000000
      4          8           0       -0.013783    1.001889    0.000000
      5          1           0       -0.996364    1.008120    0.000000
      6          1           0        0.310773    1.929343    0.000000
 ---------------------------------------------------------------------

 SCF Done:  E(RHF) =  -152.057562568     A.U. after   11 cycles
 E2 =    -0.5355547371D+00 EUMP2 =    -0.15259311730475D+03
 CCSD(T)
 CCSD(T)= -0.15261884085D+03

 The electronic state is 1-A'.
 Alpha  occ. eigenvalues --  -20.61296 -20.46231  -1.42353  -1.25747  -0.81034
 Alpha  occ. eigenvalues --   -0.71705  -0.57479  -0.57189  -0.46419  -0.42525
 Alpha virt. eigenvalues --    0.10974   0.17351   0.20483   0.33856   0.47845
 Alpha virt. eigenvalues --    0.51811   0.59762   0.69108   0.71398   0.72546
 Alpha virt. eigenvalues --    0.76418   0.76657   0.79519   0.85288   0.85569

 Mulliken charges:
               1
     1  O   -0.661498
     2  H    0.277704
     3  H    0.230951
     4  O   -0.339814
     5  H    0.263864
     6  H    0.228792
 Sum of Mulliken charges =  -0.00000

 Dipole moment (field-independent basis, Debye):
    X=              0.4220    Y=              4.3960    Z=              0.0000  Tot=              4.4162
 Quadrupole moment (field-independent basis, Debye-Ang):
   XX=             -9.5204   YY=             -9.8899   ZZ=            -14.5738
   XY=             -3.0276   XZ=             -0.0000   YZ=              0.0000

 Normal termination of Gaussian 16 at Fri Aug 26 16:22:40 2022.
