 Gaussian 16, Revision A.03,
 Gaussian 16:  ES64L-G16RevA.03 25-Dec-2016

 ------------------
 #p CCSD(T)/cc-pVTZ
 ------------------

 ------------
 H2O_H2O_2967
 ------------
 Symbolic Z-matrix:
 Charge =  0 Multiplicity = 1

                         Standard orientation:
 ---------------------------------------------------------------------
 Center     Atomic      Atomic             Coordinates (Angstroms)
 Number     Number       Type             X           Y           Z
 ---------------------------------------------------------------------
      1          8           0        0.037452    2.288645    0.000000
      2          1           0        0.035309    1.306046    0.000000
      3          1           0       -0.891344    2.609338    0.000000
      4          8           0        0.037452   -2.109686   -0.000000
      5          1           0        0.917770   -2.546200   -0.000000
      6          1           0       -0.660965   -2.800859   -0.000000
 ---------------------------------------------------------------------

 SCF Done:  E(RHF) =  -152.110031270     A.U. after   10 cycles
 E2 =    -0.5259349400D+00 EUMP2 =    -0.15263596621034D+03
 CCSD(T)
 CCSD(T)= -0.15266310426D+03

 The electronic state is 1-A'.
 Alpha  occ. eigenvalues --  -20.56663 -20.54418  -1.33941  -1.31740  -0.71340
 Alpha  occ. eigenvalues --   -0.69138  -0.57493  -0.55230  -0.51071  -0.48878
 Alpha virt. eigenvalues --    0.12497   0.15995   0.19427   0.22815   0.53198
 Alpha virt. eigenvalues --    0.55502   0.56396   0.58549   0.68417   0.69331
 Alpha virt. eigenvalues --    0.77816   0.79051   0.79548   0.79949   0.83283

 Mulliken charges:
               1
     1  O   -0.520118
     2  H    0.264532
     3  H    0.252429
     4  O   -0.514532
     5  H    0.259980
     6  H    0.257709
 Sum of Mulliken charges =   0.00000

 Dipole moment (field-independent basis, Debye):
    X=             -1.2772    Y=             -3.2268    Z=             -0.0000  Tot=              3.4703
 Quadrupole moment (field-independent basis, Debye-Ang):
   XX=             -9.1590   YY=             -7.2533   ZZ=            -14.7204
   XY=             -5.0531   XZ=             -0.0000   YZ=              0.0000

 Normal termination of Gaussian 16 at Fri Aug 26 18:50:23 2022.
