 Gaussian 16, Revision A.03,
 Gaussian 16:  ES64L-G16RevA.03 25-Dec-2016

 ------------------
 #p CCSD(T)/cc-pVTZ
 ------------------

 ------------
 H2O_H2O_4391
 ------------
 Symbolic Z-matrix:
 Charge =  0 Multiplicity = 1

                         Standard orientation:
 ---------------------------------------------------------------------
 Center     Atomic      Atomic             Coordinates (Angstroms)
 Number     Number       Type             X           Y           Z
 ---------------------------------------------------------------------
      1          8           0        0.041108    2.857583    0.000000
      2          1           0        0.039519    1.874983    0.000000
      3          1           0       -0.887868    3.177752    0.000000
      4          8           0        0.041108   -2.677629   -0.000000
      5          1           0        0.891270   -3.170305   -0.000000
      6          1           0       -0.700655   -3.322061   -0.000000
 ---------------------------------------------------------------------

 SCF Done:  E(RHF) =  -152.108519437     A.U. after   10 cycles
 E2 =    -0.5258053907D+00 EUMP2 =    -0.15263432482729D+03
 CCSD(T)
 CCSD(T)= -0.15266151912D+03

 The electronic state is 1-A'.
 Alpha  occ. eigenvalues --  -20.56204 -20.54915  -1.33505  -1.32224  -0.70908
 Alpha  occ. eigenvalues --   -0.69626  -0.57002  -0.55697  -0.50624  -0.49348
 Alpha virt. eigenvalues --    0.13314   0.14994   0.19687   0.21103   0.53634
 Alpha virt. eigenvalues --    0.54868   0.56654   0.57807   0.66777   0.68834
 Alpha virt. eigenvalues --    0.78263   0.79506   0.79629   0.80033   0.82743

 Mulliken charges:
               1
     1  O   -0.514399
     2  H    0.260715
     3  H    0.253507
     4  O   -0.515068
     5  H    0.258288
     6  H    0.256957
 Sum of Mulliken charges =  -0.00000

 Dipole moment (field-independent basis, Debye):
    X=             -1.4096    Y=             -3.1621    Z=             -0.0000  Tot=              3.4621
 Quadrupole moment (field-independent basis, Debye-Ang):
   XX=             -9.1494   YY=             -6.3115   ZZ=            -14.7152
   XY=             -5.9293   XZ=             -0.0000   YZ=              0.0000

 Normal termination of Gaussian 16 at Sun Aug 28 02:27:04 2022.
