 Gaussian 16, Revision A.03,
 Gaussian 16:  ES64L-G16RevA.03 25-Dec-2016

 ------------------
 #p CCSD(T)/cc-pVTZ
 ------------------

 ------------
 H2O_H2O_1407
 ------------
 Symbolic Z-matrix:
 Charge =  0 Multiplicity = 1

                         Standard orientation:
 ---------------------------------------------------------------------
 Center     Atomic      Atomic             Coordinates (Angstroms)
 Number     Number       Type             X           Y           Z
 ---------------------------------------------------------------------
      1          8           0        0.073562    1.663829    0.000000
      2          1           0        0.072520    0.681228    0.000000
      3          1           0       -0.855592    1.983481   -0.000000
      4          8           0        0.073562   -1.496935    0.000000
      5          1           0        0.507221   -2.378664    0.000000
      6          1           0       -0.901149   -1.621202   -0.000000
 ---------------------------------------------------------------------

 SCF Done:  E(RHF) =  -152.112311384     A.U. after   10 cycles
 E2 =    -0.5275189362D+00 EUMP2 =    -0.15263983032056D+03
 CCSD(T)
 CCSD(T)= -0.15266683531D+03

 The electronic state is 1-A'.
 Alpha  occ. eigenvalues --  -20.58063 -20.53232  -1.35396  -1.30669  -0.72854
 Alpha  occ. eigenvalues --   -0.68254  -0.59082  -0.53983  -0.52492  -0.47794
 Alpha virt. eigenvalues --    0.11796   0.16974   0.19529   0.29068   0.49283
 Alpha virt. eigenvalues --    0.55050   0.57328   0.58693   0.69684   0.73867
 Alpha virt. eigenvalues --    0.73970   0.76688   0.81395   0.82630   0.84195

 Mulliken charges:
               1
     1  O   -0.536296
     2  H    0.279083
     3  H    0.240447
     4  O   -0.491845
     5  H    0.255849
     6  H    0.252762
 Sum of Mulliken charges =  -0.00000

 Dipole moment (field-independent basis, Debye):
    X=             -2.4559    Y=             -3.2997    Z=              0.0000  Tot=              4.1134
 Quadrupole moment (field-independent basis, Debye-Ang):
   XX=             -9.8416   YY=             -8.4982   ZZ=            -14.7263
   XY=             -3.1025   XZ=              0.0000   YZ=              0.0000

 CCSD(T)=-152.6668353\RMSD=7.048e-09\PG=CS [SG(H4O2)]\\@
 Normal termination of Gaussian 16 at Sat Aug 27 00:23:47 2022.
