 Gaussian 16, Revision A.03,
 Gaussian 16:  ES64L-G16RevA.03 25-Dec-2016

 ------------------
 #p CCSD(T)/cc-pVTZ
 ------------------

 -----------
 H2O_H2O_198
 -----------
 Symbolic Z-matrix:
 Charge =  0 Multiplicity = 1

                         Standard orientation:
 ---------------------------------------------------------------------
 Center     Atomic      Atomic             Coordinates (Angstroms)
 Number     Number       Type             X           Y           Z
 ---------------------------------------------------------------------
      1          8           0        0.016882   -1.173265    0.000000
      2          1           0        0.010949   -0.190682    0.000000
      3          1           0       -0.910670   -1.497538    0.000000
      4          8           0        0.016882    1.009980    0.000000
      5          1           0        0.996974    1.080164    0.000000
      6          1           0       -0.367361    1.914338    0.000000
 ---------------------------------------------------------------------

 SCF Done:  E(RHF) =  -152.063450796     A.U. after   11 cycles
 E2 =    -0.5350821835D+00 EUMP2 =    -0.15259853297952D+03
 CCSD(T)
 CCSD(T)= -0.15262431934D+03

 The electronic state is 1-A'.
 Alpha  occ. eigenvalues --  -20.61242 -20.46314  -1.41943  -1.25773  -0.80273
 Alpha  occ. eigenvalues --   -0.72067  -0.57307  -0.57146  -0.46537  -0.42546
 Alpha virt. eigenvalues --    0.10960   0.17353   0.20447   0.33879   0.47609
 Alpha virt. eigenvalues --    0.52101   0.59811   0.68942   0.71514   0.72208
 Alpha virt. eigenvalues --    0.76384   0.77172   0.79346   0.85094   0.85229

 Mulliken charges:
               1
     1  O   -0.658584
     2  H    0.283246
     3  H    0.229605
     4  O   -0.347373
     5  H    0.262911
     6  H    0.230195
 Sum of Mulliken charges =   0.00000

 Dipole moment (field-independent basis, Debye):
    X=             -0.5219    Y=              4.4458    Z=              0.0000  Tot=              4.4763
 Quadrupole moment (field-independent basis, Debye-Ang):
   XX=             -9.4321   YY=             -9.8626   ZZ=            -14.5856
   XY=              2.9913   XZ=              0.0000   YZ=              0.0000

 Normal termination of Gaussian 16 at Fri Aug 26 16:32:30 2022.
