 Gaussian 16, Revision A.03,
 Gaussian 16:  ES64L-G16RevA.03 25-Dec-2016

 ------------------
 #p CCSD(T)/cc-pVTZ
 ------------------

 ------------
 H2O_H2O_3137
 ------------
 Symbolic Z-matrix:
 Charge =  0 Multiplicity = 1

                         Standard orientation:
 ---------------------------------------------------------------------
 Center     Atomic      Atomic             Coordinates (Angstroms)
 Number     Number       Type             X           Y           Z
 ---------------------------------------------------------------------
      1          8           0        0.055989    2.358418   -0.000000
      2          1           0        0.054607    1.375818   -0.000000
      3          1           0       -0.873054    2.678392    0.000000
      4          8           0        0.055989   -2.179509   -0.000000
      5          1           0        0.749816   -2.875291   -0.000000
      6          1           0       -0.827200   -2.610187    0.000000
 ---------------------------------------------------------------------

 SCF Done:  E(RHF) =  -152.109549137     A.U. after   10 cycles
 E2 =    -0.5259245301D+00 EUMP2 =    -0.15263547366706D+03
 CCSD(T)
 CCSD(T)= -0.15266262514D+03

 The electronic state is 1-A'.
 Alpha  occ. eigenvalues --  -20.56591 -20.54525  -1.33872  -1.31842  -0.71275
 Alpha  occ. eigenvalues --   -0.69234  -0.57404  -0.55325  -0.50999  -0.48974
 Alpha virt. eigenvalues --    0.12529   0.15802   0.19484   0.22371   0.53294
 Alpha virt. eigenvalues --    0.55306   0.56359   0.58419   0.67821   0.69347
 Alpha virt. eigenvalues --    0.77904   0.79010   0.79456   0.79858   0.83160

 Mulliken charges:
               1
     1  O   -0.517565
     2  H    0.263877
     3  H    0.251284
     4  O   -0.514133
     5  H    0.260133
     6  H    0.256403
 Sum of Mulliken charges =  -0.00000

 Dipole moment (field-independent basis, Debye):
    X=             -1.9100    Y=             -3.2107    Z=              0.0000  Tot=              3.7359
 Quadrupole moment (field-independent basis, Debye-Ang):
   XX=             -9.2871   YY=             -7.1523   ZZ=            -14.7188
   XY=             -4.4254   XZ=              0.0000   YZ=              0.0000

 Normal termination of Gaussian 16 at Fri Aug 26 19:58:36 2022.
