 Gaussian 16, Revision A.03,
 Gaussian 16:  ES64L-G16RevA.03 25-Dec-2016

 ------------------
 #p CCSD(T)/cc-pVTZ
 ------------------

 ------------
 H2O_H2O_4557
 ------------
 Symbolic Z-matrix:
 Charge =  0 Multiplicity = 1

                         Standard orientation:
 ---------------------------------------------------------------------
 Center     Atomic      Atomic             Coordinates (Angstroms)
 Number     Number       Type             X           Y           Z
 ---------------------------------------------------------------------
      1          8           0        0.073523    2.920327    0.000000
      2          1           0        0.072942    1.937726    0.000000
      3          1           0       -0.855781    3.239543    0.000000
      4          8           0        0.073523   -2.753364   -0.000000
      5          1           0        0.507596   -3.634889   -0.000000
      6          1           0       -0.901131   -2.878088   -0.000000
 ---------------------------------------------------------------------

 SCF Done:  E(RHF) =  -152.108095955     A.U. after   10 cycles
 E2 =    -0.5258351191D+00 EUMP2 =    -0.15263393107443D+03
 CCSD(T)
 CCSD(T)= -0.15266113520D+03

 The electronic state is 1-A'.
 Alpha  occ. eigenvalues --  -20.56185 -20.55075  -1.33487  -1.32380  -0.70896
 Alpha  occ. eigenvalues --   -0.69778  -0.56966  -0.55842  -0.50602  -0.49498
 Alpha virt. eigenvalues --    0.13249   0.14820   0.19512   0.21083   0.53505
 Alpha virt. eigenvalues --    0.54852   0.56628   0.57749   0.66896   0.68633
 Alpha virt. eigenvalues --    0.78285   0.79364   0.79520   0.80619   0.82405

 Mulliken charges:
               1
     1  O   -0.512021
     2  H    0.259446
     3  H    0.252482
     4  O   -0.512971
     5  H    0.258432
     6  H    0.254633
 Sum of Mulliken charges =  -0.00000

 Dipole moment (field-independent basis, Debye):
    X=             -2.5216    Y=             -2.9293    Z=             -0.0000  Tot=              3.8651
 Quadrupole moment (field-independent basis, Debye-Ang):
   XX=             -9.8089   YY=             -6.9879   ZZ=            -14.7136
   XY=             -3.9688   XZ=             -0.0000   YZ=             -0.0000

 Normal termination of Gaussian 16 at Sun Aug 28 03:49:36 2022.
