 Gaussian 16, Revision A.03,
 Gaussian 16:  ES64L-G16RevA.03 25-Dec-2016

 ------------------
 #p CCSD(T)/cc-pVTZ
 ------------------

 ------------
 H2O_H2O_2674
 ------------
 Symbolic Z-matrix:
 Charge =  0 Multiplicity = 1

                         Standard orientation:
 ---------------------------------------------------------------------
 Center     Atomic      Atomic             Coordinates (Angstroms)
 Number     Number       Type             X           Y           Z
 ---------------------------------------------------------------------
      1          8           0       -0.013541    2.158284    0.000000
      2          1           0       -0.010298    1.175688    0.000000
      3          1           0        0.914896    2.480016    0.000000
      4          8           0       -0.013541   -1.999030    0.000000
      5          1           0       -0.996138   -2.002272    0.000000
      6          1           0        0.308191   -2.927467    0.000000
 ---------------------------------------------------------------------

 SCF Done:  E(RHF) =  -152.110259073     A.U. after   10 cycles
 E2 =    -0.5260130385D+00 EUMP2 =    -0.15263627211116D+03
 CCSD(T)
 CCSD(T)= -0.15266340167D+03

 The electronic state is 1-A'.
 Alpha  occ. eigenvalues --  -20.56790 -20.54529  -1.34074  -1.31853  -0.71488
 Alpha  occ. eigenvalues --   -0.69262  -0.57633  -0.55343  -0.51201  -0.48995
 Alpha virt. eigenvalues --    0.12172   0.16178   0.19245   0.23971   0.54058
 Alpha virt. eigenvalues --    0.55512   0.56218   0.58442   0.68657   0.70011
 Alpha virt. eigenvalues --    0.77585   0.79078   0.79861   0.80694   0.83419

 Mulliken charges:
               1
     1  O   -0.522567
     2  H    0.263787
     3  H    0.254879
     4  O   -0.513395
     5  H    0.258675
     6  H    0.258621
 Sum of Mulliken charges =  -0.00000

 Dipole moment (field-independent basis, Debye):
    X=              0.4672    Y=             -2.8923    Z=              0.0000  Tot=              2.9297
 Quadrupole moment (field-independent basis, Debye-Ang):
   XX=             -9.6487   YY=             -8.0983   ZZ=            -14.7206
   XY=              5.8294   XZ=              0.0000   YZ=              0.0000

 CCSD(T)=-152.6634017\RMSD=6.733e-09\PG=CS [SG(H4O2)]\\@
 Normal termination of Gaussian 16 at Fri Aug 26 16:28:31 2022.
