 Gaussian 16, Revision A.03,
 Gaussian 16:  ES64L-G16RevA.03 25-Dec-2016

 ------------------
 #p CCSD(T)/cc-pVTZ
 ------------------

 ------------
 H2O_H2O_3183
 ------------
 Symbolic Z-matrix:
 Charge =  0 Multiplicity = 1

                         Standard orientation:
 ---------------------------------------------------------------------
 Center     Atomic      Atomic             Coordinates (Angstroms)
 Number     Number       Type             X           Y           Z
 ---------------------------------------------------------------------
      1          8           0        0.070198    2.373655    0.000000
      2          1           0        0.069354    1.391054    0.000000
      3          1           0       -0.859021    2.693120    0.000000
      4          8           0        0.070198   -2.203409   -0.000000
      5          1           0        0.560768   -3.054788   -0.000000
      6          1           0       -0.894263   -2.391353   -0.000000
 ---------------------------------------------------------------------

 SCF Done:  E(RHF) =  -152.109126128     A.U. after   10 cycles
 E2 =    -0.5259456936D+00 EUMP2 =    -0.15263507182199D+03
 CCSD(T)
 CCSD(T)= -0.15266223325D+03

 The electronic state is 1-A'.
 Alpha  occ. eigenvalues --  -20.56572 -20.54673  -1.33858  -1.31987  -0.71268
 Alpha  occ. eigenvalues --   -0.69375  -0.57370  -0.55461  -0.50980  -0.49113
 Alpha virt. eigenvalues --    0.12368   0.15684   0.19442   0.22307   0.53495
 Alpha virt. eigenvalues --    0.55181   0.56354   0.58346   0.67600   0.69314
 Alpha virt. eigenvalues --    0.77924   0.78773   0.79729   0.80091   0.82998

 Mulliken charges:
               1
     1  O   -0.515407
     2  H    0.262859
     3  H    0.250539
     4  O   -0.512940
     5  H    0.260062
     6  H    0.254887
 Sum of Mulliken charges =   0.00000

 Dipole moment (field-independent basis, Debye):
    X=             -2.3948    Y=             -3.0498    Z=             -0.0000  Tot=              3.8777
 Quadrupole moment (field-independent basis, Debye-Ang):
   XX=             -9.6843   YY=             -7.4705   ZZ=            -14.7172
   XY=             -3.7782   XZ=             -0.0000   YZ=             -0.0000

 Normal termination of Gaussian 16 at Fri Aug 26 20:16:01 2022.
