 Gaussian 16, Revision A.03,
 Gaussian 16:  ES64L-G16RevA.03 25-Dec-2016

 ------------------
 #p CCSD(T)/cc-pVTZ
 ------------------

 ------------
 H2O_H2O_1014
 ------------
 Symbolic Z-matrix:
 Charge =  0 Multiplicity = 1

                         Standard orientation:
 ---------------------------------------------------------------------
 Center     Atomic      Atomic             Coordinates (Angstroms)
 Number     Number       Type             X           Y           Z
 ---------------------------------------------------------------------
      1          8           0        0.048673    1.511562   -0.000000
      2          1           0        0.046024    0.528964   -0.000000
      3          1           0       -0.879957    1.832734   -0.000000
      4          8           0        0.048673   -1.331271    0.000000
      5          1           0        0.826608   -1.931541    0.000000
      6          1           0       -0.771444   -1.872486    0.000000
 ---------------------------------------------------------------------

 SCF Done:  E(RHF) =  -152.113396303     A.U. after   10 cycles
 E2 =    -0.5286060954D+00 EUMP2 =    -0.15264200239848D+03
 CCSD(T)
 CCSD(T)= -0.15266884598D+03

 The electronic state is 1-A'.
 Alpha  occ. eigenvalues --  -20.58821 -20.51580  -1.36316  -1.29274  -0.73506
 Alpha  occ. eigenvalues --   -0.68117  -0.59711  -0.53373  -0.52287  -0.46383
 Alpha virt. eigenvalues --    0.11809   0.17974   0.19013   0.31909   0.48421
 Alpha virt. eigenvalues --    0.54668   0.57020   0.60829   0.69408   0.71519
 Alpha virt. eigenvalues --    0.72770   0.77423   0.82416   0.82601   0.84846

 Mulliken charges:
               1
     1  O   -0.567338
     2  H    0.297995
     3  H    0.239605
     4  O   -0.493192
     5  H    0.265451
     6  H    0.257479
 Sum of Mulliken charges =  -0.00000

 Dipole moment (field-independent basis, Debye):
    X=             -1.6060    Y=             -3.7914    Z=              0.0000  Tot=              4.1175
 Quadrupole moment (field-independent basis, Debye-Ang):
   XX=             -9.1827   YY=             -8.7513   ZZ=            -14.7264
   XY=             -3.4000   XZ=              0.0000   YZ=             -0.0000

 Normal termination of Gaussian 16 at Fri Aug 26 21:54:47 2022.
