 Gaussian 16, Revision A.03,
 Gaussian 16:  ES64L-G16RevA.03 25-Dec-2016

 ------------------
 #p CCSD(T)/cc-pVTZ
 ------------------

 ------------
 H2O_H2O_1045
 ------------
 Symbolic Z-matrix:
 Charge =  0 Multiplicity = 1

                         Standard orientation:
 ---------------------------------------------------------------------
 Center     Atomic      Atomic             Coordinates (Angstroms)
 Number     Number       Type             X           Y           Z
 ---------------------------------------------------------------------
      1          8           0        0.026784    1.517659   -0.000000
      2          1           0        0.022853    0.535065   -0.000000
      3          1           0       -0.901426    1.840041   -0.000000
      4          8           0        0.026784   -1.344512    0.000000
      5          1           0        0.974879   -1.602623    0.000000
      6          1           0       -0.524852   -2.157656    0.000000
 ---------------------------------------------------------------------

 SCF Done:  E(RHF) =  -152.113309105     A.U. after   10 cycles
 E2 =    -0.5284278957D+00 EUMP2 =    -0.15264173700022D+03
 CCSD(T)
 CCSD(T)= -0.15266859972D+03

 The electronic state is 1-A'.
 Alpha  occ. eigenvalues --  -20.58698 -20.51839  -1.36202  -1.29502  -0.73570
 Alpha  occ. eigenvalues --   -0.67958  -0.59790  -0.53253  -0.52533  -0.46626
 Alpha virt. eigenvalues --    0.11953   0.18402   0.18666   0.31794   0.48894
 Alpha virt. eigenvalues --    0.54658   0.56134   0.62725   0.68383   0.72773
 Alpha virt. eigenvalues --    0.72893   0.77160   0.81991   0.82637   0.84489

 Mulliken charges:
               1
     1  O   -0.568669
     2  H    0.292221
     3  H    0.246609
     4  O   -0.484877
     5  H    0.264497
     6  H    0.250218
 Sum of Mulliken charges =   0.00000

 Dipole moment (field-independent basis, Debye):
    X=             -0.8920    Y=             -3.6277    Z=              0.0000  Tot=              3.7358
 Quadrupole moment (field-independent basis, Debye-Ang):
   XX=             -9.2795   YY=             -8.7505   ZZ=            -14.7245
   XY=             -3.7155   XZ=              0.0000   YZ=             -0.0000

 Normal termination of Gaussian 16 at Fri Aug 26 22:07:28 2022.
