 Gaussian 16, Revision A.03,
 Gaussian 16:  ES64L-G16RevA.03 25-Dec-2016

 ------------------
 #p CCSD(T)/cc-pVTZ
 ------------------

 -----------
 H2O_H2O_254
 -----------
 Symbolic Z-matrix:
 Charge =  0 Multiplicity = 1

                         Standard orientation:
 ---------------------------------------------------------------------
 Center     Atomic      Atomic             Coordinates (Angstroms)
 Number     Number       Type             X           Y           Z
 ---------------------------------------------------------------------
      1          8           0        0.082834   -1.198362    0.000000
      2          1           0        0.082066   -0.215761    0.000000
      3          1           0       -0.846410   -1.517755    0.000000
      4          8           0        0.082834    1.043910    0.000000
      5          1           0        0.336409    1.993228    0.000000
      6          1           0       -0.897411    0.975906    0.000000
 ---------------------------------------------------------------------

 SCF Done:  E(RHF) =  -152.069694764     A.U. after   11 cycles
 E2 =    -0.5356740680D+00 EUMP2 =    -0.15260536883202D+03
 CCSD(T)
 CCSD(T)= -0.15263136006D+03

 The electronic state is 1-A'.
 Alpha  occ. eigenvalues --  -20.61023 -20.48247  -1.41244  -1.27148  -0.80004
 Alpha  occ. eigenvalues --   -0.70840  -0.57450  -0.56770  -0.48891  -0.43980
 Alpha virt. eigenvalues --    0.10823   0.16223   0.21156   0.32420   0.49185
 Alpha virt. eigenvalues --    0.51854   0.59664   0.65258   0.71635   0.72734
 Alpha virt. eigenvalues --    0.76699   0.76907   0.79909   0.84084   0.85579

 Mulliken charges:
               1
     1  O   -0.602642
     2  H    0.281180
     3  H    0.202577
     4  O   -0.345430
     5  H    0.229080
     6  H    0.235235
 Sum of Mulliken charges =  -0.00000

 Dipole moment (field-independent basis, Debye):
    X=             -2.5917    Y=              4.0824    Z=              0.0000  Tot=              4.8356
 Quadrupole moment (field-independent basis, Debye-Ang):
   XX=            -10.2408   YY=             -9.6849   ZZ=            -14.5861
   XY=              2.4256   XZ=              0.0000   YZ=              0.0000

 Normal termination of Gaussian 16 at Fri Aug 26 16:56:21 2022.
