 Gaussian 16, Revision A.03,
 Gaussian 16:  ES64L-G16RevA.03 25-Dec-2016

 ------------------
 #p CCSD(T)/cc-pVTZ
 ------------------

 ------------
 H2O_H2O_2611
 ------------
 Symbolic Z-matrix:
 Charge =  0 Multiplicity = 1

                         Standard orientation:
 ---------------------------------------------------------------------
 Center     Atomic      Atomic             Coordinates (Angstroms)
 Number     Number       Type             X           Y           Z
 ---------------------------------------------------------------------
      1          8           0        0.059652    2.148205   -0.000000
      2          1           0        0.058279    1.165604   -0.000000
      3          1           0       -0.869395    2.468170   -0.000000
      4          8           0        0.059652   -1.970775    0.000000
      5          1           0        0.706493   -2.710438    0.000000
      6          1           0       -0.849810   -2.342776    0.000000
 ---------------------------------------------------------------------

 SCF Done:  E(RHF) =  -152.110390710     A.U. after   10 cycles
 E2 =    -0.5260797965D+00 EUMP2 =    -0.15263647050648D+03
 CCSD(T)
 CCSD(T)= -0.15266359026D+03

 The electronic state is 1-A'.
 Alpha  occ. eigenvalues --  -20.56875 -20.54266  -1.34142  -1.31592  -0.71544
 Alpha  occ. eigenvalues --   -0.68980  -0.57710  -0.55073  -0.51274  -0.48730
 Alpha virt. eigenvalues --    0.12289   0.16257   0.19380   0.23697   0.52951
 Alpha virt. eigenvalues --    0.55655   0.56139   0.58925   0.68986   0.70111
 Alpha virt. eigenvalues --    0.77512   0.78894   0.80111   0.80352   0.83463

 Mulliken charges:
               1
     1  O   -0.520633
     2  H    0.265893
     3  H    0.249633
     4  O   -0.510916
     5  H    0.260256
     6  H    0.255766
 Sum of Mulliken charges =   0.00000

 Dipole moment (field-independent basis, Debye):
    X=             -2.0281    Y=             -3.2378    Z=              0.0000  Tot=              3.8206
 Quadrupole moment (field-independent basis, Debye-Ang):
   XX=             -9.3670   YY=             -7.5292   ZZ=            -14.7213
   XY=             -4.0243   XZ=              0.0000   YZ=             -0.0000

 Normal termination of Gaussian 16 at Fri Aug 26 15:59:47 2022.
