 Gaussian 16, Revision A.03,
 Gaussian 16:  ES64L-G16RevA.03 25-Dec-2016

 ------------------
 #p CCSD(T)/cc-pVTZ
 ------------------

 ------------
 H2O_H2O_3090
 ------------
 Symbolic Z-matrix:
 Charge =  0 Multiplicity = 1

                         Standard orientation:
 ---------------------------------------------------------------------
 Center     Atomic      Atomic             Coordinates (Angstroms)
 Number     Number       Type             X           Y           Z
 ---------------------------------------------------------------------
      1          8           0        0.044859    2.339285    0.000000
      2          1           0        0.043044    1.356686    0.000000
      3          1           0       -0.884044    2.659668   -0.000000
      4          8           0        0.044859   -2.158886    0.000000
      5          1           0        0.860853   -2.706299    0.000000
      6          1           0       -0.737601   -2.753246   -0.000000
 ---------------------------------------------------------------------

 SCF Done:  E(RHF) =  -152.109779437     A.U. after   10 cycles
 E2 =    -0.5259171640D+00 EUMP2 =    -0.15263569660098D+03
 CCSD(T)
 CCSD(T)= -0.15266284254D+03

 The electronic state is 1-A'.
 Alpha  occ. eigenvalues --  -20.56608 -20.54470  -1.33888  -1.31789  -0.71288
 Alpha  occ. eigenvalues --   -0.69184  -0.57430  -0.55277  -0.51017  -0.48924
 Alpha virt. eigenvalues --    0.12556   0.15876   0.19475   0.22500   0.53221
 Alpha virt. eigenvalues --    0.55391   0.56388   0.58448   0.68005   0.69342
 Alpha virt. eigenvalues --    0.77883   0.79108   0.79314   0.79904   0.83222

 Mulliken charges:
               1
     1  O   -0.518853
     2  H    0.264204
     3  H    0.252006
     4  O   -0.514677
     5  H    0.260037
     6  H    0.257283
 Sum of Mulliken charges =  -0.00000

 Dipole moment (field-independent basis, Debye):
    X=             -1.5303    Y=             -3.2418    Z=             -0.0000  Tot=              3.5849
 Quadrupole moment (field-independent basis, Debye-Ang):
   XX=             -9.1571   YY=             -7.1247   ZZ=            -14.7196
   XY=             -4.8511   XZ=              0.0000   YZ=             -0.0000

 Normal termination of Gaussian 16 at Fri Aug 26 19:42:51 2022.
