 Gaussian 16, Revision A.03,
 Gaussian 16:  ES64L-G16RevA.03 25-Dec-2016

 ------------------
 #p CCSD(T)/cc-pVTZ
 ------------------

 ------------
 H2O_H2O_3787
 ------------
 Symbolic Z-matrix:
 Charge =  0 Multiplicity = 1

                         Standard orientation:
 ---------------------------------------------------------------------
 Center     Atomic      Atomic             Coordinates (Angstroms)
 Number     Number       Type             X           Y           Z
 ---------------------------------------------------------------------
      1          8           0        0.055977    2.617696   -0.000000
      2          1           0        0.054736    1.635096   -0.000000
      3          1           0       -0.873113    2.937536   -0.000000
      4          8           0        0.055977   -2.438772    0.000000
      5          1           0        0.749903   -3.134452    0.000000
      6          1           0       -0.827150   -2.869576    0.000000
 ---------------------------------------------------------------------

 SCF Done:  E(RHF) =  -152.108818971     A.U. after   10 cycles
 E2 =    -0.5258427193D+00 EUMP2 =    -0.15263466169019D+03
 CCSD(T)
 CCSD(T)= -0.15266184206D+03

 The electronic state is 1-A'.
 Alpha  occ. eigenvalues --  -20.56353 -20.54771  -1.33648  -1.32082  -0.71052
 Alpha  occ. eigenvalues --   -0.69479  -0.57155  -0.55558  -0.50769  -0.49208
 Alpha virt. eigenvalues --    0.12917   0.15313   0.19590   0.21481   0.53476
 Alpha virt. eigenvalues --    0.54966   0.56531   0.57895   0.66739   0.69210
 Alpha virt. eigenvalues --    0.78129   0.79157   0.79637   0.79738   0.82928

 Mulliken charges:
               1
     1  O   -0.515078
     2  H    0.262041
     3  H    0.252307
     4  O   -0.515183
     5  H    0.259506
     6  H    0.256407
 Sum of Mulliken charges =   0.00000

 Dipole moment (field-independent basis, Debye):
    X=             -1.9152    Y=             -3.1683    Z=              0.0000  Tot=              3.7022
 Quadrupole moment (field-independent basis, Debye-Ang):
   XX=             -9.2857   YY=             -6.7494   ZZ=            -14.7163
   XY=             -4.7581   XZ=              0.0000   YZ=             -0.0000

 Normal termination of Gaussian 16 at Fri Aug 26 23:40:16 2022.
