 Gaussian 16, Revision A.03,
 Gaussian 16:  ES64L-G16RevA.03 25-Dec-2016

 ------------------
 #p CCSD(T)/cc-pVTZ
 ------------------

 -----------
 H2O_H2O_128
 -----------
 Symbolic Z-matrix:
 Charge =  0 Multiplicity = 1

                         Standard orientation:
 ---------------------------------------------------------------------
 Center     Atomic      Atomic             Coordinates (Angstroms)
 Number     Number       Type             X           Y           Z
 ---------------------------------------------------------------------
      1          8           0        0.085624   -1.145835    0.000000
      2          1           0        0.085042   -0.163234    0.000000
      3          1           0       -0.843680   -1.465052    0.000000
      4          8           0        0.085624    0.996292    0.000000
      5          1           0        0.276749    1.960127    0.000000
      6          1           0       -0.888100    0.864506    0.000000
 ---------------------------------------------------------------------

 SCF Done:  E(RHF) =  -152.045123120     A.U. after   11 cycles
 E2 =    -0.5376719393D+00 EUMP2 =    -0.15258279505923D+03
 CCSD(T)
 CCSD(T)= -0.15260850064D+03

 The electronic state is 1-A'.
 Alpha  occ. eigenvalues --  -20.61497 -20.47198  -1.43150  -1.26526  -0.82288
 Alpha  occ. eigenvalues --   -0.71473  -0.57766  -0.56500  -0.47808  -0.43293
 Alpha virt. eigenvalues --    0.10646   0.15930   0.21575   0.31904   0.49440
 Alpha virt. eigenvalues --    0.51150   0.59956   0.65846   0.71169   0.72533
 Alpha virt. eigenvalues --    0.75709   0.78399   0.80328   0.85470   0.86437

 Mulliken charges:
               1
     1  O   -0.610397
     2  H    0.267182
     3  H    0.192353
     4  O   -0.314035
     5  H    0.227797
     6  H    0.237100
 Sum of Mulliken charges =  -0.00000

 Dipole moment (field-independent basis, Debye):
    X=             -2.6499    Y=              4.1970    Z=              0.0000  Tot=              4.9635
 Quadrupole moment (field-independent basis, Debye-Ang):
   XX=            -10.3658   YY=             -9.8852   ZZ=            -14.5390
   XY=              2.2716   XZ=              0.0000   YZ=              0.0000

 Normal termination of Gaussian 16 at Fri Aug 26 16:03:53 2022.
