 Gaussian 16, Revision A.03,
 Gaussian 16:  ES64L-G16RevA.03 25-Dec-2016

 ------------------
 #p CCSD(T)/cc-pVTZ
 ------------------

 -----------
 H2O_H2O_104
 -----------
 Symbolic Z-matrix:
 Charge =  0 Multiplicity = 1

                         Standard orientation:
 ---------------------------------------------------------------------
 Center     Atomic      Atomic             Coordinates (Angstroms)
 Number     Number       Type             X           Y           Z
 ---------------------------------------------------------------------
      1          8           0        0.082838   -1.138527    0.000000
      2          1           0        0.082026   -0.155926    0.000000
      3          1           0       -0.846392   -1.457961    0.000000
      4          8           0        0.082838    0.984082    0.000000
      5          1           0        0.336370    1.933412    0.000000
      6          1           0       -0.897405    0.916034    0.000000
 ---------------------------------------------------------------------

 SCF Done:  E(RHF) =  -152.042092443     A.U. after   11 cycles
 E2 =    -0.5376717344D+00 EUMP2 =    -0.15257976417705D+03
 CCSD(T)
 CCSD(T)= -0.15260540685D+03

 The electronic state is 1-A'.
 Alpha  occ. eigenvalues --  -20.61651 -20.46604  -1.43456  -1.26115  -0.82308
 Alpha  occ. eigenvalues --   -0.72321  -0.58020  -0.56026  -0.47145  -0.42835
 Alpha virt. eigenvalues --    0.10557   0.15908   0.21569   0.31902   0.49454
 Alpha virt. eigenvalues --    0.51285   0.60029   0.65381   0.71032   0.72344
 Alpha virt. eigenvalues --    0.75980   0.78683   0.80763   0.86005   0.86356

 Mulliken charges:
               1
     1  O   -0.620216
     2  H    0.268671
     3  H    0.191761
     4  O   -0.307117
     5  H    0.228692
     6  H    0.238209
 Sum of Mulliken charges =  -0.00000

 Dipole moment (field-independent basis, Debye):
    X=             -2.5489    Y=              4.3569    Z=              0.0000  Tot=              5.0477
 Quadrupole moment (field-independent basis, Debye-Ang):
   XX=            -10.2103   YY=             -9.9341   ZZ=            -14.5356
   XY=              2.3560   XZ=              0.0000   YZ=              0.0000

 Normal termination of Gaussian 16 at Fri Aug 26 15:53:07 2022.
