 Gaussian 16, Revision A.03,
 Gaussian 16:  ES64L-G16RevA.03 25-Dec-2016

 ------------------
 #p CCSD(T)/cc-pVTZ
 ------------------

 ------------
 H2O_H2O_1621
 ------------
 Symbolic Z-matrix:
 Charge =  0 Multiplicity = 1

                         Standard orientation:
 ---------------------------------------------------------------------
 Center     Atomic      Atomic             Coordinates (Angstroms)
 Number     Number       Type             X           Y           Z
 ---------------------------------------------------------------------
      1          8           0       -0.023292    1.745487    0.000000
      2          1           0       -0.019727    0.762892    0.000000
      3          1           0        0.905039    2.067524    0.000000
      4          8           0       -0.023292   -1.575146    0.000000
      5          1           0       -0.986311   -1.770337    0.000000
      6          1           0        0.473666   -2.422813    0.000000
 ---------------------------------------------------------------------

 SCF Done:  E(RHF) =  -152.113329160     A.U. after   10 cycles
 E2 =    -0.5268629948D+00 EUMP2 =    -0.15264019215457D+03
 CCSD(T)
 CCSD(T)= -0.15266721504D+03

 The electronic state is 1-A'.
 Alpha  occ. eigenvalues --  -20.57741 -20.53325  -1.35030  -1.30738  -0.72441
 Alpha  occ. eigenvalues --   -0.68266  -0.58824  -0.54122  -0.52158  -0.47895
 Alpha virt. eigenvalues --    0.12176   0.17472   0.19064   0.28259   0.51103
 Alpha virt. eigenvalues --    0.54285   0.55940   0.60011   0.68952   0.73287
 Alpha virt. eigenvalues --    0.74746   0.77372   0.81185   0.83078   0.84395

 Mulliken charges:
               1
     1  O   -0.540167
     2  H    0.273194
     3  H    0.251663
     4  O   -0.505533
     5  H    0.263550
     6  H    0.257294
 Sum of Mulliken charges =  -0.00000

 Dipole moment (field-independent basis, Debye):
    X=              0.7891    Y=             -3.3002    Z=              0.0000  Tot=              3.3933
 Quadrupole moment (field-independent basis, Debye-Ang):
   XX=             -9.3621   YY=             -8.3119   ZZ=            -14.7323
   XY=              4.3511   XZ=              0.0000   YZ=              0.0000

 Normal termination of Gaussian 16 at Sat Aug 27 23:57:51 2022.
