 Gaussian 16, Revision A.03,
 Gaussian 16:  ES64L-G16RevA.03 25-Dec-2016

 ------------------
 #p CCSD(T)/cc-pVTZ
 ------------------

 ------------
 H2O_H2O_1150
 ------------
 Symbolic Z-matrix:
 Charge =  0 Multiplicity = 1

                         Standard orientation:
 ---------------------------------------------------------------------
 Center     Atomic      Atomic             Coordinates (Angstroms)
 Number     Number       Type             X           Y           Z
 ---------------------------------------------------------------------
      1          8           0        0.092949   -1.545580    0.000000
      2          1           0        0.092949   -0.562979    0.000000
      3          1           0       -0.836544   -1.864247    0.000000
      4          8           0        0.092949    1.412793    0.000000
      5          1           0        0.092950    2.395396    0.000000
      6          1           0       -0.836544    1.094127    0.000000
 ---------------------------------------------------------------------

 SCF Done:  E(RHF) =  -152.107264724     A.U. after   10 cycles
 E2 =    -0.5289169069D+00 EUMP2 =    -0.15263618163115D+03
 CCSD(T)
 CCSD(T)= -0.15266321325D+03

 The electronic state is 1-A'.
 Alpha  occ. eigenvalues --  -20.58399 -20.53943  -1.35941  -1.31388  -0.74090
 Alpha  occ. eigenvalues --   -0.68493  -0.59265  -0.54653  -0.52894  -0.48456
 Alpha virt. eigenvalues --    0.11465   0.16358   0.20706   0.29682   0.48571
 Alpha virt. eigenvalues --    0.53345   0.58049   0.59825   0.67993   0.72071
 Alpha virt. eigenvalues --    0.73914   0.78270   0.80497   0.81339   0.83072

 Mulliken charges:
               1
     1  O   -0.527771
     2  H    0.279142
     3  H    0.233808
     4  O   -0.458273
     5  H    0.239832
     6  H    0.233261
 Sum of Mulliken charges =  -0.00000

 Dipole moment (field-independent basis, Debye):
    X=             -3.0751    Y=              2.7209    Z=              0.0000  Tot=              4.1061
 Quadrupole moment (field-independent basis, Debye-Ang):
   XX=            -10.9038   YY=             -9.1906   ZZ=            -14.6977
   XY=              2.0949   XZ=              0.0000   YZ=              0.0000

 Normal termination of Gaussian 16 at Fri Aug 26 22:45:39 2022.
