 Gaussian 16, Revision A.03,
 Gaussian 16:  ES64L-G16RevA.03 25-Dec-2016

 ------------------
 #p CCSD(T)/cc-pVTZ
 ------------------

 ------------
 H2O_H2O_4388
 ------------
 Symbolic Z-matrix:
 Charge =  0 Multiplicity = 1

                         Standard orientation:
 ---------------------------------------------------------------------
 Center     Atomic      Atomic             Coordinates (Angstroms)
 Number     Number       Type             X           Y           Z
 ---------------------------------------------------------------------
      1          8           0        0.052273    2.857563    0.000000
      2          1           0        0.051026    1.874963    0.000000
      3          1           0       -0.876815    3.177409    0.000000
      4          8           0        0.052273   -2.677643   -0.000000
      5          1           0        0.790210   -3.326454   -0.000000
      6          1           0       -0.800790   -3.165279   -0.000000
 ---------------------------------------------------------------------

 SCF Done:  E(RHF) =  -152.108447610     A.U. after   10 cycles
 E2 =    -0.5258134180D+00 EUMP2 =    -0.15263426102797D+03
 CCSD(T)
 CCSD(T)= -0.15266145661D+03

 The electronic state is 1-A'.
 Alpha  occ. eigenvalues --  -20.56208 -20.54922  -1.33508  -1.32230  -0.70913
 Alpha  occ. eigenvalues --   -0.69630  -0.57003  -0.55701  -0.50627  -0.49353
 Alpha virt. eigenvalues --    0.13301   0.14980   0.19681   0.21089   0.53631
 Alpha virt. eigenvalues --    0.54861   0.56643   0.57802   0.66781   0.68834
 Alpha virt. eigenvalues --    0.78261   0.79502   0.79624   0.80029   0.82737

 Mulliken charges:
               1
     1  O   -0.513905
     2  H    0.260701
     3  H    0.253027
     4  O   -0.514676
     5  H    0.258547
     6  H    0.256305
 Sum of Mulliken charges =  -0.00000

 Dipole moment (field-independent basis, Debye):
    X=             -1.7921    Y=             -3.1618    Z=             -0.0000  Tot=              3.6344
 Quadrupole moment (field-independent basis, Debye-Ang):
   XX=             -9.2250   YY=             -6.3182   ZZ=            -14.7149
   XY=             -5.2834   XZ=             -0.0000   YZ=             -0.0000

 Normal termination of Gaussian 16 at Sun Aug 28 02:26:04 2022.
