 Gaussian 16, Revision A.03,
 Gaussian 16:  ES64L-G16RevA.03 25-Dec-2016

 ------------------
 #p CCSD(T)/cc-pVTZ
 ------------------

 ------------
 H2O_H2O_1419
 ------------
 Symbolic Z-matrix:
 Charge =  0 Multiplicity = 1

                         Standard orientation:
 ---------------------------------------------------------------------
 Center     Atomic      Atomic             Coordinates (Angstroms)
 Number     Number       Type             X           Y           Z
 ---------------------------------------------------------------------
      1          8           0        0.030280    1.668537    0.000000
      2          1           0        0.026910    0.685942    0.000000
      3          1           0       -0.898115    1.990390    0.000000
      4          8           0        0.030280   -1.492993   -0.000000
      5          1           0        0.959645   -1.812028   -0.000000
      6          1           0       -0.572915   -2.268662   -0.000000
 ---------------------------------------------------------------------

 SCF Done:  E(RHF) =  -152.114015519     A.U. after   10 cycles
 E2 =    -0.5272669060D+00 EUMP2 =    -0.15264128242527D+03
 CCSD(T)
 CCSD(T)= -0.15266826455D+03

 The electronic state is 1-A'.
 Alpha  occ. eigenvalues --  -20.58046 -20.52823  -1.35361  -1.30293  -0.72726
 Alpha  occ. eigenvalues --   -0.68004  -0.59198  -0.53599  -0.52482  -0.47446
 Alpha virt. eigenvalues --    0.12108   0.17822   0.18893   0.29511   0.50151
 Alpha virt. eigenvalues --    0.54355   0.55906   0.60538   0.68777   0.72646
 Alpha virt. eigenvalues --    0.73962   0.77054   0.81650   0.82895   0.84651

 Mulliken charges:
               1
     1  O   -0.547420
     2  H    0.279335
     3  H    0.248954
     4  O   -0.503356
     5  H    0.265062
     6  H    0.257425
 Sum of Mulliken charges =  -0.00000

 Dipole moment (field-independent basis, Debye):
    X=             -1.0171    Y=             -3.4764    Z=             -0.0000  Tot=              3.6221
 Quadrupole moment (field-independent basis, Debye-Ang):
   XX=             -9.2289   YY=             -8.3919   ZZ=            -14.7343
   XY=             -3.9923   XZ=             -0.0000   YZ=              0.0000

 Normal termination of Gaussian 16 at Sat Aug 27 00:28:07 2022.
