 Gaussian 16, Revision A.03,
 Gaussian 16:  ES64L-G16RevA.03 25-Dec-2016

 ------------------
 #p CCSD(T)/cc-pVTZ
 ------------------

 -----------
 H2O_H2O_325
 -----------
 Symbolic Z-matrix:
 Charge =  0 Multiplicity = 1

                         Standard orientation:
 ---------------------------------------------------------------------
 Center     Atomic      Atomic             Coordinates (Angstroms)
 Number     Number       Type             X           Y           Z
 ---------------------------------------------------------------------
      1          8           0        0.092949   -1.216507    0.000000
      2          1           0        0.092949   -0.233905    0.000000
      3          1           0       -0.836544   -1.535173    0.000000
      4          8           0        0.092949    1.083720    0.000000
      5          1           0        0.092949    2.066321    0.000000
      6          1           0       -0.836544    0.765052    0.000000
 ---------------------------------------------------------------------

 SCF Done:  E(RHF) =  -152.069666615     A.U. after   11 cycles
 E2 =    -0.5359040736D+00 EUMP2 =    -0.15260557068852D+03
 CCSD(T)
 CCSD(T)= -0.15263175339D+03

 The electronic state is 1-A'.
 Alpha  occ. eigenvalues --  -20.60568 -20.50136  -1.40725  -1.28610  -0.80539
 Alpha  occ. eigenvalues --   -0.68364  -0.58862  -0.56140  -0.50913  -0.45524
 Alpha virt. eigenvalues --    0.11088   0.16182   0.21484   0.32118   0.48905
 Alpha virt. eigenvalues --    0.51092   0.59316   0.66853   0.71196   0.72465
 Alpha virt. eigenvalues --    0.75162   0.76161   0.79187   0.82426   0.84508

 Mulliken charges:
               1
     1  O   -0.570567
     2  H    0.271809
     3  H    0.202677
     4  O   -0.361910
     5  H    0.227288
     6  H    0.230704
 Sum of Mulliken charges =  -0.00000

 Dipole moment (field-independent basis, Debye):
    X=             -2.9548    Y=              3.4824    Z=              0.0000  Tot=              4.5670
 Quadrupole moment (field-independent basis, Debye-Ang):
   XX=            -10.8476   YY=             -9.6848   ZZ=            -14.5841
   XY=              1.9659   XZ=              0.0000   YZ=              0.0000

 Normal termination of Gaussian 16 at Fri Aug 26 17:26:48 2022.
