 Gaussian 16, Revision A.03,
 Gaussian 16:  ES64L-G16RevA.03 25-Dec-2016

 ------------------
 #p CCSD(T)/cc-pVTZ
 ------------------

 ------------
 H2O_H2O_4678
 ------------
 Symbolic Z-matrix:
 Charge =  0 Multiplicity = 1

                         Standard orientation:
 ---------------------------------------------------------------------
 Center     Atomic      Atomic             Coordinates (Angstroms)
 Number     Number       Type             X           Y           Z
 ---------------------------------------------------------------------
      1          8           0        0.085596   -2.960758    0.000000
      2          1           0        0.085380   -1.978157    0.000000
      3          1           0       -0.843826   -3.279629    0.000000
      4          8           0        0.085596    2.811151    0.000000
      5          1           0        0.277080    3.774915    0.000000
      6          1           0       -0.888177    2.679729    0.000000
 ---------------------------------------------------------------------

 SCF Done:  E(RHF) =  -152.107811833     A.U. after   10 cycles
 E2 =    -0.5258544004D+00 EUMP2 =    -0.15263366623328D+03
 CCSD(T)
 CCSD(T)= -0.15266087724D+03

 The electronic state is 1-A'.
 Alpha  occ. eigenvalues --  -20.56174 -20.55235  -1.33475  -1.32538  -0.70887
 Alpha  occ. eigenvalues --   -0.69936  -0.56942  -0.55994  -0.50588  -0.49653
 Alpha virt. eigenvalues --    0.13123   0.14696   0.19239   0.21230   0.53414
 Alpha virt. eigenvalues --    0.54793   0.56604   0.57670   0.66983   0.68451
 Alpha virt. eigenvalues --    0.78301   0.79216   0.79653   0.80947   0.81845

 Mulliken charges:
               1
     1  O   -0.510541
     2  H    0.258116
     3  H    0.252376
     4  O   -0.511485
     5  H    0.258106
     6  H    0.253428
 Sum of Mulliken charges =   0.00000

 Dipole moment (field-independent basis, Debye):
    X=             -2.9367    Y=              2.6217    Z=              0.0000  Tot=              3.9367
 Quadrupole moment (field-independent basis, Debye-Ang):
   XX=            -10.3965   YY=             -8.0844   ZZ=            -14.7126
   XY=              2.9607   XZ=              0.0000   YZ=              0.0000

 Normal termination of Gaussian 16 at Sun Aug 28 05:00:50 2022.
