 Gaussian 16, Revision A.03,
 Gaussian 16:  ES64L-G16RevA.03 25-Dec-2016

 ------------------
 #p CCSD(T)/cc-pVTZ
 ------------------

 ------------
 H2O_H2O_2300
 ------------
 Symbolic Z-matrix:
 Charge =  0 Multiplicity = 1

                         Standard orientation:
 ---------------------------------------------------------------------
 Center     Atomic      Atomic             Coordinates (Angstroms)
 Number     Number       Type             X           Y           Z
 ---------------------------------------------------------------------
      1          8           0        0.092949   -2.004289    0.000000
      2          1           0        0.092949   -1.021688    0.000000
      3          1           0       -0.836544   -2.322956    0.000000
      4          8           0        0.092949    1.871503    0.000000
      5          1           0        0.092949    2.854104    0.000000
      6          1           0       -0.836544    1.552835    0.000000
 ---------------------------------------------------------------------

 SCF Done:  E(RHF) =  -152.108567662     A.U. after   10 cycles
 E2 =    -0.5264506501D+00 EUMP2 =    -0.15263501831197D+03
 CCSD(T)
 CCSD(T)= -0.15266217118D+03

 The electronic state is 1-A'.
 Alpha  occ. eigenvalues --  -20.57059 -20.54977  -1.34352  -1.32279  -0.71841
 Alpha  occ. eigenvalues --   -0.69619  -0.57831  -0.55716  -0.51451  -0.49391
 Alpha virt. eigenvalues --    0.11419   0.15937   0.20004   0.24637   0.53073
 Alpha virt. eigenvalues --    0.55842   0.56614   0.57553   0.68181   0.72154
 Alpha virt. eigenvalues --    0.76934   0.79461   0.79622   0.79746   0.83252

 Mulliken charges:
               1
     1  O   -0.512969
     2  H    0.263512
     3  H    0.246228
     4  O   -0.502180
     5  H    0.259075
     6  H    0.246334
 Sum of Mulliken charges =  -0.00000

 Dipole moment (field-independent basis, Debye):
    X=             -3.1445    Y=              2.4397    Z=              0.0000  Tot=              3.9799
 Quadrupole moment (field-independent basis, Debye-Ang):
   XX=            -10.8735   YY=             -9.1705   ZZ=            -14.7133
   XY=              2.1412   XZ=              0.0000   YZ=              0.0000

 Normal termination of Gaussian 16 at Sun Aug 28 06:08:47 2022.
