 Gaussian 16, Revision A.03,
 Gaussian 16:  ES64L-G16RevA.03 25-Dec-2016

 ------------------
 #p CCSD(T)/cc-pVTZ
 ------------------

 ------------
 H2O_H2O_4433
 ------------
 Symbolic Z-matrix:
 Charge =  0 Multiplicity = 1

                         Standard orientation:
 ---------------------------------------------------------------------
 Center     Atomic      Atomic             Coordinates (Angstroms)
 Number     Number       Type             X           Y           Z
 ---------------------------------------------------------------------
      1          8           0        0.070185    2.872262    0.000000
      2          1           0        0.069492    1.889661    0.000000
      3          1           0       -0.859083    3.191584    0.000000
      4          8           0        0.070185   -2.701994   -0.000000
      5          1           0        0.560885   -3.553300   -0.000000
      6          1           0       -0.894247   -2.890088   -0.000000
 ---------------------------------------------------------------------

 SCF Done:  E(RHF) =  -152.108200173     A.U. after   10 cycles
 E2 =    -0.5258326872D+00 EUMP2 =    -0.15263403285985D+03
 CCSD(T)
 CCSD(T)= -0.15266123398D+03

 The electronic state is 1-A'.
 Alpha  occ. eigenvalues --  -20.56206 -20.55023  -1.33507  -1.32329  -0.70915
 Alpha  occ. eigenvalues --   -0.69727  -0.56990  -0.55793  -0.50624  -0.49448
 Alpha virt. eigenvalues --    0.13213   0.14894   0.19544   0.21117   0.53499
 Alpha virt. eigenvalues --    0.54879   0.56618   0.57777   0.66826   0.68733
 Alpha virt. eigenvalues --    0.78265   0.79412   0.79442   0.80492   0.82580

 Mulliken charges:
               1
     1  O   -0.512502
     2  H    0.259911
     3  H    0.252453
     4  O   -0.513452
     5  H    0.258635
     6  H    0.254954
 Sum of Mulliken charges =  -0.00000

 Dipole moment (field-independent basis, Debye):
    X=             -2.4063    Y=             -2.9906    Z=             -0.0000  Tot=              3.8385
 Quadrupole moment (field-independent basis, Debye-Ang):
   XX=             -9.6792   YY=             -6.8477   ZZ=            -14.7140
   XY=             -4.1745   XZ=             -0.0000   YZ=              0.0000

 Normal termination of Gaussian 16 at Sun Aug 28 02:48:44 2022.
