 Gaussian 16, Revision A.03,
 Gaussian 16:  ES64L-G16RevA.03 25-Dec-2016

 ------------------
 #p CCSD(T)/cc-pVTZ
 ------------------

 ------------
 H2O_H2O_2393
 ------------
 Symbolic Z-matrix:
 Charge =  0 Multiplicity = 1

                         Standard orientation:
 ---------------------------------------------------------------------
 Center     Atomic      Atomic             Coordinates (Angstroms)
 Number     Number       Type             X           Y           Z
 ---------------------------------------------------------------------
      1          8           0        0.033820    2.058501   -0.000000
      2          1           0        0.031271    1.075902   -0.000000
      3          1           0       -0.894843    2.379577    0.000000
      4          8           0        0.033820   -1.881000   -0.000000
      5          1           0        0.940648   -2.259380   -0.000000
      6          1           0       -0.618200   -2.616102    0.000000
 ---------------------------------------------------------------------

 SCF Done:  E(RHF) =  -152.111281824     A.U. after   10 cycles
 E2 =    -0.5261278443D+00 EUMP2 =    -0.15263740966820D+03
 CCSD(T)
 CCSD(T)= -0.15266450703D+03

 The electronic state is 1-A'.
 Alpha  occ. eigenvalues --  -20.57012 -20.54065  -1.34273  -1.31402  -0.71667
 Alpha  occ. eigenvalues --   -0.68808  -0.57890  -0.54889  -0.51411  -0.48550
 Alpha virt. eigenvalues --    0.12325   0.16578   0.19269   0.24597   0.52767
 Alpha virt. eigenvalues --    0.55425   0.56434   0.58808   0.69030   0.71207
 Alpha virt. eigenvalues --    0.77199   0.78603   0.80305   0.81760   0.83666

 Mulliken charges:
               1
     1  O   -0.525559
     2  H    0.266850
     3  H    0.251753
     4  O   -0.511232
     5  H    0.260683
     6  H    0.257505
 Sum of Mulliken charges =  -0.00000

 Dipole moment (field-independent basis, Debye):
    X=             -1.1495    Y=             -3.2695    Z=              0.0000  Tot=              3.4657
 Quadrupole moment (field-independent basis, Debye-Ang):
   XX=             -9.1864   YY=             -7.6619   ZZ=            -14.7244
   XY=             -4.7280   XZ=              0.0000   YZ=              0.0000

 Normal termination of Gaussian 16 at Sun Aug 28 06:52:35 2022.
