 Gaussian 16, Revision A.03,
 Gaussian 16:  ES64L-G16RevA.03 25-Dec-2016

 ------------------
 #p CCSD(T)/cc-pVTZ
 ------------------

 ------------
 H2O_H2O_4842
 ------------
 Symbolic Z-matrix:
 Charge =  0 Multiplicity = 1

                         Standard orientation:
 ---------------------------------------------------------------------
 Center     Atomic      Atomic             Coordinates (Angstroms)
 Number     Number       Type             X           Y           Z
 ---------------------------------------------------------------------
      1          8           0        0.037402    3.036560    0.000000
      2          1           0        0.035804    2.053960    0.000000
      3          1           0       -0.891571    3.356738    0.000000
      4          8           0        0.037402   -2.857559   -0.000000
      5          1           0        0.917963   -3.293586   -0.000000
      6          1           0       -0.660632   -3.549119   -0.000000
 ---------------------------------------------------------------------

 SCF Done:  E(RHF) =  -152.108316473     A.U. after   10 cycles
 E2 =    -0.5258025059D+00 EUMP2 =    -0.15263411897868D+03
 CCSD(T)
 CCSD(T)= -0.15266131995D+03

 The electronic state is 1-A'.
 Alpha  occ. eigenvalues --  -20.56128 -20.55016  -1.33430  -1.32323  -0.70834
 Alpha  occ. eigenvalues --   -0.69726  -0.56919  -0.55793  -0.50548  -0.49445
 Alpha virt. eigenvalues --    0.13505   0.14806   0.19730   0.20930   0.53707
 Alpha virt. eigenvalues --    0.54814   0.56713   0.57775   0.67013   0.68553
 Alpha virt. eigenvalues --    0.78335   0.79414   0.79731   0.80462   0.82316

 Mulliken charges:
               1
     1  O   -0.513596
     2  H    0.259690
     3  H    0.253858
     4  O   -0.514197
     5  H    0.257567
     6  H    0.256678
 Sum of Mulliken charges =  -0.00000

 Dipole moment (field-independent basis, Debye):
    X=             -1.2840    Y=             -3.1337    Z=             -0.0000  Tot=              3.3865
 Quadrupole moment (field-independent basis, Debye-Ang):
   XX=             -9.1598   YY=             -6.0769   ZZ=            -14.7145
   XY=             -6.4886   XZ=             -0.0000   YZ=              0.0000

 Normal termination of Gaussian 16 at Sun Aug 28 06:18:59 2022.
