 Gaussian 16, Revision A.03,
 Gaussian 16:  ES64L-G16RevA.03 25-Dec-2016

 ------------------
 #p CCSD(T)/cc-pVTZ
 ------------------

 ------------
 H2O_H2O_3757
 ------------
 Symbolic Z-matrix:
 Charge =  0 Multiplicity = 1

                         Standard orientation:
 ---------------------------------------------------------------------
 Center     Atomic      Atomic             Coordinates (Angstroms)
 Number     Number       Type             X           Y           Z
 ---------------------------------------------------------------------
      1          8           0        0.073530    2.601220   -0.000000
      2          1           0        0.072875    1.618619   -0.000000
      3          1           0       -0.855751    2.920505    0.000000
      4          8           0        0.073530   -2.434267   -0.000000
      5          1           0        0.507537   -3.315825   -0.000000
      6          1           0       -0.901134   -2.558919    0.000000
 ---------------------------------------------------------------------

 SCF Done:  E(RHF) =  -152.108497840     A.U. after   10 cycles
 E2 =    -0.5258734347D+00 EUMP2 =    -0.15263437127516D+03
 CCSD(T)
 CCSD(T)= -0.15266155826D+03

 The electronic state is 1-A'.
 Alpha  occ. eigenvalues --  -20.56368 -20.54900  -1.33664  -1.32209  -0.71074
 Alpha  occ. eigenvalues --   -0.69602  -0.57156  -0.55676  -0.50782  -0.49330
 Alpha virt. eigenvalues --    0.12678   0.15258   0.19415   0.21625   0.53303
 Alpha virt. eigenvalues --    0.55040   0.56488   0.57948   0.66754   0.69128
 Alpha virt. eigenvalues --    0.78118   0.78847   0.79523   0.80444   0.82788

 Mulliken charges:
               1
     1  O   -0.513220
     2  H    0.261035
     3  H    0.251519
     4  O   -0.513635
     5  H    0.259628
     6  H    0.254673
 Sum of Mulliken charges =  -0.00000

 Dipole moment (field-independent basis, Debye):
    X=             -2.5152    Y=             -2.9564    Z=              0.0000  Tot=              3.8816
 Quadrupole moment (field-independent basis, Debye-Ang):
   XX=             -9.8115   YY=             -7.3520   ZZ=            -14.7150
   XY=             -3.7518   XZ=              0.0000   YZ=              0.0000

 Normal termination of Gaussian 16 at Fri Aug 26 23:30:21 2022.
