 Gaussian 16, Revision A.03,
 Gaussian 16:  ES64L-G16RevA.03 25-Dec-2016

 ------------------
 #p CCSD(T)/cc-pVTZ
 ------------------

 -----------
 H2O_H2O_695
 -----------
 Symbolic Z-matrix:
 Charge =  0 Multiplicity = 1

                         Standard orientation:
 ---------------------------------------------------------------------
 Center     Atomic      Atomic             Coordinates (Angstroms)
 Number     Number       Type             X           Y           Z
 ---------------------------------------------------------------------
      1          8           0        0.026822    1.378041    0.000000
      2          1           0        0.022465    0.395449    0.000000
      3          1           0       -0.901250    1.700825    0.000000
      4          8           0        0.026822   -1.204917    0.000000
      5          1           0        0.974806   -1.463439    0.000000
      6          1           0       -0.525166   -2.017823    0.000000
 ---------------------------------------------------------------------

 SCF Done:  E(RHF) =  -152.107637858     A.U. after   10 cycles
 E2 =    -0.5302960113D+00 EUMP2 =    -0.15263793386896D+03
 CCSD(T)
 CCSD(T)= -0.15266453954D+03

 The electronic state is 1-A'.
 Alpha  occ. eigenvalues --  -20.59556 -20.50196  -1.37557  -1.28275  -0.74871
 Alpha  occ. eigenvalues --   -0.68984  -0.59607  -0.54398  -0.50777  -0.45319
 Alpha virt. eigenvalues --    0.11650   0.18212   0.19176   0.33442   0.47841
 Alpha virt. eigenvalues --    0.54114   0.57964   0.66014   0.68290   0.72328
 Alpha virt. eigenvalues --    0.73234   0.77489   0.80783   0.83556   0.84092

 Mulliken charges:
               1
     1  O   -0.598958
     2  H    0.303748
     3  H    0.240417
     4  O   -0.452371
     5  H    0.262307
     6  H    0.244858
 Sum of Mulliken charges =   0.00000

 Dipole moment (field-independent basis, Debye):
    X=             -0.8778    Y=             -3.9302    Z=             -0.0000  Tot=              4.0271
 Quadrupole moment (field-independent basis, Debye-Ang):
   XX=             -9.2616   YY=             -9.1463   ZZ=            -14.6962
   XY=             -3.3741   XZ=              0.0000   YZ=             -0.0000

 Normal termination of Gaussian 16 at Fri Aug 26 19:54:09 2022.
