 Gaussian 16, Revision A.03,
 Gaussian 16:  ES64L-G16RevA.03 25-Dec-2016

 ------------------
 #p CCSD(T)/cc-pVTZ
 ------------------

 ------------
 H2O_H2O_4052
 ------------
 Symbolic Z-matrix:
 Charge =  0 Multiplicity = 1

                         Standard orientation:
 ---------------------------------------------------------------------
 Center     Atomic      Atomic             Coordinates (Angstroms)
 Number     Number       Type             X           Y           Z
 ---------------------------------------------------------------------
      1          8           0        0.088230   -2.708591    0.000000
      2          1           0        0.088078   -1.725990    0.000000
      3          1           0       -0.841214   -3.027401    0.000000
      4          8           0        0.088230    2.564267    0.000000
      5          1           0        0.216336    3.538482    0.000000
      6          1           0       -0.874876    2.369501    0.000000
 ---------------------------------------------------------------------

 SCF Done:  E(RHF) =  -152.107883893     A.U. after   10 cycles
 E2 =    -0.5258864233D+00 EUMP2 =    -0.15263377031592D+03
 CCSD(T)
 CCSD(T)= -0.15266097590D+03

 The electronic state is 1-A'.
 Alpha  occ. eigenvalues --  -20.56299 -20.55197  -1.33600  -1.32500  -0.71015
 Alpha  occ. eigenvalues --   -0.69894  -0.57067  -0.55955  -0.50711  -0.49614
 Alpha virt. eigenvalues --    0.12491   0.14994   0.19028   0.21871   0.53147
 Alpha virt. eigenvalues --    0.54965   0.56508   0.57839   0.66754   0.68763
 Alpha virt. eigenvalues --    0.78185   0.79196   0.79254   0.81283   0.82368

 Mulliken charges:
               1
     1  O   -0.510449
     2  H    0.258601
     3  H    0.251614
     4  O   -0.511481
     5  H    0.259011
     6  H    0.252705
 Sum of Mulliken charges =  -0.00000

 Dipole moment (field-independent basis, Debye):
    X=             -3.0212    Y=              2.5436    Z=              0.0000  Tot=              3.9494
 Quadrupole moment (field-independent basis, Debye-Ang):
   XX=            -10.5518   YY=             -8.5377   ZZ=            -14.7126
   XY=              2.6497   XZ=              0.0000   YZ=              0.0000

 Normal termination of Gaussian 16 at Sat Aug 27 22:59:26 2022.
