 Gaussian 16, Revision A.03,
 Gaussian 16:  ES64L-G16RevA.03 25-Dec-2016

 ------------------
 #p CCSD(T)/cc-pVTZ
 ------------------

 ------------
 H2O_H2O_2252
 ------------
 Symbolic Z-matrix:
 Charge =  0 Multiplicity = 1

                         Standard orientation:
 ---------------------------------------------------------------------
 Center     Atomic      Atomic             Coordinates (Angstroms)
 Number     Number       Type             X           Y           Z
 ---------------------------------------------------------------------
      1          8           0        0.088234   -1.990607    0.000000
      2          1           0        0.088025   -1.008005    0.000000
      3          1           0       -0.841191   -2.309470    0.000000
      4          8           0        0.088234    1.846293    0.000000
      5          1           0        0.216283    2.820515    0.000000
      6          1           0       -0.874860    1.651471    0.000000
 ---------------------------------------------------------------------

 SCF Done:  E(RHF) =  -152.109255853     A.U. after   10 cycles
 E2 =    -0.5264338540D+00 EUMP2 =    -0.15263568970748D+03
 CCSD(T)
 CCSD(T)= -0.15266282269D+03

 The electronic state is 1-A'.
 Alpha  occ. eigenvalues --  -20.57104 -20.54715  -1.34390  -1.32027  -0.71858
 Alpha  occ. eigenvalues --   -0.69380  -0.57899  -0.55470  -0.51496  -0.49146
 Alpha virt. eigenvalues --    0.11606   0.16085   0.19844   0.24701   0.52868
 Alpha virt. eigenvalues --    0.55792   0.56604   0.57661   0.68468   0.72349
 Alpha virt. eigenvalues --    0.76858   0.79452   0.79844   0.80588   0.83351

 Mulliken charges:
               1
     1  O   -0.515482
     2  H    0.264622
     3  H    0.246095
     4  O   -0.503083
     5  H    0.258997
     6  H    0.248852
 Sum of Mulliken charges =  -0.00000

 Dipole moment (field-independent basis, Debye):
    X=             -2.9850    Y=              2.6623    Z=              0.0000  Tot=              3.9998
 Quadrupole moment (field-independent basis, Debye-Ang):
   XX=            -10.5775   YY=             -8.7463   ZZ=            -14.7163
   XY=              2.5210   XZ=              0.0000   YZ=              0.0000

 Normal termination of Gaussian 16 at Sun Aug 28 05:46:49 2022.
