 Gaussian 16, Revision A.03,
 Gaussian 16:  ES64L-G16RevA.03 25-Dec-2016

 ------------------
 #p CCSD(T)/cc-pVTZ
 ------------------

 ------------
 H2O_H2O_1652
 ------------
 Symbolic Z-matrix:
 Charge =  0 Multiplicity = 1

                         Standard orientation:
 ---------------------------------------------------------------------
 Center     Atomic      Atomic             Coordinates (Angstroms)
 Number     Number       Type             X           Y           Z
 ---------------------------------------------------------------------
      1          8           0        0.088236   -1.751278    0.000000
      2          1           0        0.087998   -0.768676    0.000000
      3          1           0       -0.841179   -2.070170    0.000000
      4          8           0        0.088236    1.606969    0.000000
      5          1           0        0.216255    2.581195    0.000000
      6          1           0       -0.874853    1.412118    0.000000
 ---------------------------------------------------------------------

 SCF Done:  E(RHF) =  -152.109958863     A.U. after   10 cycles
 E2 =    -0.5272013627D+00 EUMP2 =    -0.15263716022575D+03
 CCSD(T)
 CCSD(T)= -0.15266424767D+03

 The electronic state is 1-A'.
 Alpha  occ. eigenvalues --  -20.57683 -20.54287  -1.35004  -1.31635  -0.72598
 Alpha  occ. eigenvalues --   -0.68949  -0.58553  -0.55023  -0.52086  -0.48747
 Alpha virt. eigenvalues --    0.11585   0.16387   0.20121   0.27159   0.50486
 Alpha virt. eigenvalues --    0.55050   0.57523   0.57698   0.68379   0.74587
 Alpha virt. eigenvalues --    0.74664   0.77786   0.80503   0.82482   0.83479

 Mulliken charges:
               1
     1  O   -0.521851
     2  H    0.270964
     3  H    0.241543
     4  O   -0.491209
     5  H    0.254092
     6  H    0.246461
 Sum of Mulliken charges =  -0.00000

 Dipole moment (field-independent basis, Debye):
    X=             -2.9579    Y=              2.7724    Z=              0.0000  Tot=              4.0541
 Quadrupole moment (field-independent basis, Debye-Ang):
   XX=            -10.5946   YY=             -8.8337   ZZ=            -14.7168
   XY=              2.4686   XZ=              0.0000   YZ=              0.0000

 Normal termination of Gaussian 16 at Sun Aug 28 00:21:13 2022.
