 Gaussian 16, Revision A.03,
 Gaussian 16:  ES64L-G16RevA.03 25-Dec-2016

 ------------------
 #p CCSD(T)/cc-pVTZ
 ------------------

 ------------
 H2O_H2O_3960
 ------------
 Symbolic Z-matrix:
 Charge =  0 Multiplicity = 1

                         Standard orientation:
 ---------------------------------------------------------------------
 Center     Atomic      Atomic             Coordinates (Angstroms)
 Number     Number       Type             X           Y           Z
 ---------------------------------------------------------------------
      1          8           0        0.063223    2.685653    0.000000
      2          1           0        0.062252    1.703052    0.000000
      3          1           0       -0.865954    3.005237    0.000000
      4          8           0        0.063223   -2.510127   -0.000000
      5          1           0        0.660623   -3.290268   -0.000000
      6          1           0       -0.868495   -2.822230   -0.000000
 ---------------------------------------------------------------------

 SCF Done:  E(RHF) =  -152.108574613     A.U. after   10 cycles
 E2 =    -0.5258408820D+00 EUMP2 =    -0.15263441549498D+03
 CCSD(T)
 CCSD(T)= -0.15266160371D+03

 The electronic state is 1-A'.
 Alpha  occ. eigenvalues --  -20.56308 -20.54861  -1.33605  -1.32170  -0.71012
 Alpha  occ. eigenvalues --   -0.69566  -0.57103  -0.55641  -0.50725  -0.49294
 Alpha virt. eigenvalues --    0.12975   0.15178   0.19564   0.21358   0.53447
 Alpha virt. eigenvalues --    0.54953   0.56551   0.57857   0.66688   0.69084
 Alpha virt. eigenvalues --    0.78171   0.79136   0.79558   0.80075   0.82833

 Mulliken charges:
               1
     1  O   -0.514000
     2  H    0.261332
     3  H    0.252189
     4  O   -0.514597
     5  H    0.259347
     6  H    0.255729
 Sum of Mulliken charges =   0.00000

 Dipole moment (field-independent basis, Debye):
    X=             -2.1644    Y=             -3.0999    Z=             -0.0000  Tot=              3.7807
 Quadrupole moment (field-independent basis, Debye-Ang):
   XX=             -9.4547   YY=             -6.8136   ZZ=            -14.7154
   XY=             -4.4444   XZ=             -0.0000   YZ=              0.0000

 CCSD(T)=-152.6616037\RMSD=7.131e-09\PG=CS [SG(H4O2)]\\@
 Normal termination of Gaussian 16 at Sat Aug 27 00:41:54 2022.
