 Gaussian 16, Revision A.03,
 Gaussian 16:  ES64L-G16RevA.03 25-Dec-2016

 ------------------
 #p CCSD(T)/cc-pVTZ
 ------------------

 -----------
 H2O_H2O_668
 -----------
 Symbolic Z-matrix:
 Charge =  0 Multiplicity = 1

                         Standard orientation:
 ---------------------------------------------------------------------
 Center     Atomic      Atomic             Coordinates (Angstroms)
 Number     Number       Type             X           Y           Z
 ---------------------------------------------------------------------
      1          8           0        0.033944    1.370394   -0.000000
      2          1           0        0.030026    0.387800   -0.000000
      3          1           0       -0.894271    1.692763   -0.000000
      4          8           0        0.033944   -1.192988    0.000000
      5          1           0        0.940243   -1.572629    0.000000
      6          1           0       -0.619100   -1.927181    0.000000
 ---------------------------------------------------------------------

 SCF Done:  E(RHF) =  -152.107288177     A.U. after   11 cycles
 E2 =    -0.5304337569D+00 EUMP2 =    -0.15263772193402D+03
 CCSD(T)
 CCSD(T)= -0.15266429338D+03

 The electronic state is 1-A'.
 Alpha  occ. eigenvalues --  -20.59672 -20.49885  -1.37702  -1.28030  -0.74756
 Alpha  occ. eigenvalues --   -0.69469  -0.59372  -0.54538  -0.50476  -0.45057
 Alpha virt. eigenvalues --    0.11565   0.18093   0.19294   0.33448   0.47664
 Alpha virt. eigenvalues --    0.54080   0.58639   0.65028   0.68736   0.72354
 Alpha virt. eigenvalues --    0.72905   0.78011   0.81156   0.83308   0.84161

 Mulliken charges:
               1
     1  O   -0.601463
     2  H    0.308454
     3  H    0.236677
     4  O   -0.456653
     5  H    0.263370
     6  H    0.249616
 Sum of Mulliken charges =  -0.00000

 Dipole moment (field-independent basis, Debye):
    X=             -1.1032    Y=             -4.0509    Z=              0.0000  Tot=              4.1984
 Quadrupole moment (field-independent basis, Debye-Ang):
   XX=             -9.1617   YY=             -9.1892   ZZ=            -14.6963
   XY=             -3.2666   XZ=              0.0000   YZ=             -0.0000

 Normal termination of Gaussian 16 at Fri Aug 26 19:44:16 2022.
