 Gaussian 16, Revision A.03,
 Gaussian 16:  ES64L-G16RevA.03 25-Dec-2016

 ------------------
 #p CCSD(T)/cc-pVTZ
 ------------------

 ------------
 H2O_H2O_3991
 ------------
 Symbolic Z-matrix:
 Charge =  0 Multiplicity = 1

                         Standard orientation:
 ---------------------------------------------------------------------
 Center     Atomic      Atomic             Coordinates (Angstroms)
 Number     Number       Type             X           Y           Z
 ---------------------------------------------------------------------
      1          8           0        0.041117    2.698028    0.000000
      2          1           0        0.039431    1.715428    0.000000
      3          1           0       -0.887827    3.018289    0.000000
      4          8           0        0.041117   -2.518082   -0.000000
      5          1           0        0.891231   -3.010842   -0.000000
      6          1           0       -0.700710   -3.162441   -0.000000
 ---------------------------------------------------------------------

 SCF Done:  E(RHF) =  -152.108786246     A.U. after   10 cycles
 E2 =    -0.5258166763D+00 EUMP2 =    -0.15263460292239D+03
 CCSD(T)
 CCSD(T)= -0.15266178738D+03

 The electronic state is 1-A'.
 Alpha  occ. eigenvalues --  -20.56293 -20.54811  -1.33590  -1.32122  -0.70993
 Alpha  occ. eigenvalues --   -0.69522  -0.57097  -0.55599  -0.50712  -0.49248
 Alpha virt. eigenvalues --    0.13082   0.15211   0.19632   0.21340   0.53543
 Alpha virt. eigenvalues --    0.54931   0.56592   0.57836   0.66678   0.69103
 Alpha virt. eigenvalues --    0.78182   0.79395   0.79599   0.79735   0.82890

 Mulliken charges:
               1
     1  O   -0.515400
     2  H    0.261659
     3  H    0.253265
     4  O   -0.515738
     5  H    0.258879
     6  H    0.257334
 Sum of Mulliken charges =  -0.00000

 Dipole moment (field-independent basis, Debye):
    X=             -1.4082    Y=             -3.1767    Z=             -0.0000  Tot=              3.4748
 Quadrupole moment (field-independent basis, Debye-Ang):
   XX=             -9.1492   YY=             -6.5683   ZZ=            -14.7161
   XY=             -5.6434   XZ=             -0.0000   YZ=              0.0000

 CCSD(T)=-152.6617874\RMSD=7.082e-09\PG=CS [SG(H4O2)]\\@
 Normal termination of Gaussian 16 at Sat Aug 27 00:52:30 2022.
