 Gaussian 16, Revision A.03,
 Gaussian 16:  ES64L-G16RevA.03 25-Dec-2016

 ------------------
 #p CCSD(T)/cc-pVTZ
 ------------------

 -----------
 H2O_H2O_433
 -----------
 Symbolic Z-matrix:
 Charge =  0 Multiplicity = 1

                         Standard orientation:
 ---------------------------------------------------------------------
 Center     Atomic      Atomic             Coordinates (Angstroms)
 Number     Number       Type             X           Y           Z
 ---------------------------------------------------------------------
      1          8           0        0.070265    1.276688    0.000000
      2          1           0        0.068644    0.294088    0.000000
      3          1           0       -0.858701    1.596887   -0.000000
      4          8           0        0.070265   -1.106553    0.000000
      5          1           0        0.560162   -1.958319    0.000000
      6          1           0       -0.894344   -1.293736   -0.000000
 ---------------------------------------------------------------------

 SCF Done:  E(RHF) =  -152.093259631     A.U. after   11 cycles
 E2 =    -0.5329023285D+00 EUMP2 =    -0.15262616195939D+03
 CCSD(T)
 CCSD(T)= -0.15265244802D+03

 The electronic state is 1-A'.
 Alpha  occ. eigenvalues --  -20.60438 -20.48887  -1.39286  -1.27430  -0.76725
 Alpha  occ. eigenvalues --   -0.70952  -0.58210  -0.55677  -0.49489  -0.44333
 Alpha virt. eigenvalues --    0.11066   0.16807   0.20412   0.33091   0.48369
 Alpha virt. eigenvalues --    0.53068   0.60112   0.63642   0.72084   0.72224
 Alpha virt. eigenvalues --    0.74610   0.79008   0.79232   0.84023   0.84036

 Mulliken charges:
               1
     1  O   -0.604279
     2  H    0.302113
     3  H    0.216416
     4  O   -0.397103
     5  H    0.240870
     6  H    0.241983
 Sum of Mulliken charges =  -0.00000

 Dipole moment (field-independent basis, Debye):
    X=             -2.2262    Y=             -4.1630    Z=             -0.0000  Tot=              4.7209
 Quadrupole moment (field-independent basis, Debye-Ang):
   XX=             -9.6866   YY=             -9.4654   ZZ=            -14.6470
   XY=             -2.8021   XZ=             -0.0000   YZ=             -0.0000

 Normal termination of Gaussian 16 at Fri Aug 26 18:14:00 2022.
