 Gaussian 16, Revision A.03,
 Gaussian 16:  ES64L-G16RevA.03 25-Dec-2016

 ------------------
 #p CCSD(T)/cc-pVTZ
 ------------------

 ------------
 H2O_H2O_2044
 ------------
 Symbolic Z-matrix:
 Charge =  0 Multiplicity = 1

                         Standard orientation:
 ---------------------------------------------------------------------
 Center     Atomic      Atomic             Coordinates (Angstroms)
 Number     Number       Type             X           Y           Z
 ---------------------------------------------------------------------
      1          8           0        0.030239    1.917849   -0.000000
      2          1           0        0.027328    0.935251   -0.000000
      3          1           0       -0.898306    2.239267   -0.000000
      4          8           0        0.030239   -1.742275    0.000000
      5          1           0        0.959754   -2.060877    0.000000
      6          1           0       -0.572594   -2.518226    0.000000
 ---------------------------------------------------------------------

 SCF Done:  E(RHF) =  -152.112259532     A.U. after   10 cycles
 E2 =    -0.5263546369D+00 EUMP2 =    -0.15263861416885D+03
 CCSD(T)
 CCSD(T)= -0.15266568166D+03

 The electronic state is 1-A'.
 Alpha  occ. eigenvalues --  -20.57298 -20.53774  -1.34555  -1.31132  -0.71947
 Alpha  occ. eigenvalues --   -0.68564  -0.58243  -0.54598  -0.51695  -0.48287
 Alpha virt. eigenvalues --    0.12254   0.16976   0.19165   0.26082   0.52234
 Alpha virt. eigenvalues --    0.54854   0.56323   0.58891   0.69046   0.72420
 Alpha virt. eigenvalues --    0.76357   0.77990   0.80639   0.83472   0.84178

 Mulliken charges:
               1
     1  O   -0.530453
     2  H    0.268500
     3  H    0.251479
     4  O   -0.509417
     5  H    0.261706
     6  H    0.258184
 Sum of Mulliken charges =  -0.00000

 Dipole moment (field-independent basis, Debye):
    X=             -1.0255    Y=             -3.2944    Z=              0.0000  Tot=              3.4503
 Quadrupole moment (field-independent basis, Debye-Ang):
   XX=             -9.2306   YY=             -7.9354   ZZ=            -14.7285
   XY=             -4.5429   XZ=              0.0000   YZ=             -0.0000

 Normal termination of Gaussian 16 at Sun Aug 28 03:49:16 2022.
