 Gaussian 16, Revision A.03,
 Gaussian 16:  ES64L-G16RevA.03 25-Dec-2016

 ------------------
 #p CCSD(T)/cc-pVTZ
 ------------------

 ------------
 H2O_H2O_3279
 ------------
 Symbolic Z-matrix:
 Charge =  0 Multiplicity = 1

                         Standard orientation:
 ---------------------------------------------------------------------
 Center     Atomic      Atomic             Coordinates (Angstroms)
 Number     Number       Type             X           Y           Z
 ---------------------------------------------------------------------
      1          8           0        0.082803    2.404999    0.000000
      2          1           0        0.082433    1.422398    0.000000
      3          1           0       -0.846570    2.724016    0.000000
      4          8           0        0.082803   -2.250480   -0.000000
      5          1           0        0.336761   -3.199696   -0.000000
      6          1           0       -0.897471   -2.182873   -0.000000
 ---------------------------------------------------------------------

 SCF Done:  E(RHF) =  -152.108527748     A.U. after   10 cycles
 E2 =    -0.5259643739D+00 EUMP2 =    -0.15263449212218D+03
 CCSD(T)
 CCSD(T)= -0.15266166989D+03

 The electronic state is 1-A'.
 Alpha  occ. eigenvalues --  -20.56533 -20.54920  -1.33826  -1.32228  -0.71244
 Alpha  occ. eigenvalues --   -0.69614  -0.57313  -0.55691  -0.50941  -0.49347
 Alpha virt. eigenvalues --    0.12090   0.15510   0.19324   0.22388   0.53651
 Alpha virt. eigenvalues --    0.54997   0.56411   0.58186   0.67321   0.69160
 Alpha virt. eigenvalues --    0.77965   0.78601   0.79509   0.80851   0.82739

 Mulliken charges:
               1
     1  O   -0.512648
     2  H    0.261050
     3  H    0.250244
     4  O   -0.511426
     5  H    0.259858
     6  H    0.252922
 Sum of Mulliken charges =  -0.00000

 Dipole moment (field-independent basis, Debye):
    X=             -2.8255    Y=             -2.7588    Z=             -0.0000  Tot=              3.9489
 Quadrupole moment (field-independent basis, Debye-Ang):
   XX=            -10.2519   YY=             -8.1312   ZZ=            -14.7149
   XY=             -3.0241   XZ=             -0.0000   YZ=             -0.0000

 Normal termination of Gaussian 16 at Fri Aug 26 20:47:52 2022.
