 Gaussian 16, Revision A.03,
 Gaussian 16:  ES64L-G16RevA.03 25-Dec-2016

 ------------------
 #p CCSD(T)/cc-pVTZ
 ------------------

 ------------
 H2O_H2O_1052
 ------------
 Symbolic Z-matrix:
 Charge =  0 Multiplicity = 1

                         Standard orientation:
 ---------------------------------------------------------------------
 Center     Atomic      Atomic             Coordinates (Angstroms)
 Number     Number       Type             X           Y           Z
 ---------------------------------------------------------------------
      1          8           0        0.088239   -1.511948    0.000000
      2          1           0        0.087961   -0.529346    0.000000
      3          1           0       -0.841164   -1.830877    0.000000
      4          8           0        0.088239    1.367646    0.000000
      5          1           0        0.216219    2.341878    0.000000
      6          1           0       -0.874841    1.172757    0.000000
 ---------------------------------------------------------------------

 SCF Done:  E(RHF) =  -152.108218371     A.U. after   10 cycles
 E2 =    -0.5291473489D+00 EUMP2 =    -0.15263736572013D+03
 CCSD(T)
 CCSD(T)= -0.15266432607D+03

 The electronic state is 1-A'.
 Alpha  occ. eigenvalues --  -20.58616 -20.53275  -1.36202  -1.30796  -0.74212
 Alpha  occ. eigenvalues --   -0.68249  -0.59493  -0.53983  -0.53150  -0.47867
 Alpha virt. eigenvalues --    0.11496   0.16530   0.20385   0.30515   0.48495
 Alpha virt. eigenvalues --    0.53608   0.58240   0.60129   0.68473   0.72163
 Alpha virt. eigenvalues --    0.74282   0.77796   0.80661   0.81814   0.83324

 Mulliken charges:
               1
     1  O   -0.537869
     2  H    0.283854
     3  H    0.232464
     4  O   -0.452526
     5  H    0.236867
     6  H    0.237211
 Sum of Mulliken charges =  -0.00000

 Dipole moment (field-independent basis, Debye):
    X=             -2.9095    Y=              3.0084    Z=              0.0000  Tot=              4.1852
 Quadrupole moment (field-independent basis, Debye-Ang):
   XX=            -10.6064   YY=             -9.0163   ZZ=            -14.6999
   XY=              2.3973   XZ=              0.0000   YZ=              0.0000

 Normal termination of Gaussian 16 at Fri Aug 26 22:10:02 2022.
