 Gaussian 16, Revision A.03,
 Gaussian 16:  ES64L-G16RevA.03 25-Dec-2016

 ------------------
 #p CCSD(T)/cc-pVTZ
 ------------------

 ------------
 H2O_H2O_3674
 ------------
 Symbolic Z-matrix:
 Charge =  0 Multiplicity = 1

                         Standard orientation:
 ---------------------------------------------------------------------
 Center     Atomic      Atomic             Coordinates (Angstroms)
 Number     Number       Type             X           Y           Z
 ---------------------------------------------------------------------
      1          8           0       -0.013498    2.557167    0.000000
      2          1           0       -0.010778    1.574569    0.000000
      3          1           0        0.915109    2.878405    0.000000
      4          8           0       -0.013498   -2.397898    0.000000
      5          1           0       -0.996096   -2.400619    0.000000
      6          1           0        0.307741   -3.326506    0.000000
 ---------------------------------------------------------------------

 SCF Done:  E(RHF) =  -152.108941151     A.U. after   10 cycles
 E2 =    -0.5258301864D+00 EUMP2 =    -0.15263477133716D+03
 CCSD(T)
 CCSD(T)= -0.15266195015D+03

 The electronic state is 1-A'.
 Alpha  occ. eigenvalues --  -20.56369 -20.54909  -1.33667  -1.32220  -0.71075
 Alpha  occ. eigenvalues --   -0.69628  -0.57177  -0.55702  -0.50789  -0.49350
 Alpha virt. eigenvalues --    0.12571   0.15375   0.19194   0.22133   0.53234
 Alpha virt. eigenvalues --    0.55292   0.56579   0.57895   0.66799   0.69148
 Alpha virt. eigenvalues --    0.78109   0.78790   0.79498   0.80829   0.82828

 Mulliken charges:
               1
     1  O   -0.516430
     2  H    0.260621
     3  H    0.255067
     4  O   -0.515892
     5  H    0.257579
     6  H    0.259056
 Sum of Mulliken charges =   0.00000

 Dipole moment (field-independent basis, Debye):
    X=              0.4649    Y=             -2.8216    Z=              0.0000  Tot=              2.8597
 Quadrupole moment (field-independent basis, Debye-Ang):
   XX=             -9.6478   YY=             -7.7564   ZZ=            -14.7165
   XY=              6.9209   XZ=              0.0000   YZ=              0.0000

 CCSD(T)=-152.6619502\RMSD=7.043e-09\PG=CS [SG(H4O2)]\\@
 Normal termination of Gaussian 16 at Fri Aug 26 23:02:19 2022.
