 Gaussian 16, Revision A.03,
 Gaussian 16:  ES64L-G16RevA.03 25-Dec-2016

 ------------------
 #p CCSD(T)/cc-pVTZ
 ------------------

 ------------
 H2O_H2O_2223
 ------------
 Symbolic Z-matrix:
 Charge =  0 Multiplicity = 1

                         Standard orientation:
 ---------------------------------------------------------------------
 Center     Atomic      Atomic             Coordinates (Angstroms)
 Number     Number       Type             X           Y           Z
 ---------------------------------------------------------------------
      1          8           0       -0.016672    1.981027    0.000000
      2          1           0       -0.013262    0.998431    0.000000
      3          1           0        0.911709    2.302917    0.000000
      4          8           0       -0.016672   -1.817655    0.000000
      5          1           0       -0.996941   -1.885323    0.000000
      6          1           0        0.365248   -2.722997    0.000000
 ---------------------------------------------------------------------

 SCF Done:  E(RHF) =  -152.111378946     A.U. after   10 cycles
 E2 =    -0.5262257940D+00 EUMP2 =    -0.15263760474003D+03
 CCSD(T)
 CCSD(T)= -0.15266469779D+03

 The electronic state is 1-A'.
 Alpha  occ. eigenvalues --  -20.57107 -20.54166  -1.34381  -1.31506  -0.71799
 Alpha  occ. eigenvalues --   -0.68922  -0.58006  -0.54985  -0.51512  -0.48657
 Alpha virt. eigenvalues --    0.12199   0.16666   0.19249   0.25376   0.53431
 Alpha virt. eigenvalues --    0.54938   0.56080   0.58740   0.68729   0.72150
 Alpha virt. eigenvalues --    0.76821   0.79019   0.80265   0.82579   0.83565

 Mulliken charges:
               1
     1  O   -0.527572
     2  H    0.265959
     3  H    0.254123
     4  O   -0.510790
     5  H    0.260105
     6  H    0.258175
 Sum of Mulliken charges =   0.00000

 Dipole moment (field-independent basis, Debye):
    X=              0.5722    Y=             -3.0284    Z=              0.0000  Tot=              3.0819
 Quadrupole moment (field-independent basis, Debye-Ang):
   XX=             -9.5444   YY=             -8.1420   ZZ=            -14.7246
   XY=              5.1960   XZ=              0.0000   YZ=              0.0000

 Normal termination of Gaussian 16 at Sun Aug 28 05:32:01 2022.
