 Gaussian 16, Revision A.03,
 Gaussian 16:  ES64L-G16RevA.03 25-Dec-2016

 ------------------
 #p CCSD(T)/cc-pVTZ
 ------------------

 -----------
 H2O_H2O_142
 -----------
 Symbolic Z-matrix:
 Charge =  0 Multiplicity = 1

                         Standard orientation:
 ---------------------------------------------------------------------
 Center     Atomic      Atomic             Coordinates (Angstroms)
 Number     Number       Type             X           Y           Z
 ---------------------------------------------------------------------
      1          8           0        0.037657    1.161737    0.000000
      2          1           0        0.033263    0.179145    0.000000
      3          1           0       -0.890402    1.484556    0.000000
      4          8           0        0.037657   -0.982949   -0.000000
      5          1           0        0.916973   -1.421479   -0.000000
      6          1           0       -0.662342   -1.672521   -0.000000
 ---------------------------------------------------------------------

 SCF Done:  E(RHF) =  -152.058053778     A.U. after   11 cycles
 E2 =    -0.5349464686D+00 EUMP2 =    -0.15259300024673D+03
 CCSD(T)
 CCSD(T)= -0.15261870009D+03

 The electronic state is 1-A'.
 Alpha  occ. eigenvalues --  -20.61698 -20.44937  -1.42572  -1.24881  -0.78665
 Alpha  occ. eigenvalues --   -0.76136  -0.57931  -0.55519  -0.45197  -0.41472
 Alpha virt. eigenvalues --    0.10564   0.16820   0.20856   0.33389   0.46716
 Alpha virt. eigenvalues --    0.52280   0.62156   0.66854   0.70266   0.71161
 Alpha virt. eigenvalues --    0.78257   0.79392   0.80817   0.82766   0.86360

 Mulliken charges:
               1
     1  O   -0.666549
     2  H    0.294591
     3  H    0.212017
     4  O   -0.339494
     5  H    0.259613
     6  H    0.239822
 Sum of Mulliken charges =  -0.00000

 Dipole moment (field-independent basis, Debye):
    X=             -1.1505    Y=             -4.9140    Z=             -0.0000  Tot=              5.0469
 Quadrupole moment (field-independent basis, Debye-Ang):
   XX=             -9.0930   YY=            -10.0823   ZZ=            -14.5834
   XY=             -2.7474   XZ=             -0.0000   YZ=             -0.0000

 Normal termination of Gaussian 16 at Fri Aug 26 16:09:24 2022.
