 Gaussian 16, Revision A.03,
 Gaussian 16:  ES64L-G16RevA.03 25-Dec-2016

 ------------------
 #p CCSD(T)/cc-pVTZ
 ------------------

 ------------
 H2O_H2O_2159
 ------------
 Symbolic Z-matrix:
 Charge =  0 Multiplicity = 1

                         Standard orientation:
 ---------------------------------------------------------------------
 Center     Atomic      Atomic             Coordinates (Angstroms)
 Number     Number       Type             X           Y           Z
 ---------------------------------------------------------------------
      1          8           0        0.066778    1.966345    0.000000
      2          1           0        0.065595    0.983745    0.000000
      3          1           0       -0.862331    2.286130    0.000000
      4          8           0        0.066778   -1.793268   -0.000000
      5          1           0        0.611700   -2.610928   -0.000000
      6          1           0       -0.883411   -2.043563   -0.000000
 ---------------------------------------------------------------------

 SCF Done:  E(RHF) =  -152.111179983     A.U. after   10 cycles
 E2 =    -0.5263603452D+00 EUMP2 =    -0.15263754032854D+03
 CCSD(T)
 CCSD(T)= -0.15266462938D+03

 The electronic state is 1-A'.
 Alpha  occ. eigenvalues --  -20.57211 -20.54021  -1.34471  -1.31361  -0.71878
 Alpha  occ. eigenvalues --   -0.68754  -0.58087  -0.54821  -0.51601  -0.48501
 Alpha virt. eigenvalues --    0.12082   0.16601   0.19354   0.25306   0.52100
 Alpha virt. eigenvalues --    0.55684   0.56035   0.58654   0.68895   0.72030
 Alpha virt. eigenvalues --    0.76690   0.78365   0.80414   0.83478   0.83674

 Mulliken charges:
               1
     1  O   -0.523453
     2  H    0.267647
     3  H    0.247164
     4  O   -0.506720
     5  H    0.260637
     6  H    0.254724
 Sum of Mulliken charges =  -0.00000

 Dipole moment (field-independent basis, Debye):
    X=             -2.2605    Y=             -3.2230    Z=             -0.0000  Tot=              3.9367
 Quadrupole moment (field-independent basis, Debye-Ang):
   XX=             -9.5739   YY=             -7.9233   ZZ=            -14.7242
   XY=             -3.5802   XZ=             -0.0000   YZ=             -0.0000

 Normal termination of Gaussian 16 at Sun Aug 28 04:57:36 2022.
