 Gaussian 16, Revision A.03,
 Gaussian 16:  ES64L-G16RevA.03 25-Dec-2016

 ------------------
 #p CCSD(T)/cc-pVTZ
 ------------------

 ------------
 H2O_H2O_3867
 ------------
 Symbolic Z-matrix:
 Charge =  0 Multiplicity = 1

                         Standard orientation:
 ---------------------------------------------------------------------
 Center     Atomic      Atomic             Coordinates (Angstroms)
 Number     Number       Type             X           Y           Z
 ---------------------------------------------------------------------
      1          8           0        0.037424    2.647646    0.000000
      2          1           0        0.035583    1.665046    0.000000
      3          1           0       -0.891470    2.968054    0.000000
      4          8           0        0.037424   -2.468663   -0.000000
      5          1           0        0.917877   -2.904907   -0.000000
      6          1           0       -0.660780   -3.160051   -0.000000
 ---------------------------------------------------------------------

 SCF Done:  E(RHF) =  -152.108902597     A.U. after   10 cycles
 E2 =    -0.5258207796D+00 EUMP2 =    -0.15263472337691D+03
 CCSD(T)
 CCSD(T)= -0.15266190373D+03

 The electronic state is 1-A'.
 Alpha  occ. eigenvalues --  -20.56324 -20.54781  -1.33620  -1.32092  -0.71023
 Alpha  occ. eigenvalues --   -0.69493  -0.57131  -0.55572  -0.50743  -0.49220
 Alpha virt. eigenvalues --    0.12994   0.15290   0.19598   0.21457   0.53488
 Alpha virt. eigenvalues --    0.54985   0.56575   0.57859   0.66704   0.69171
 Alpha virt. eigenvalues --    0.78153   0.79207   0.79625   0.79801   0.82923

 Mulliken charges:
               1
     1  O   -0.515898
     2  H    0.261886
     3  H    0.253390
     4  O   -0.515957
     5  H    0.258926
     6  H    0.257654
 Sum of Mulliken charges =  -0.00000

 Dipole moment (field-independent basis, Debye):
    X=             -1.2813    Y=             -3.1651    Z=             -0.0000  Tot=              3.4146
 Quadrupole moment (field-independent basis, Debye-Ang):
   XX=             -9.1591   YY=             -6.6924   ZZ=            -14.7165
   XY=             -5.7426   XZ=             -0.0000   YZ=              0.0000

 Normal termination of Gaussian 16 at Sat Aug 27 00:10:31 2022.
