 Gaussian 16, Revision A.03,
 Gaussian 16:  ES64L-G16RevA.03 25-Dec-2016

 ------------------
 #p CCSD(T)/cc-pVTZ
 ------------------

 ------------
 H2O_H2O_2982
 ------------
 Symbolic Z-matrix:
 Charge =  0 Multiplicity = 1

                         Standard orientation:
 ---------------------------------------------------------------------
 Center     Atomic      Atomic             Coordinates (Angstroms)
 Number     Number       Type             X           Y           Z
 ---------------------------------------------------------------------
      1          8           0        0.073537    2.292083    0.000000
      2          1           0        0.072791    1.309482    0.000000
      3          1           0       -0.855713    2.611455    0.000000
      4          8           0        0.073537   -2.125144   -0.000000
      5          1           0        0.507461   -3.006743   -0.000000
      6          1           0       -0.901138   -2.249705   -0.000000
 ---------------------------------------------------------------------

 SCF Done:  E(RHF) =  -152.109258133     A.U. after   10 cycles
 E2 =    -0.5260012230D+00 EUMP2 =    -0.15263525935635D+03
 CCSD(T)
 CCSD(T)= -0.15266241291D+03

 The electronic state is 1-A'.
 Alpha  occ. eigenvalues --  -20.56664 -20.54640  -1.33947  -1.31955  -0.71360
 Alpha  occ. eigenvalues --   -0.69339  -0.57462  -0.55427  -0.51069  -0.49081
 Alpha virt. eigenvalues --    0.12202   0.15813   0.19432   0.22710   0.53655
 Alpha virt. eigenvalues --    0.55212   0.56309   0.58494   0.68144   0.69309
 Alpha virt. eigenvalues --    0.77821   0.78854   0.79764   0.80226   0.83015

 Mulliken charges:
               1
     1  O   -0.515752
     2  H    0.263285
     3  H    0.249831
     4  O   -0.511628
     5  H    0.259987
     6  H    0.254276
 Sum of Mulliken charges =  -0.00000

 Dipole moment (field-independent basis, Debye):
    X=             -2.5056    Y=             -3.0056    Z=             -0.0000  Tot=              3.9130
 Quadrupole moment (field-independent basis, Debye-Ang):
   XX=             -9.8169   YY=             -7.6985   ZZ=            -14.7175
   XY=             -3.5416   XZ=             -0.0000   YZ=              0.0000

 CCSD(T)=-152.6624129\RMSD=6.991e-09\PG=CS [SG(H4O2)]\\@
 Normal termination of Gaussian 16 at Fri Aug 26 18:58:41 2022.
