 Gaussian 16, Revision A.03,
 Gaussian 16:  ES64L-G16RevA.03 25-Dec-2016

 ------------------
 #p CCSD(T)/cc-pVTZ
 ------------------

 ------------
 H2O_H2O_3525
 ------------
 Symbolic Z-matrix:
 Charge =  0 Multiplicity = 1

                         Standard orientation:
 ---------------------------------------------------------------------
 Center     Atomic      Atomic             Coordinates (Angstroms)
 Number     Number       Type             X           Y           Z
 ---------------------------------------------------------------------
      1          8           0        0.092949   -2.492914    0.000000
      2          1           0        0.092949   -1.510313    0.000000
      3          1           0       -0.836544   -2.811581    0.000000
      4          8           0        0.092949    2.360127    0.000000
      5          1           0        0.092949    3.342729    0.000000
      6          1           0       -0.836544    2.041460    0.000000
 ---------------------------------------------------------------------

 SCF Done:  E(RHF) =  -152.107816761     A.U. after   10 cycles
 E2 =    -0.5259634105D+00 EUMP2 =    -0.15263378017169D+03
 CCSD(T)
 CCSD(T)= -0.15266098135D+03

 The electronic state is 1-A'.
 Alpha  occ. eigenvalues --  -20.56450 -20.55244  -1.33748  -1.32545  -0.71173
 Alpha  occ. eigenvalues --   -0.69933  -0.57211  -0.55996  -0.50857  -0.49657
 Alpha virt. eigenvalues --    0.11776   0.15260   0.18996   0.22766   0.53444
 Alpha virt. eigenvalues --    0.54864   0.56465   0.57951   0.66986   0.68822
 Alpha virt. eigenvalues --    0.78049   0.78718   0.79216   0.81355   0.82423

 Mulliken charges:
               1
     1  O   -0.509659
     2  H    0.258484
     3  H    0.250645
     4  O   -0.509908
     5  H    0.259508
     6  H    0.250929
 Sum of Mulliken charges =   0.00000

 Dipole moment (field-independent basis, Debye):
    X=             -3.1753    Y=              2.3564    Z=              0.0000  Tot=              3.9541
 Quadrupole moment (field-independent basis, Debye-Ang):
   XX=            -10.8517   YY=             -9.2469   ZZ=            -14.7121
   XY=              2.1522   XZ=              0.0000   YZ=              0.0000

 Normal termination of Gaussian 16 at Fri Aug 26 22:12:02 2022.
