 Gaussian 16, Revision A.03,
 Gaussian 16:  ES64L-G16RevA.03 25-Dec-2016

 ------------------
 #p CCSD(T)/cc-pVTZ
 ------------------

 -----------
 H2O_H2O_788
 -----------
 Symbolic Z-matrix:
 Charge =  0 Multiplicity = 1

                         Standard orientation:
 ---------------------------------------------------------------------
 Center     Atomic      Atomic             Coordinates (Angstroms)
 Number     Number       Type             X           Y           Z
 ---------------------------------------------------------------------
      1          8           0        0.052396    1.421536    0.000000
      2          1           0        0.049805    0.438938    0.000000
      3          1           0       -0.876253    1.742652    0.000000
      4          8           0        0.052396   -1.241759   -0.000000
      5          1           0        0.789444   -1.891578   -0.000000
      6          1           0       -0.801335   -1.728227   -0.000000
 ---------------------------------------------------------------------

 SCF Done:  E(RHF) =  -152.110402104     A.U. after   10 cycles
 E2 =    -0.5297592528D+00 EUMP2 =    -0.15264016135664D+03
 CCSD(T)
 CCSD(T)= -0.15266685339D+03

 The electronic state is 1-A'.
 Alpha  occ. eigenvalues --  -20.59367 -20.50614  -1.37132  -1.28551  -0.74170
 Alpha  occ. eigenvalues --   -0.68927  -0.59538  -0.54079  -0.51270  -0.45607
 Alpha virt. eigenvalues --    0.11591   0.17780   0.19361   0.32874   0.47921
 Alpha virt. eigenvalues --    0.54278   0.59041   0.61226   0.70019   0.72003
 Alpha virt. eigenvalues --    0.72449   0.77826   0.81927   0.82908   0.84551

 Mulliken charges:
               1
     1  O   -0.584477
     2  H    0.308390
     3  H    0.233761
     4  O   -0.474677
     5  H    0.262512
     6  H    0.254493
 Sum of Mulliken charges =  -0.00000

 Dipole moment (field-independent basis, Debye):
    X=             -1.7078    Y=             -3.9664    Z=             -0.0000  Tot=              4.3184
 Quadrupole moment (field-independent basis, Debye-Ang):
   XX=             -9.2231   YY=             -9.0236   ZZ=            -14.7100
   XY=             -3.2114   XZ=             -0.0000   YZ=              0.0000

 Normal termination of Gaussian 16 at Fri Aug 26 20:30:57 2022.
