 Gaussian 16, Revision A.03,
 Gaussian 16:  ES64L-G16RevA.03 25-Dec-2016

 ------------------
 #p CCSD(T)/cc-pVTZ
 ------------------

 ------------
 H2O_H2O_3017
 ------------
 Symbolic Z-matrix:
 Charge =  0 Multiplicity = 1

                         Standard orientation:
 ---------------------------------------------------------------------
 Center     Atomic      Atomic             Coordinates (Angstroms)
 Number     Number       Type             X           Y           Z
 ---------------------------------------------------------------------
      1          8           0        0.037450    2.308590    0.000000
      2          1           0        0.035327    1.325991    0.000000
      3          1           0       -0.891352    2.629264   -0.000000
      4          8           0        0.037450   -2.129629    0.000000
      5          1           0        0.917778   -2.566125    0.000000
      6          1           0       -0.660953   -2.820816   -0.000000
 ---------------------------------------------------------------------

 SCF Done:  E(RHF) =  -152.109945408     A.U. after   10 cycles
 E2 =    -0.5259241494D+00 EUMP2 =    -0.15263586955689D+03
 CCSD(T)
 CCSD(T)= -0.15266301064D+03

 The electronic state is 1-A'.
 Alpha  occ. eigenvalues --  -20.56639 -20.54444  -1.33917  -1.31765  -0.71317
 Alpha  occ. eigenvalues --   -0.69163  -0.57466  -0.55255  -0.51048  -0.48902
 Alpha virt. eigenvalues --    0.12517   0.15949   0.19439   0.22700   0.53224
 Alpha virt. eigenvalues --    0.55472   0.56405   0.58491   0.68241   0.69334
 Alpha virt. eigenvalues --    0.77845   0.79027   0.79535   0.79925   0.83254

 Mulliken charges:
               1
     1  O   -0.519775
     2  H    0.264342
     3  H    0.252506
     4  O   -0.514742
     5  H    0.259926
     6  H    0.257742
 Sum of Mulliken charges =  -0.00000

 Dipole moment (field-independent basis, Debye):
    X=             -1.2775    Y=             -3.2221    Z=             -0.0000  Tot=              3.4661
 Quadrupole moment (field-independent basis, Debye-Ang):
   XX=             -9.1589   YY=             -7.2218   ZZ=            -14.7201
   XY=             -5.0914   XZ=             -0.0000   YZ=             -0.0000

 Normal termination of Gaussian 16 at Fri Aug 26 19:16:52 2022.
