 Gaussian 16, Revision A.03,
 Gaussian 16:  ES64L-G16RevA.03 25-Dec-2016

 ------------------
 #p CCSD(T)/cc-pVTZ
 ------------------

 -----------
 H2O_H2O_988
 -----------
 Symbolic Z-matrix:
 Charge =  0 Multiplicity = 1

                         Standard orientation:
 ---------------------------------------------------------------------
 Center     Atomic      Atomic             Coordinates (Angstroms)
 Number     Number       Type             X           Y           Z
 ---------------------------------------------------------------------
      1          8           0        0.052383    1.501319    0.000000
      2          1           0        0.049938    0.518720    0.000000
      3          1           0       -0.876315    1.822297   -0.000000
      4          8           0        0.052383   -1.321526    0.000000
      5          1           0        0.789529   -1.971236    0.000000
      6          1           0       -0.801274   -1.808122   -0.000000
 ---------------------------------------------------------------------

 SCF Done:  E(RHF) =  -152.113063696     A.U. after   10 cycles
 E2 =    -0.5287435213D+00 EUMP2 =    -0.15264180721697D+03
 CCSD(T)
 CCSD(T)= -0.15266863874D+03

 The electronic state is 1-A'.
 Alpha  occ. eigenvalues --  -20.58879 -20.51521  -1.36396  -1.29232  -0.73585
 Alpha  occ. eigenvalues --   -0.68182  -0.59705  -0.53442  -0.52223  -0.46335
 Alpha virt. eigenvalues --    0.11767   0.17851   0.19124   0.32006   0.48315
 Alpha virt. eigenvalues --    0.54627   0.57444   0.60577   0.69676   0.71612
 Alpha virt. eigenvalues --    0.72716   0.77393   0.82334   0.82645   0.84792

 Mulliken charges:
               1
     1  O   -0.567959
     2  H    0.299213
     3  H    0.238195
     4  O   -0.490484
     5  H    0.264258
     6  H    0.256776
 Sum of Mulliken charges =  -0.00000

 Dipole moment (field-independent basis, Debye):
    X=             -1.7256    Y=             -3.7982    Z=             -0.0000  Tot=              4.1718
 Quadrupole moment (field-independent basis, Debye-Ang):
   XX=             -9.2288   YY=             -8.7799   ZZ=            -14.7244
   XY=             -3.3403   XZ=              0.0000   YZ=             -0.0000

 Normal termination of Gaussian 16 at Fri Aug 26 21:45:37 2022.
