 Gaussian 16, Revision A.03,
 Gaussian 16:  ES64L-G16RevA.03 25-Dec-2016

 ------------------
 #p CCSD(T)/cc-pVTZ
 ------------------

 ------------
 H2O_H2O_2551
 ------------
 Symbolic Z-matrix:
 Charge =  0 Multiplicity = 1

                         Standard orientation:
 ---------------------------------------------------------------------
 Center     Atomic      Atomic             Coordinates (Angstroms)
 Number     Number       Type             X           Y           Z
 ---------------------------------------------------------------------
      1          8           0        0.090685   -2.107224    0.000000
      2          1           0        0.090591   -1.124623    0.000000
      3          1           0       -0.838777   -2.425980    0.000000
      4          8           0        0.090685    1.968518    0.000000
      5          1           0        0.154856    2.949022    0.000000
      6          1           0       -0.857635    1.711234    0.000000
 ---------------------------------------------------------------------

 SCF Done:  E(RHF) =  -152.108625882     A.U. after   10 cycles
 E2 =    -0.5262575049D+00 EUMP2 =    -0.15263488338657D+03
 CCSD(T)
 CCSD(T)= -0.15266204169D+03

 The electronic state is 1-A'.
 Alpha  occ. eigenvalues --  -20.56893 -20.54947  -1.34182  -1.32251  -0.71635
 Alpha  occ. eigenvalues --   -0.69614  -0.57665  -0.55699  -0.51289  -0.49366
 Alpha virt. eigenvalues --    0.11528   0.15853   0.19732   0.23952   0.53736
 Alpha virt. eigenvalues --    0.55508   0.56505   0.57918   0.68452   0.70550
 Alpha virt. eigenvalues --    0.77414   0.78895   0.79561   0.80353   0.83113

 Mulliken charges:
               1
     1  O   -0.512908
     2  H    0.262583
     3  H    0.247531
     4  O   -0.505318
     5  H    0.259350
     6  H    0.248761
 Sum of Mulliken charges =  -0.00000

 Dipole moment (field-independent basis, Debye):
    X=             -3.0767    Y=              2.5242    Z=              0.0000  Tot=              3.9796
 Quadrupole moment (field-independent basis, Debye-Ang):
   XX=            -10.7215   YY=             -8.9382   ZZ=            -14.7142
   XY=              2.3469   XZ=              0.0000   YZ=              0.0000

 Normal termination of Gaussian 16 at Fri Aug 26 15:33:24 2022.
