 Gaussian 16, Revision A.03,
 Gaussian 16:  ES64L-G16RevA.03 25-Dec-2016

 ------------------
 #p CCSD(T)/cc-pVTZ
 ------------------

 ------------
 H2O_H2O_4228
 ------------
 Symbolic Z-matrix:
 Charge =  0 Multiplicity = 1

                         Standard orientation:
 ---------------------------------------------------------------------
 Center     Atomic      Atomic             Coordinates (Angstroms)
 Number     Number       Type             X           Y           Z
 ---------------------------------------------------------------------
      1          8           0        0.085597   -2.781263    0.000000
      2          1           0        0.085367   -1.798661    0.000000
      3          1           0       -0.843821   -3.100147    0.000000
      4          8           0        0.085597    2.631658    0.000000
      5          1           0        0.277068    3.595424    0.000000
      6          1           0       -0.888173    2.500221    0.000000
 ---------------------------------------------------------------------

 SCF Done:  E(RHF) =  -152.107921760     A.U. after   10 cycles
 E2 =    -0.5258687635D+00 EUMP2 =    -0.15263379052374D+03
 CCSD(T)
 CCSD(T)= -0.15266099662D+03

 The electronic state is 1-A'.
 Alpha  occ. eigenvalues --  -20.56257 -20.55173  -1.33558  -1.32477  -0.70972
 Alpha  occ. eigenvalues --   -0.69872  -0.57028  -0.55934  -0.50671  -0.49592
 Alpha virt. eigenvalues --    0.12754   0.14913   0.19136   0.21585   0.53215
 Alpha virt. eigenvalues --    0.54935   0.56538   0.57796   0.66784   0.68708
 Alpha virt. eigenvalues --    0.78222   0.79275   0.79327   0.81107   0.82332

 Mulliken charges:
               1
     1  O   -0.510809
     2  H    0.258756
     3  H    0.251883
     4  O   -0.511873
     5  H    0.258809
     6  H    0.253234
 Sum of Mulliken charges =  -0.00000

 Dipole moment (field-independent basis, Debye):
    X=             -2.9329    Y=              2.6319    Z=              0.0000  Tot=              3.9407
 Quadrupole moment (field-independent basis, Debye-Ang):
   XX=            -10.3981   YY=             -8.1798   ZZ=            -14.7129
   XY=              2.9129   XZ=              0.0000   YZ=              0.0000

 Normal termination of Gaussian 16 at Sun Aug 28 00:57:38 2022.
