 Gaussian 16, Revision A.03,
 Gaussian 16:  ES64L-G16RevA.03 25-Dec-2016

 ------------------
 #p CCSD(T)/cc-pVTZ
 ------------------

 ------------
 H2O_H2O_4539
 ------------
 Symbolic Z-matrix:
 Charge =  0 Multiplicity = 1

                         Standard orientation:
 ---------------------------------------------------------------------
 Center     Atomic      Atomic             Coordinates (Angstroms)
 Number     Number       Type             X           Y           Z
 ---------------------------------------------------------------------
      1          8           0        0.048552    2.917667   -0.000000
      2          1           0        0.047220    1.935067   -0.000000
      3          1           0       -0.880508    3.237593   -0.000000
      4          8           0        0.048552   -2.737246    0.000000
      5          1           0        0.827292   -3.336472    0.000000
      6          1           0       -0.770839   -3.279560    0.000000
 ---------------------------------------------------------------------

 SCF Done:  E(RHF) =  -152.108399228     A.U. after   10 cycles
 E2 =    -0.5258087052D+00 EUMP2 =    -0.15263420793352D+03
 CCSD(T)
 CCSD(T)= -0.15266140562D+03

 The electronic state is 1-A'.
 Alpha  occ. eigenvalues --  -20.56179 -20.54950  -1.33480  -1.32257  -0.70884
 Alpha  occ. eigenvalues --   -0.69658  -0.56973  -0.55728  -0.50599  -0.49380
 Alpha virt. eigenvalues --    0.13383   0.14919   0.19706   0.21027   0.53667
 Alpha virt. eigenvalues --    0.54845   0.56668   0.57797   0.66855   0.68738
 Alpha virt. eigenvalues --    0.78288   0.79476   0.79692   0.80145   0.82658

 Mulliken charges:
               1
     1  O   -0.513791
     2  H    0.260399
     3  H    0.253274
     4  O   -0.514534
     5  H    0.258248
     6  H    0.256404
 Sum of Mulliken charges =  -0.00000

 Dipole moment (field-independent basis, Debye):
    X=             -1.6653    Y=             -3.1662    Z=              0.0000  Tot=              3.5774
 Quadrupole moment (field-independent basis, Debye-Ang):
   XX=             -9.1821   YY=             -6.1912   ZZ=            -14.7148
   XY=             -5.5916   XZ=              0.0000   YZ=             -0.0000

 Normal termination of Gaussian 16 at Sun Aug 28 03:42:48 2022.
