 Gaussian 16, Revision A.03,
 Gaussian 16:  ES64L-G16RevA.03 25-Dec-2016

 ------------------
 #p CCSD(T)/cc-pVTZ
 ------------------

 ------------
 H2O_H2O_3745
 ------------
 Symbolic Z-matrix:
 Charge =  0 Multiplicity = 1

                         Standard orientation:
 ---------------------------------------------------------------------
 Center     Atomic      Atomic             Coordinates (Angstroms)
 Number     Number       Type             X           Y           Z
 ---------------------------------------------------------------------
      1          8           0        0.026635    2.594668    0.000000
      2          1           0        0.024392    1.612069    0.000000
      3          1           0       -0.902128    2.915456    0.000000
      4          8           0        0.026635   -2.421430    0.000000
      5          1           0        0.975173   -2.677911    0.000000
      6          1           0       -0.523604   -3.235520    0.000000
 ---------------------------------------------------------------------

 SCF Done:  E(RHF) =  -152.109008208     A.U. after   10 cycles
 E2 =    -0.5258240662D+00 EUMP2 =    -0.15263483227465D+03
 CCSD(T)
 CCSD(T)= -0.15266200909D+03

 The electronic state is 1-A'.
 Alpha  occ. eigenvalues --  -20.56354 -20.54793  -1.33650  -1.32105  -0.71054
 Alpha  occ. eigenvalues --   -0.69508  -0.57164  -0.55587  -0.50773  -0.49234
 Alpha virt. eigenvalues --    0.12842   0.15363   0.19476   0.21684   0.53355
 Alpha virt. eigenvalues --    0.55130   0.56570   0.57893   0.66762   0.69199
 Alpha virt. eigenvalues --    0.78124   0.78924   0.79609   0.80177   0.82918

 Mulliken charges:
               1
     1  O   -0.516485
     2  H    0.261695
     3  H    0.254029
     4  O   -0.516161
     5  H    0.258572
     6  H    0.258350
 Sum of Mulliken charges =   0.00000

 Dipole moment (field-independent basis, Debye):
    X=             -0.9124    Y=             -3.0683    Z=              0.0000  Tot=              3.2011
 Quadrupole moment (field-independent basis, Debye-Ang):
   XX=             -9.2885   YY=             -7.0362   ZZ=            -14.7169
   XY=             -6.2060   XZ=              0.0000   YZ=              0.0000

 Normal termination of Gaussian 16 at Fri Aug 26 23:26:21 2022.
