 Gaussian 16, Revision A.03,
 Gaussian 16:  ES64L-G16RevA.03 25-Dec-2016

 ------------------
 #p CCSD(T)/cc-pVTZ
 ------------------

 ------------
 H2O_H2O_4273
 ------------
 Symbolic Z-matrix:
 Charge =  0 Multiplicity = 1

                         Standard orientation:
 ---------------------------------------------------------------------
 Center     Atomic      Atomic             Coordinates (Angstroms)
 Number     Number       Type             X           Y           Z
 ---------------------------------------------------------------------
      1          8           0       -0.016587    2.798739    0.000000
      2          1           0       -0.014203    1.816141    0.000000
      3          1           0        0.912130    3.119659    0.000000
      4          8           0       -0.016587   -2.635333    0.000000
      5          1           0       -0.996926   -2.701976    0.000000
      6          1           0        0.364387   -3.541073    0.000000
 ---------------------------------------------------------------------

 SCF Done:  E(RHF) =  -152.108552537     A.U. after   10 cycles
 E2 =    -0.5258021186D+00 EUMP2 =    -0.15263435465579D+03
 CCSD(T)
 CCSD(T)= -0.15266154848D+03

 The electronic state is 1-A'.
 Alpha  occ. eigenvalues --  -20.56222 -20.55015  -1.33524  -1.32323  -0.70930
 Alpha  occ. eigenvalues --   -0.69730  -0.57021  -0.55799  -0.50644  -0.49449
 Alpha virt. eigenvalues --    0.13078   0.15016   0.19376   0.21436   0.53349
 Alpha virt. eigenvalues --    0.55001   0.56647   0.57805   0.66744   0.68804
 Alpha virt. eigenvalues --    0.78244   0.79321   0.79406   0.80708   0.82618

 Mulliken charges:
               1
     1  O   -0.514840
     2  H    0.259817
     3  H    0.254823
     4  O   -0.515298
     5  H    0.257255
     6  H    0.258242
 Sum of Mulliken charges =  -0.00000

 Dipole moment (field-independent basis, Debye):
    X=              0.5703    Y=             -2.8729    Z=              0.0000  Tot=              2.9289
 Quadrupole moment (field-independent basis, Debye-Ang):
   XX=             -9.5433   YY=             -7.3067   ZZ=            -14.7152
   XY=              7.3481   XZ=              0.0000   YZ=              0.0000

 Normal termination of Gaussian 16 at Sun Aug 28 01:24:19 2022.
