 Gaussian 16, Revision A.03,
 Gaussian 16:  ES64L-G16RevA.03 25-Dec-2016

 ------------------
 #p CCSD(T)/cc-pVTZ
 ------------------

 ------------
 H2O_H2O_4287
 ------------
 Symbolic Z-matrix:
 Charge =  0 Multiplicity = 1

                         Standard orientation:
 ---------------------------------------------------------------------
 Center     Atomic      Atomic             Coordinates (Angstroms)
 Number     Number       Type             X           Y           Z
 ---------------------------------------------------------------------
      1          8           0        0.055968    2.817140    0.000000
      2          1           0        0.054818    1.834539    0.000000
      3          1           0       -0.873151    3.136894    0.000000
      4          8           0        0.055968   -2.638205    0.000000
      5          1           0        0.749959   -3.333822    0.000000
      6          1           0       -0.827119   -3.069091    0.000000
 ---------------------------------------------------------------------

 SCF Done:  E(RHF) =  -152.108467315     A.U. after   10 cycles
 E2 =    -0.5258189430D+00 EUMP2 =    -0.15263428625815D+03
 CCSD(T)
 CCSD(T)= -0.15266148053D+03

 The electronic state is 1-A'.
 Alpha  occ. eigenvalues --  -20.56229 -20.54909  -1.33529  -1.32217  -0.70934
 Alpha  occ. eigenvalues --   -0.69616  -0.57024  -0.55688  -0.50648  -0.49340
 Alpha virt. eigenvalues --    0.13233   0.15021   0.19655   0.21139   0.53591
 Alpha virt. eigenvalues --    0.54876   0.56622   0.57807   0.66740   0.68895
 Alpha virt. eigenvalues --    0.78241   0.79514   0.79518   0.80023   0.82767

 Mulliken charges:
               1
     1  O   -0.513887
     2  H    0.260857
     3  H    0.252803
     4  O   -0.514670
     5  H    0.258764
     6  H    0.256133
 Sum of Mulliken charges =  -0.00000

 Dipole moment (field-independent basis, Debye):
    X=             -1.9182    Y=             -3.1477    Z=             -0.0000  Tot=              3.6861
 Quadrupole moment (field-independent basis, Debye-Ang):
   XX=             -9.2852   YY=             -6.4372   ZZ=            -14.7150
   XY=             -5.0140   XZ=             -0.0000   YZ=             -0.0000

 Normal termination of Gaussian 16 at Sun Aug 28 01:30:02 2022.
