 Gaussian 16, Revision A.03,
 Gaussian 16:  ES64L-G16RevA.03 25-Dec-2016

 ------------------
 #p CCSD(T)/cc-pVTZ
 ------------------

 ------------
 H2O_H2O_2446
 ------------
 Symbolic Z-matrix:
 Charge =  0 Multiplicity = 1

                         Standard orientation:
 ---------------------------------------------------------------------
 Center     Atomic      Atomic             Coordinates (Angstroms)
 Number     Number       Type             X           Y           Z
 ---------------------------------------------------------------------
      1          8           0       -0.023240    2.074573    0.000000
      2          1           0       -0.020265    1.091976    0.000000
      3          1           0        0.905283    2.396052    0.000000
      4          8           0       -0.023240   -1.904203    0.000000
      5          1           0       -0.986378   -2.098816    0.000000
      6          1           0        0.473207   -2.752169    0.000000
 ---------------------------------------------------------------------

 SCF Done:  E(RHF) =  -152.111022764     A.U. after   10 cycles
 E2 =    -0.5260996330D+00 EUMP2 =    -0.15263712239683D+03
 CCSD(T)
 CCSD(T)= -0.15266422749D+03

 The electronic state is 1-A'.
 Alpha  occ. eigenvalues --  -20.56956 -20.54215  -1.34225  -1.31548  -0.71629
 Alpha  occ. eigenvalues --   -0.68957  -0.57826  -0.55037  -0.51360  -0.48696
 Alpha virt. eigenvalues --    0.12277   0.16480   0.19265   0.24477   0.53359
 Alpha virt. eigenvalues --    0.55427   0.56326   0.58614   0.68901   0.70976
 Alpha virt. eigenvalues --    0.77284   0.78996   0.80167   0.81421   0.83696

 Mulliken charges:
               1
     1  O   -0.525221
     2  H    0.265871
     3  H    0.253284
     4  O   -0.511979
     5  H    0.260124
     6  H    0.257921
 Sum of Mulliken charges =  -0.00000

 Dipole moment (field-independent basis, Debye):
    X=              0.7930    Y=             -3.1275    Z=              0.0000  Tot=              3.2264
 Quadrupole moment (field-independent basis, Debye-Ang):
   XX=             -9.3617   YY=             -7.8316   ZZ=            -14.7234
   XY=              5.1498   XZ=              0.0000   YZ=              0.0000

 Normal termination of Gaussian 16 at Sun Aug 28 07:20:28 2022.
