 Gaussian 16, Revision A.03,
 Gaussian 16:  ES64L-G16RevA.03 25-Dec-2016

 ------------------
 #p CCSD(T)/cc-pVTZ
 ------------------

 ------------
 H2O_H2O_4979
 ------------
 Symbolic Z-matrix:
 Charge =  0 Multiplicity = 1

                         Standard orientation:
 ---------------------------------------------------------------------
 Center     Atomic      Atomic             Coordinates (Angstroms)
 Number     Number       Type             X           Y           Z
 ---------------------------------------------------------------------
      1          8           0        0.082796    3.083098   -0.000000
      2          1           0        0.082510    2.100496   -0.000000
      3          1           0       -0.846604    3.402035   -0.000000
      4          8           0        0.082796   -2.928564    0.000000
      5          1           0        0.336836   -3.877758    0.000000
      6          1           0       -0.897482   -2.861040    0.000000
 ---------------------------------------------------------------------

 SCF Done:  E(RHF) =  -152.107817822     A.U. after   10 cycles
 E2 =    -0.5258451622D+00 EUMP2 =    -0.15263366298422D+03
 CCSD(T)
 CCSD(T)= -0.15266087460D+03

 The electronic state is 1-A'.
 Alpha  occ. eigenvalues --  -20.56126 -20.55235  -1.33428  -1.32537  -0.70838
 Alpha  occ. eigenvalues --   -0.69937  -0.56895  -0.55994  -0.50541  -0.49653
 Alpha virt. eigenvalues --    0.13361   0.14599   0.19423   0.20970   0.53574
 Alpha virt. eigenvalues --    0.54717   0.56660   0.57619   0.67116   0.68339
 Alpha virt. eigenvalues --    0.78345   0.79217   0.79736   0.80783   0.81797

 Mulliken charges:
               1
     1  O   -0.510706
     2  H    0.258014
     3  H    0.252671
     4  O   -0.511508
     5  H    0.257730
     6  H    0.253800
 Sum of Mulliken charges =  -0.00000

 Dipole moment (field-independent basis, Debye):
    X=             -2.8425    Y=             -2.7029    Z=              0.0000  Tot=              3.9224
 Quadrupole moment (field-independent basis, Debye-Ang):
   XX=            -10.2430   YY=             -7.6610   ZZ=            -14.7127
   XY=             -3.2692   XZ=              0.0000   YZ=             -0.0000

 Normal termination of Gaussian 16 at Sun Aug 28 07:24:13 2022.
