 Gaussian 16, Revision A.03,
 Gaussian 16:  ES64L-G16RevA.03 25-Dec-2016

 ------------------
 #p CCSD(T)/cc-pVTZ
 ------------------

 ------------
 H2O_H2O_4760
 ------------
 Symbolic Z-matrix:
 Charge =  0 Multiplicity = 1

                         Standard orientation:
 ---------------------------------------------------------------------
 Center     Atomic      Atomic             Coordinates (Angstroms)
 Number     Number       Type             X           Y           Z
 ---------------------------------------------------------------------
      1          8           0        0.063214    3.004761    0.000000
      2          1           0        0.062349    2.022160    0.000000
      3          1           0       -0.865998    3.324246    0.000000
      4          8           0        0.063214   -2.829222   -0.000000
      5          1           0        0.660698   -3.609297   -0.000000
      6          1           0       -0.868470   -3.141426   -0.000000
 ---------------------------------------------------------------------

 SCF Done:  E(RHF) =  -152.108171035     A.U. after   10 cycles
 E2 =    -0.5258203522D+00 EUMP2 =    -0.15263399138685D+03
 CCSD(T)
 CCSD(T)= -0.15266119481D+03

 The electronic state is 1-A'.
 Alpha  occ. eigenvalues --  -20.56147 -20.55040  -1.33449  -1.32345  -0.70855
 Alpha  occ. eigenvalues --   -0.69745  -0.56932  -0.55811  -0.50566  -0.49465
 Alpha virt. eigenvalues --    0.13432   0.14789   0.19668   0.20944   0.53653
 Alpha virt. eigenvalues --    0.54815   0.56679   0.57752   0.66987   0.68572
 Alpha virt. eigenvalues --    0.78319   0.79396   0.79666   0.80492   0.82346

 Mulliken charges:
               1
     1  O   -0.512591
     2  H    0.259610
     3  H    0.252923
     4  O   -0.513403
     5  H    0.258106
     6  H    0.255354
 Sum of Mulliken charges =  -0.00000

 Dipole moment (field-independent basis, Debye):
    X=             -2.1691    Y=             -3.0752    Z=             -0.0000  Tot=              3.7632
 Quadrupole moment (field-independent basis, Debye-Ang):
   XX=             -9.4535   YY=             -6.3485   ZZ=            -14.7140
   XY=             -4.7743   XZ=             -0.0000   YZ=             -0.0000

 Normal termination of Gaussian 16 at Sun Aug 28 05:41:12 2022.
