 Gaussian 16, Revision A.03,
 Gaussian 16:  ES64L-G16RevA.03 25-Dec-2016

 ------------------
 #p CCSD(T)/cc-pVTZ
 ------------------

 ------------
 H2O_H2O_2649
 ------------
 Symbolic Z-matrix:
 Charge =  0 Multiplicity = 1

                         Standard orientation:
 ---------------------------------------------------------------------
 Center     Atomic      Atomic             Coordinates (Angstroms)
 Number     Number       Type             X           Y           Z
 ---------------------------------------------------------------------
      1          8           0       -0.013542    2.148312    0.000000
      2          1           0       -0.010284    1.165716    0.000000
      3          1           0        0.914889    2.470059    0.000000
      4          8           0       -0.013542   -1.989058    0.000000
      5          1           0       -0.996139   -1.992316    0.000000
      6          1           0        0.308204   -2.917490    0.000000
 ---------------------------------------------------------------------

 SCF Done:  E(RHF) =  -152.110306284     A.U. after   10 cycles
 E2 =    -0.5260217957D+00 EUMP2 =    -0.15263632807943D+03
 CCSD(T)
 CCSD(T)= -0.15266345599D+03

 The electronic state is 1-A'.
 Alpha  occ. eigenvalues --  -20.56805 -20.54516  -1.34088  -1.31840  -0.71502
 Alpha  occ. eigenvalues --   -0.69250  -0.57649  -0.55330  -0.51216  -0.48982
 Alpha virt. eigenvalues --    0.12170   0.16201   0.19246   0.24040   0.54065
 Alpha virt. eigenvalues --    0.55494   0.56205   0.58456   0.68664   0.70117
 Alpha virt. eigenvalues --    0.77558   0.79113   0.79876   0.80702   0.83450

 Mulliken charges:
               1
     1  O   -0.522796
     2  H    0.263886
     3  H    0.254870
     4  O   -0.513257
     5  H    0.258711
     6  H    0.258586
 Sum of Mulliken charges =  -0.00000

 Dipole moment (field-independent basis, Debye):
    X=              0.4673    Y=             -2.8949    Z=              0.0000  Tot=              2.9324
 Quadrupole moment (field-independent basis, Debye-Ang):
   XX=             -9.6487   YY=             -8.1071   ZZ=            -14.7208
   XY=              5.8021   XZ=              0.0000   YZ=              0.0000

 CCSD(T)=-152.663456\RMSD=6.722e-09\PG=CS [SG(H4O2)]\\@
 Normal termination of Gaussian 16 at Fri Aug 26 16:17:47 2022.
