 Gaussian 16, Revision A.03,
 Gaussian 16:  ES64L-G16RevA.03 25-Dec-2016

 ------------------
 #p CCSD(T)/cc-pVTZ
 ------------------

 ------------
 H2O_H2O_3759
 ------------
 Symbolic Z-matrix:
 Charge =  0 Multiplicity = 1

                         Standard orientation:
 ---------------------------------------------------------------------
 Center     Atomic      Atomic             Coordinates (Angstroms)
 Number     Number       Type             X           Y           Z
 ---------------------------------------------------------------------
      1          8           0        0.066752    2.604569    0.000000
      2          1           0        0.065869    1.621968    0.000000
      3          1           0       -0.862455    2.924070    0.000000
      4          8           0        0.066752   -2.431452    0.000000
      5          1           0        0.611922   -3.248944    0.000000
      6          1           0       -0.883361   -2.682035    0.000000
 ---------------------------------------------------------------------

 SCF Done:  E(RHF) =  -152.108656371     A.U. after   10 cycles
 E2 =    -0.5258606417D+00 EUMP2 =    -0.15263451701324D+03
 CCSD(T)
 CCSD(T)= -0.15266170041D+03

 The electronic state is 1-A'.
 Alpha  occ. eigenvalues --  -20.56365 -20.54831  -1.33660  -1.32141  -0.71068
 Alpha  occ. eigenvalues --   -0.69535  -0.57159  -0.55612  -0.50780  -0.49265
 Alpha virt. eigenvalues --    0.12793   0.15290   0.19506   0.21545   0.53376
 Alpha virt. eigenvalues --    0.55014   0.56503   0.57930   0.66752   0.69178
 Alpha virt. eigenvalues --    0.78120   0.78927   0.79585   0.80137   0.82863

 Mulliken charges:
               1
     1  O   -0.514083
     2  H    0.261581
     3  H    0.251782
     4  O   -0.514345
     5  H    0.259634
     6  H    0.255430
 Sum of Mulliken charges =   0.00000

 Dipole moment (field-independent basis, Debye):
    X=             -2.2835    Y=             -3.0662    Z=              0.0000  Tot=              3.8231
 Quadrupole moment (field-independent basis, Debye-Ang):
   XX=             -9.5618   YY=             -7.0450   ZZ=            -14.7156
   XY=             -4.1638   XZ=              0.0000   YZ=              0.0000

 Normal termination of Gaussian 16 at Fri Aug 26 23:31:00 2022.
