 Gaussian 16, Revision A.03,
 Gaussian 16:  ES64L-G16RevA.03 25-Dec-2016

 ------------------
 #p CCSD(T)/cc-pVTZ
 ------------------

 -----------
 H2O_H2O_642
 -----------
 Symbolic Z-matrix:
 Charge =  0 Multiplicity = 1

                         Standard orientation:
 ---------------------------------------------------------------------
 Center     Atomic      Atomic             Coordinates (Angstroms)
 Number     Number       Type             X           Y           Z
 ---------------------------------------------------------------------
      1          8           0        0.037594    1.361200    0.000000
      2          1           0        0.033890    0.378605    0.000000
      3          1           0       -0.890691    1.683368    0.000000
      4          8           0        0.037594   -1.182360   -0.000000
      5          1           0        0.917219   -1.620273   -0.000000
      6          1           0       -0.661920   -1.872423   -0.000000
 ---------------------------------------------------------------------

 SCF Done:  E(RHF) =  -152.106538571     A.U. after   11 cycles
 E2 =    -0.5306066646D+00 EUMP2 =    -0.15263714523572D+03
 CCSD(T)
 CCSD(T)= -0.15266368620D+03

 The electronic state is 1-A'.
 Alpha  occ. eigenvalues --  -20.59765 -20.49679  -1.37845  -1.27878  -0.74778
 Alpha  occ. eigenvalues --   -0.69793  -0.59216  -0.54661  -0.50269  -0.44891
 Alpha virt. eigenvalues --    0.11507   0.17992   0.19397   0.33472   0.47574
 Alpha virt. eigenvalues --    0.54007   0.59137   0.64553   0.69071   0.72350
 Alpha virt. eigenvalues --    0.72910   0.78210   0.81292   0.83107   0.84174

 Mulliken charges:
               1
     1  O   -0.603628
     2  H    0.310640
     3  H    0.234493
     4  O   -0.455767
     5  H    0.263340
     6  H    0.250922
 Sum of Mulliken charges =  -0.00000

 Dipole moment (field-independent basis, Debye):
    X=             -1.2175    Y=             -4.1105    Z=             -0.0000  Tot=              4.2870
 Quadrupole moment (field-independent basis, Debye-Ang):
   XX=             -9.1357   YY=             -9.2294   ZZ=            -14.6941
   XY=             -3.2125   XZ=             -0.0000   YZ=              0.0000

 Normal termination of Gaussian 16 at Fri Aug 26 19:34:58 2022.
