 Gaussian 16, Revision A.03,
 Gaussian 16:  ES64L-G16RevA.03 25-Dec-2016

 ------------------
 #p CCSD(T)/cc-pVTZ
 ------------------

 ------------
 H2O_H2O_4753
 ------------
 Symbolic Z-matrix:
 Charge =  0 Multiplicity = 1

                         Standard orientation:
 ---------------------------------------------------------------------
 Center     Atomic      Atomic             Coordinates (Angstroms)
 Number     Number       Type             X           Y           Z
 ---------------------------------------------------------------------
      1          8           0        0.085596   -2.990675    0.000000
      2          1           0        0.085382   -2.008073    0.000000
      3          1           0       -0.843827   -3.309543    0.000000
      4          8           0        0.085596    2.841067    0.000000
      5          1           0        0.277083    3.804830    0.000000
      6          1           0       -0.888178    2.709646    0.000000
 ---------------------------------------------------------------------

 SCF Done:  E(RHF) =  -152.107797692     A.U. after   10 cycles
 E2 =    -0.5258530748D+00 EUMP2 =    -0.15263365076690D+03
 CCSD(T)
 CCSD(T)= -0.15266086232D+03

 The electronic state is 1-A'.
 Alpha  occ. eigenvalues --  -20.56162 -20.55245  -1.33463  -1.32547  -0.70875
 Alpha  occ. eigenvalues --   -0.69945  -0.56929  -0.56003  -0.50576  -0.49662
 Alpha virt. eigenvalues --    0.13175   0.14664   0.19263   0.21175   0.53449
 Alpha virt. eigenvalues --    0.54769   0.56616   0.57651   0.67019   0.68413
 Alpha virt. eigenvalues --    0.78312   0.79208   0.79682   0.80910   0.81804

 Mulliken charges:
               1
     1  O   -0.510502
     2  H    0.258017
     3  H    0.252445
     4  O   -0.511411
     5  H    0.257995
     6  H    0.253455
 Sum of Mulliken charges =  -0.00000

 Dipole moment (field-independent basis, Debye):
    X=             -2.9372    Y=              2.6204    Z=              0.0000  Tot=              3.9362
 Quadrupole moment (field-independent basis, Debye-Ang):
   XX=            -10.3963   YY=             -8.0682   ZZ=            -14.7125
   XY=              2.9686   XZ=              0.0000   YZ=              0.0000

 Normal termination of Gaussian 16 at Sun Aug 28 05:35:17 2022.
