 Gaussian 16, Revision A.03,
 Gaussian 16:  ES64L-G16RevA.03 25-Dec-2016

 ------------------
 #p CCSD(T)/cc-pVTZ
 ------------------

 ------------
 H2O_H2O_2207
 ------------
 Symbolic Z-matrix:
 Charge =  0 Multiplicity = 1

                         Standard orientation:
 ---------------------------------------------------------------------
 Center     Atomic      Atomic             Coordinates (Angstroms)
 Number     Number       Type             X           Y           Z
 ---------------------------------------------------------------------
      1          8           0        0.073548    1.982944   -0.000000
      2          1           0        0.072680    1.000343   -0.000000
      3          1           0       -0.855664    2.302431    0.000000
      4          8           0        0.073548   -1.816023   -0.000000
      5          1           0        0.507363   -2.697676   -0.000000
      6          1           0       -0.901143   -1.940463    0.000000
 ---------------------------------------------------------------------

 SCF Done:  E(RHF) =  -152.110656973     A.U. after   10 cycles
 E2 =    -0.5263592684D+00 EUMP2 =    -0.15263701624173D+03
 CCSD(T)
 CCSD(T)= -0.15266411676D+03

 The electronic state is 1-A'.
 Alpha  occ. eigenvalues --  -20.57163 -20.54200  -1.34430  -1.31532  -0.71851
 Alpha  occ. eigenvalues --   -0.68914  -0.58014  -0.54990  -0.51554  -0.48666
 Alpha virt. eigenvalues --    0.11982   0.16440   0.19459   0.25006   0.52423
 Alpha virt. eigenvalues --    0.55841   0.56000   0.58381   0.68827   0.71970
 Alpha virt. eigenvalues --    0.76801   0.78735   0.80259   0.82931   0.83479

 Mulliken charges:
               1
     1  O   -0.521096
     2  H    0.266759
     3  H    0.246797
     4  O   -0.505995
     5  H    0.259990
     6  H    0.253545
 Sum of Mulliken charges =  -0.00000

 Dipole moment (field-independent basis, Debye):
    X=             -2.4902    Y=             -3.0973    Z=              0.0000  Tot=              3.9742
 Quadrupole moment (field-independent basis, Debye-Ang):
   XX=             -9.8272   YY=             -8.0574   ZZ=            -14.7221
   XY=             -3.3305   XZ=             -0.0000   YZ=              0.0000

 Normal termination of Gaussian 16 at Sun Aug 28 05:26:04 2022.
