 Gaussian 16, Revision A.03,
 Gaussian 16:  ES64L-G16RevA.03 25-Dec-2016

 ------------------
 #p CCSD(T)/cc-pVTZ
 ------------------

 ------------
 H2O_H2O_4128
 ------------
 Symbolic Z-matrix:
 Charge =  0 Multiplicity = 1

                         Standard orientation:
 ---------------------------------------------------------------------
 Center     Atomic      Atomic             Coordinates (Angstroms)
 Number     Number       Type             X           Y           Z
 ---------------------------------------------------------------------
      1          8           0        0.085598   -2.741375    0.000000
      2          1           0        0.085364   -1.758773    0.000000
      3          1           0       -0.843819   -3.060262    0.000000
      4          8           0        0.085598    2.591770    0.000000
      5          1           0        0.277065    3.555538    0.000000
      6          1           0       -0.888172    2.460330    0.000000
 ---------------------------------------------------------------------

 SCF Done:  E(RHF) =  -152.107953373     A.U. after   10 cycles
 E2 =    -0.5258740876D+00 EUMP2 =    -0.15263382746088D+03
 CCSD(T)
 CCSD(T)= -0.15266103199D+03

 The electronic state is 1-A'.
 Alpha  occ. eigenvalues --  -20.56279 -20.55157  -1.33580  -1.32461  -0.70994
 Alpha  occ. eigenvalues --   -0.69856  -0.57051  -0.55919  -0.50692  -0.49577
 Alpha virt. eigenvalues --    0.12663   0.14967   0.19127   0.21669   0.53186
 Alpha virt. eigenvalues --    0.54962   0.56524   0.57826   0.66755   0.68767
 Alpha virt. eigenvalues --    0.78202   0.79227   0.79289   0.81117   0.82419

 Mulliken charges:
               1
     1  O   -0.510878
     2  H    0.258908
     3  H    0.251753
     4  O   -0.511925
     5  H    0.258964
     6  H    0.253178
 Sum of Mulliken charges =  -0.00000

 Dipole moment (field-independent basis, Debye):
    X=             -2.9319    Y=              2.6348    Z=              0.0000  Tot=              3.9418
 Quadrupole moment (field-independent basis, Debye-Ang):
   XX=            -10.3986   YY=             -8.2004   ZZ=            -14.7130
   XY=              2.9023   XZ=              0.0000   YZ=              0.0000

 Normal termination of Gaussian 16 at Sat Aug 27 23:58:02 2022.
