 Gaussian 16, Revision A.03,
 Gaussian 16:  ES64L-G16RevA.03 25-Dec-2016

 ------------------
 #p CCSD(T)/cc-pVTZ
 ------------------

 ------------
 H2O_H2O_4330
 ------------
 Symbolic Z-matrix:
 Charge =  0 Multiplicity = 1

                         Standard orientation:
 ---------------------------------------------------------------------
 Center     Atomic      Atomic             Coordinates (Angstroms)
 Number     Number       Type             X           Y           Z
 ---------------------------------------------------------------------
      1          8           0        0.079845    2.826295   -0.000000
      2          1           0        0.079440    1.843693   -0.000000
      3          1           0       -0.849517    3.145344   -0.000000
      4          8           0        0.079845   -2.667219    0.000000
      5          1           0        0.395309   -3.597805    0.000000
      6          1           0       -0.902751   -2.663835    0.000000
 ---------------------------------------------------------------------

 SCF Done:  E(RHF) =  -152.108045886     A.U. after   10 cycles
 E2 =    -0.5258516933D+00 EUMP2 =    -0.15263389757969D+03
 CCSD(T)
 CCSD(T)= -0.15266110147D+03

 The electronic state is 1-A'.
 Alpha  occ. eigenvalues --  -20.56232 -20.55104  -1.33533  -1.32408  -0.70944
 Alpha  occ. eigenvalues --   -0.69805  -0.57009  -0.55869  -0.50647  -0.49526
 Alpha virt. eigenvalues --    0.12992   0.14893   0.19331   0.21323   0.53332
 Alpha virt. eigenvalues --    0.54915   0.56573   0.57781   0.66802   0.68718
 Alpha virt. eigenvalues --    0.78244   0.79338   0.79357   0.80811   0.82458

 Mulliken charges:
               1
     1  O   -0.511560
     2  H    0.259300
     3  H    0.252107
     4  O   -0.512593
     5  H    0.258745
     6  H    0.254001
 Sum of Mulliken charges =  -0.00000

 Dipole moment (field-independent basis, Debye):
    X=             -2.7366    Y=             -2.7962    Z=              0.0000  Tot=              3.9126
 Quadrupole moment (field-independent basis, Debye-Ang):
   XX=            -10.0944   YY=             -7.5652   ZZ=            -14.7134
   XY=             -3.4238   XZ=              0.0000   YZ=             -0.0000

 Normal termination of Gaussian 16 at Sun Aug 28 01:54:30 2022.
