 Gaussian 16, Revision A.03,
 Gaussian 16:  ES64L-G16RevA.03 25-Dec-2016

 ------------------
 #p CCSD(T)/cc-pVTZ
 ------------------

 ------------
 H2O_H2O_2785
 ------------
 Symbolic Z-matrix:
 Charge =  0 Multiplicity = 1

                         Standard orientation:
 ---------------------------------------------------------------------
 Center     Atomic      Atomic             Coordinates (Angstroms)
 Number     Number       Type             X           Y           Z
 ---------------------------------------------------------------------
      1          8           0        0.063242    2.216958    0.000000
      2          1           0        0.062058    1.234358    0.000000
      3          1           0       -0.865866    2.536745    0.000000
      4          8           0        0.063242   -2.041460   -0.000000
      5          1           0        0.660471   -2.821731   -0.000000
      6          1           0       -0.868543   -2.353361   -0.000000
 ---------------------------------------------------------------------

 SCF Done:  E(RHF) =  -152.109939993     A.U. after   10 cycles
 E2 =    -0.5260279792D+00 EUMP2 =    -0.15263596797224D+03
 CCSD(T)
 CCSD(T)= -0.15266310178D+03

 The electronic state is 1-A'.
 Alpha  occ. eigenvalues --  -20.56770 -20.54405  -1.34043  -1.31727  -0.71449
 Alpha  occ. eigenvalues --   -0.69113  -0.57589  -0.55207  -0.51172  -0.48860
 Alpha virt. eigenvalues --    0.12304   0.16067   0.19417   0.23170   0.53238
 Alpha virt. eigenvalues --    0.55520   0.56200   0.58782   0.68832   0.69479
 Alpha virt. eigenvalues --    0.77683   0.79058   0.79869   0.79977   0.83279

 Mulliken charges:
               1
     1  O   -0.518752
     2  H    0.264939
     3  H    0.249895
     4  O   -0.511735
     5  H    0.260154
     6  H    0.255499
 Sum of Mulliken charges =  -0.00000

 Dipole moment (field-independent basis, Debye):
    X=             -2.1527    Y=             -3.1817    Z=             -0.0000  Tot=              3.8415
 Quadrupole moment (field-independent basis, Debye-Ang):
   XX=             -9.4594   YY=             -7.4869   ZZ=            -14.7198
   XY=             -3.9597   XZ=             -0.0000   YZ=             -0.0000

 Normal termination of Gaussian 16 at Fri Aug 26 17:18:15 2022.
