 Gaussian 16, Revision A.03,
 Gaussian 16:  ES64L-G16RevA.03 25-Dec-2016

 ------------------
 #p CCSD(T)/cc-pVTZ
 ------------------

 ------------
 H2O_H2O_3447
 ------------
 Symbolic Z-matrix:
 Charge =  0 Multiplicity = 1

                         Standard orientation:
 ---------------------------------------------------------------------
 Center     Atomic      Atomic             Coordinates (Angstroms)
 Number     Number       Type             X           Y           Z
 ---------------------------------------------------------------------
      1          8           0       -0.019849    2.471678    0.000000
      2          1           0       -0.017252    1.489080    0.000000
      3          1           0        0.908798    2.792800    0.000000
      4          8           0       -0.019849   -2.304568    0.000000
      5          1           0       -0.993702   -2.435398    0.000000
      6          1           0        0.419739   -3.183356    0.000000
 ---------------------------------------------------------------------

 SCF Done:  E(RHF) =  -152.109259842     A.U. after   10 cycles
 E2 =    -0.5258503135D+00 EUMP2 =    -0.15263511015576D+03
 CCSD(T)
 CCSD(T)= -0.15266227700D+03

 The electronic state is 1-A'.
 Alpha  occ. eigenvalues --  -20.56446 -20.54756  -1.33740  -1.32071  -0.71145
 Alpha  occ. eigenvalues --   -0.69476  -0.57261  -0.55557  -0.50864  -0.49203
 Alpha virt. eigenvalues --    0.12558   0.15561   0.19326   0.22197   0.53350
 Alpha virt. eigenvalues --    0.55344   0.56532   0.58001   0.67074   0.69287
 Alpha virt. eigenvalues --    0.78038   0.78715   0.79637   0.80440   0.82971

 Mulliken charges:
               1
     1  O   -0.517579
     2  H    0.261856
     3  H    0.254456
     4  O   -0.516021
     5  H    0.258439
     6  H    0.258847
 Sum of Mulliken charges =  -0.00000

 Dipole moment (field-independent basis, Debye):
    X=              0.6806    Y=             -2.9744    Z=              0.0000  Tot=              3.0513
 Quadrupole moment (field-independent basis, Debye-Ang):
   XX=             -9.4466   YY=             -7.4688   ZZ=            -14.7177
   XY=              6.2941   XZ=              0.0000   YZ=              0.0000

 CCSD(T)=-152.662277\RMSD=6.976e-09\PG=CS [SG(H4O2)]\\@
 Normal termination of Gaussian 16 at Fri Aug 26 21:44:59 2022.
