 Gaussian 16, Revision A.03,
 Gaussian 16:  ES64L-G16RevA.03 25-Dec-2016

 ------------------
 #p CCSD(T)/cc-pVTZ
 ------------------

 ------------
 H2O_H2O_2340
 ------------
 Symbolic Z-matrix:
 Charge =  0 Multiplicity = 1

                         Standard orientation:
 ---------------------------------------------------------------------
 Center     Atomic      Atomic             Coordinates (Angstroms)
 Number     Number       Type             X           Y           Z
 ---------------------------------------------------------------------
      1          8           0        0.044885    2.040115   -0.000000
      2          1           0        0.042791    1.057516   -0.000000
      3          1           0       -0.883927    2.360761   -0.000000
      4          8           0        0.044885   -1.859742    0.000000
      5          1           0        0.860723   -2.407385    0.000000
      6          1           0       -0.737744   -2.453880    0.000000
 ---------------------------------------------------------------------

 SCF Done:  E(RHF) =  -152.111372196     A.U. after   10 cycles
 E2 =    -0.5261702180D+00 EUMP2 =    -0.15263754241394D+03
 CCSD(T)
 CCSD(T)= -0.15266463582D+03

 The electronic state is 1-A'.
 Alpha  occ. eigenvalues --  -20.57064 -20.53989  -1.34320  -1.31328  -0.71711
 Alpha  occ. eigenvalues --   -0.68730  -0.57944  -0.54810  -0.51458  -0.48475
 Alpha virt. eigenvalues --    0.12310   0.16625   0.19272   0.24758   0.52393
 Alpha virt. eigenvalues --    0.55438   0.56386   0.58983   0.69041   0.71434
 Alpha virt. eigenvalues --    0.77104   0.78348   0.80383   0.82061   0.83627

 Mulliken charges:
               1
     1  O   -0.525265
     2  H    0.267415
     3  H    0.250253
     4  O   -0.510193
     5  H    0.260878
     6  H    0.256912
 Sum of Mulliken charges =  -0.00000

 Dipole moment (field-independent basis, Debye):
    X=             -1.5231    Y=             -3.3320    Z=              0.0000  Tot=              3.6636
 Quadrupole moment (field-independent basis, Debye-Ang):
   XX=             -9.1585   YY=             -7.6235   ZZ=            -14.7248
   XY=             -4.3516   XZ=              0.0000   YZ=             -0.0000

 Normal termination of Gaussian 16 at Sun Aug 28 06:25:46 2022.
