 Gaussian 16, Revision A.03,
 Gaussian 16:  ES64L-G16RevA.03 25-Dec-2016

 ------------------
 #p CCSD(T)/cc-pVTZ
 ------------------

 ------------
 H2O_H2O_3767
 ------------
 Symbolic Z-matrix:
 Charge =  0 Multiplicity = 1

                         Standard orientation:
 ---------------------------------------------------------------------
 Center     Atomic      Atomic             Coordinates (Angstroms)
 Number     Number       Type             X           Y           Z
 ---------------------------------------------------------------------
      1          8           0        0.037427    2.607757    0.000000
      2          1           0        0.035556    1.625158    0.000000
      3          1           0       -0.891458    2.928193    0.000000
      4          8           0        0.037427   -2.428777   -0.000000
      5          1           0        0.917867   -2.865047   -0.000000
      6          1           0       -0.660799   -3.120143   -0.000000
 ---------------------------------------------------------------------

 SCF Done:  E(RHF) =  -152.108992359     A.U. after   10 cycles
 E2 =    -0.5258271248D+00 EUMP2 =    -0.15263481948407D+03
 CCSD(T)
 CCSD(T)= -0.15266199634D+03

 The electronic state is 1-A'.
 Alpha  occ. eigenvalues --  -20.56352 -20.54749  -1.33647  -1.32061  -0.71050
 Alpha  occ. eigenvalues --   -0.69462  -0.57161  -0.55542  -0.50770  -0.49190
 Alpha virt. eigenvalues --    0.12930   0.15356   0.19582   0.21548   0.53462
 Alpha virt. eigenvalues --    0.55020   0.56558   0.57886   0.66752   0.69224
 Alpha virt. eigenvalues --    0.78127   0.79131   0.79653   0.79761   0.82956

 Mulliken charges:
               1
     1  O   -0.516218
     2  H    0.262130
     3  H    0.253318
     4  O   -0.516012
     5  H    0.259060
     6  H    0.257722
 Sum of Mulliken charges =  -0.00000

 Dipole moment (field-independent basis, Debye):
    X=             -1.2810    Y=             -3.1700    Z=             -0.0000  Tot=              3.4190
 Quadrupole moment (field-independent basis, Debye-Ang):
   XX=             -9.1591   YY=             -6.7547   ZZ=            -14.7169
   XY=             -5.6660   XZ=             -0.0000   YZ=              0.0000

 Normal termination of Gaussian 16 at Fri Aug 26 23:33:38 2022.
