 Gaussian 16, Revision A.03,
 Gaussian 16:  ES64L-G16RevA.03 25-Dec-2016

 ------------------
 #p CCSD(T)/cc-pVTZ
 ------------------

 ------------
 H2O_H2O_2109
 ------------
 Symbolic Z-matrix:
 Charge =  0 Multiplicity = 1

                         Standard orientation:
 ---------------------------------------------------------------------
 Center     Atomic      Atomic             Coordinates (Angstroms)
 Number     Number       Type             X           Y           Z
 ---------------------------------------------------------------------
      1          8           0        0.066779    1.946400   -0.000000
      2          1           0        0.065584    0.963800   -0.000000
      3          1           0       -0.862326    2.266197   -0.000000
      4          8           0        0.066779   -1.773325    0.000000
      5          1           0        0.611690   -2.590993    0.000000
      6          1           0       -0.883413   -2.023607    0.000000
 ---------------------------------------------------------------------

 SCF Done:  E(RHF) =  -152.111311237     A.U. after   10 cycles
 E2 =    -0.5264004477D+00 EUMP2 =    -0.15263771168494D+03
 CCSD(T)
 CCSD(T)= -0.15266479634D+03

 The electronic state is 1-A'.
 Alpha  occ. eigenvalues --  -20.57255 -20.53977  -1.34515  -1.31319  -0.71922
 Alpha  occ. eigenvalues --   -0.68716  -0.58140  -0.54776  -0.51645  -0.48460
 Alpha virt. eigenvalues --    0.12070   0.16646   0.19349   0.25522   0.51923
 Alpha virt. eigenvalues --    0.55634   0.56069   0.58640   0.68917   0.72188
 Alpha virt. eigenvalues --    0.76555   0.78270   0.80467   0.83447   0.83769

 Mulliken charges:
               1
     1  O   -0.524013
     2  H    0.267950
     3  H    0.246910
     4  O   -0.506385
     5  H    0.260799
     6  H    0.254739
 Sum of Mulliken charges =  -0.00000

 Dipole moment (field-independent basis, Debye):
    X=             -2.2592    Y=             -3.2321    Z=              0.0000  Tot=              3.9434
 Quadrupole moment (field-independent basis, Debye-Ang):
   XX=             -9.5747   YY=             -7.9530   ZZ=            -14.7247
   XY=             -3.5618   XZ=              0.0000   YZ=             -0.0000

 Normal termination of Gaussian 16 at Sun Aug 28 04:27:05 2022.
