 Gaussian 16, Revision A.03,
 Gaussian 16:  ES64L-G16RevA.03 25-Dec-2016

 ------------------
 #p CCSD(T)/cc-pVTZ
 ------------------

 ------------
 H2O_H2O_2139
 ------------
 Symbolic Z-matrix:
 Charge =  0 Multiplicity = 1

                         Standard orientation:
 ---------------------------------------------------------------------
 Center     Atomic      Atomic             Coordinates (Angstroms)
 Number     Number       Type             X           Y           Z
 ---------------------------------------------------------------------
      1          8           0        0.048615    1.960329   -0.000000
      2          1           0        0.046601    0.977730   -0.000000
      3          1           0       -0.880223    2.280900   -0.000000
      4          8           0        0.048615   -1.779975    0.000000
      5          1           0        0.826937   -2.379741    0.000000
      6          1           0       -0.771153   -2.321721    0.000000
 ---------------------------------------------------------------------

 SCF Done:  E(RHF) =  -152.111891467     A.U. after   10 cycles
 E2 =    -0.5263086435D+00 EUMP2 =    -0.15263820011044D+03
 CCSD(T)
 CCSD(T)= -0.15266527678D+03

 The electronic state is 1-A'.
 Alpha  occ. eigenvalues --  -20.57233 -20.53813  -1.34485  -1.31163  -0.71871
 Alpha  occ. eigenvalues --   -0.68576  -0.58146  -0.54632  -0.51624  -0.48312
 Alpha virt. eigenvalues --    0.12244   0.16832   0.19215   0.25596   0.51912
 Alpha virt. eigenvalues --    0.55251   0.56388   0.58981   0.69038   0.72089
 Alpha virt. eigenvalues --    0.76646   0.77877   0.80579   0.83512   0.83798

 Mulliken charges:
               1
     1  O   -0.527361
     2  H    0.268561
     3  H    0.249113
     4  O   -0.508614
     5  H    0.261473
     6  H    0.256829
 Sum of Mulliken charges =  -0.00000

 Dipole moment (field-independent basis, Debye):
    X=             -1.6461    Y=             -3.3667    Z=              0.0000  Tot=              3.7476
 Quadrupole moment (field-independent basis, Debye-Ang):
   XX=             -9.1860   YY=             -7.7661   ZZ=            -14.7270
   XY=             -4.1177   XZ=              0.0000   YZ=             -0.0000

 Normal termination of Gaussian 16 at Sun Aug 28 04:39:20 2022.
