 Gaussian 16, Revision A.03,
 Gaussian 16:  ES64L-G16RevA.03 25-Dec-2016

 ------------------
 #p CCSD(T)/cc-pVTZ
 ------------------

 ------------
 H2O_H2O_4629
 ------------
 Symbolic Z-matrix:
 Charge =  0 Multiplicity = 1

                         Standard orientation:
 ---------------------------------------------------------------------
 Center     Atomic      Atomic             Coordinates (Angstroms)
 Number     Number       Type             X           Y           Z
 ---------------------------------------------------------------------
      1          8           0        0.082797    2.943489   -0.000000
      2          1           0        0.082497    1.960888   -0.000000
      3          1           0       -0.846598    3.262440   -0.000000
      4          8           0        0.082797   -2.788958    0.000000
      5          1           0        0.336823   -3.738156    0.000000
      6          1           0       -0.897480   -2.721420    0.000000
 ---------------------------------------------------------------------

 SCF Done:  E(RHF) =  -152.107889144     A.U. after   10 cycles
 E2 =    -0.5258495942D+00 EUMP2 =    -0.15263373873870D+03
 CCSD(T)
 CCSD(T)= -0.15266094781D+03

 The electronic state is 1-A'.
 Alpha  occ. eigenvalues --  -20.56179 -20.55189  -1.33481  -1.32493  -0.70892
 Alpha  occ. eigenvalues --   -0.69890  -0.56951  -0.55950  -0.50594  -0.49609
 Alpha virt. eigenvalues --    0.13150   0.14735   0.19314   0.21191   0.53425
 Alpha virt. eigenvalues --    0.54819   0.56609   0.57698   0.66952   0.68509
 Alpha virt. eigenvalues --    0.78294   0.79259   0.79604   0.80881   0.82008

 Mulliken charges:
               1
     1  O   -0.510931
     2  H    0.258504
     3  H    0.252365
     4  O   -0.511896
     5  H    0.258232
     6  H    0.253726
 Sum of Mulliken charges =  -0.00000

 Dipole moment (field-independent basis, Debye):
    X=             -2.8402    Y=             -2.7092    Z=              0.0000  Tot=              3.9251
 Quadrupole moment (field-independent basis, Debye-Ang):
   XX=            -10.2439   YY=             -7.7619   ZZ=            -14.7129
   XY=             -3.2187   XZ=              0.0000   YZ=             -0.0000

 Normal termination of Gaussian 16 at Sun Aug 28 04:30:13 2022.
