 Gaussian 16, Revision A.03,
 Gaussian 16:  ES64L-G16RevA.03 25-Dec-2016

 ------------------
 #p CCSD(T)/cc-pVTZ
 ------------------

 ------------
 H2O_H2O_3958
 ------------
 Symbolic Z-matrix:
 Charge =  0 Multiplicity = 1

                         Standard orientation:
 ---------------------------------------------------------------------
 Center     Atomic      Atomic             Coordinates (Angstroms)
 Number     Number       Type             X           Y           Z
 ---------------------------------------------------------------------
      1          8           0        0.070189    2.682792    0.000000
      2          1           0        0.069445    1.700191    0.000000
      3          1           0       -0.859063    3.002162    0.000000
      4          8           0        0.070189   -2.512532   -0.000000
      5          1           0        0.560845   -3.363861   -0.000000
      6          1           0       -0.894253   -2.700575   -0.000000
 ---------------------------------------------------------------------

 SCF Done:  E(RHF) =  -152.108444271     A.U. after   10 cycles
 E2 =    -0.5258518020D+00 EUMP2 =    -0.15263429607261D+03
 CCSD(T)
 CCSD(T)= -0.15266148715D+03

 The electronic state is 1-A'.
 Alpha  occ. eigenvalues --  -20.56311 -20.54917  -1.33609  -1.32225  -0.71018
 Alpha  occ. eigenvalues --   -0.69620  -0.57100  -0.55693  -0.50727  -0.49346
 Alpha virt. eigenvalues --    0.12887   0.15149   0.19481   0.21413   0.53358
 Alpha virt. eigenvalues --    0.54985   0.56535   0.57870   0.66695   0.69043
 Alpha virt. eigenvalues --    0.78169   0.79036   0.79508   0.80347   0.82772

 Mulliken charges:
               1
     1  O   -0.513267
     2  H    0.260893
     3  H    0.251925
     4  O   -0.513982
     5  H    0.259374
     6  H    0.255057
 Sum of Mulliken charges =   0.00000

 Dipole moment (field-independent basis, Debye):
    X=             -2.4028    Y=             -3.0065    Z=             -0.0000  Tot=              3.8487
 Quadrupole moment (field-independent basis, Debye-Ang):
   XX=             -9.6805   YY=             -7.0866   ZZ=            -14.7149
   XY=             -4.0239   XZ=             -0.0000   YZ=              0.0000

 CCSD(T)=-152.6614872\RMSD=7.159e-09\PG=CS [SG(H4O2)]\\@
 Normal termination of Gaussian 16 at Sat Aug 27 00:41:14 2022.
