 Gaussian 16, Revision A.03,
 Gaussian 16:  ES64L-G16RevA.03 25-Dec-2016

 ------------------
 #p CCSD(T)/cc-pVTZ
 ------------------

 -----------
 H2O_H2O_959
 -----------
 Symbolic Z-matrix:
 Charge =  0 Multiplicity = 1

                         Standard orientation:
 ---------------------------------------------------------------------
 Center     Atomic      Atomic             Coordinates (Angstroms)
 Number     Number       Type             X           Y           Z
 ---------------------------------------------------------------------
      1          8           0        0.066814    1.487666   -0.000000
      2          1           0        0.065227    0.505065   -0.000000
      3          1           0       -0.862164    1.807832   -0.000000
      4          8           0        0.066814   -1.314643    0.000000
      5          1           0        0.611398   -2.132527    0.000000
      6          1           0       -0.883478   -1.564547    0.000000
 ---------------------------------------------------------------------

 SCF Done:  E(RHF) =  -152.111670679     A.U. after   10 cycles
 E2 =    -0.5290418983D+00 EUMP2 =    -0.15264071257760D+03
 CCSD(T)
 CCSD(T)= -0.15266754416D+03

 The electronic state is 1-A'.
 Alpha  occ. eigenvalues --  -20.58917 -20.51760  -1.36485  -1.29457  -0.73842
 Alpha  occ. eigenvalues --   -0.68230  -0.59676  -0.53496  -0.52456  -0.46544
 Alpha virt. eigenvalues --    0.11646   0.17318   0.19527   0.31886   0.48208
 Alpha virt. eigenvalues --    0.54509   0.58858   0.59622   0.69833   0.72593
 Alpha virt. eigenvalues --    0.73347   0.76949   0.81784   0.82672   0.84402

 Mulliken charges:
               1
     1  O   -0.562823
     2  H    0.297509
     3  H    0.234351
     4  O   -0.474118
     5  H    0.253761
     6  H    0.251320
 Sum of Mulliken charges =  -0.00000

 Dipole moment (field-independent basis, Debye):
    X=             -2.1958    Y=             -3.6709    Z=              0.0000  Tot=              4.2775
 Quadrupole moment (field-independent basis, Debye-Ang):
   XX=             -9.5838   YY=             -8.8205   ZZ=            -14.7160
   XY=             -3.1112   XZ=              0.0000   YZ=              0.0000

 Normal termination of Gaussian 16 at Fri Aug 26 21:34:54 2022.
