 Gaussian 16, Revision A.03,
 Gaussian 16:  ES64L-G16RevA.03 25-Dec-2016

 ------------------
 #p CCSD(T)/cc-pVTZ
 ------------------

 ------------
 H2O_H2O_2113
 ------------
 Symbolic Z-matrix:
 Charge =  0 Multiplicity = 1

                         Standard orientation:
 ---------------------------------------------------------------------
 Center     Atomic      Atomic             Coordinates (Angstroms)
 Number     Number       Type             X           Y           Z
 ---------------------------------------------------------------------
      1          8           0        0.052329    1.950086    0.000000
      2          1           0        0.050474    0.967486    0.000000
      3          1           0       -0.876561    2.270506    0.000000
      4          8           0        0.052329   -1.770230   -0.000000
      5          1           0        0.789864   -2.419498   -0.000000
      6          1           0       -0.801037   -2.257339   -0.000000
 ---------------------------------------------------------------------

 SCF Done:  E(RHF) =  -152.111882888     A.U. after   10 cycles
 E2 =    -0.5263395292D+00 EUMP2 =    -0.15263822241684D+03
 CCSD(T)
 CCSD(T)= -0.15266529797D+03

 The electronic state is 1-A'.
 Alpha  occ. eigenvalues --  -20.57257 -20.53806  -1.34509  -1.31156  -0.71897
 Alpha  occ. eigenvalues --   -0.68569  -0.58171  -0.54622  -0.51648  -0.48305
 Alpha virt. eigenvalues --    0.12216   0.16831   0.19223   0.25687   0.51819
 Alpha virt. eigenvalues --    0.55282   0.56338   0.58968   0.69015   0.72133
 Alpha virt. eigenvalues --    0.76576   0.77853   0.80594   0.83490   0.83916

 Mulliken charges:
               1
     1  O   -0.527135
     2  H    0.268686
     3  H    0.248546
     4  O   -0.508135
     5  H    0.261517
     6  H    0.256522
 Sum of Mulliken charges =  -0.00000

 Dipole moment (field-independent basis, Debye):
    X=             -1.7711    Y=             -3.3620    Z=             -0.0000  Tot=              3.8000
 Quadrupole moment (field-independent basis, Debye-Ang):
   XX=             -9.2307   YY=             -7.7958   ZZ=            -14.7270
   XY=             -4.0021   XZ=             -0.0000   YZ=              0.0000

 Normal termination of Gaussian 16 at Sun Aug 28 04:29:26 2022.
