 Gaussian 16, Revision A.03,
 Gaussian 16:  ES64L-G16RevA.03 25-Dec-2016

 ------------------
 #p CCSD(T)/cc-pVTZ
 ------------------

 ------------
 H2O_H2O_2759
 ------------
 Symbolic Z-matrix:
 Charge =  0 Multiplicity = 1

                         Standard orientation:
 ---------------------------------------------------------------------
 Center     Atomic      Atomic             Coordinates (Angstroms)
 Number     Number       Type             X           Y           Z
 ---------------------------------------------------------------------
      1          8           0        0.066766    2.205681    0.000000
      2          1           0        0.065717    1.223080    0.000000
      3          1           0       -0.862386    2.525339    0.000000
      4          8           0        0.066766   -2.032586   -0.000000
      5          1           0        0.611798   -2.850171   -0.000000
      6          1           0       -0.883389   -2.283008   -0.000000
 ---------------------------------------------------------------------

 SCF Done:  E(RHF) =  -152.109866533     A.U. after   10 cycles
 E2 =    -0.5260467896D+00 EUMP2 =    -0.15263591332273D+03
 CCSD(T)
 CCSD(T)= -0.15266304778D+03

 The electronic state is 1-A'.
 Alpha  occ. eigenvalues --  -20.56784 -20.54433  -1.34058  -1.31754  -0.71466
 Alpha  occ. eigenvalues --   -0.69139  -0.57600  -0.55231  -0.51185  -0.48886
 Alpha virt. eigenvalues --    0.12244   0.16060   0.19420   0.23230   0.53336
 Alpha virt. eigenvalues --    0.55497   0.56191   0.58752   0.68824   0.69545
 Alpha virt. eigenvalues --    0.77660   0.79056   0.79956   0.80032   0.83240

 Mulliken charges:
               1
     1  O   -0.518345
     2  H    0.264831
     3  H    0.249564
     4  O   -0.511168
     5  H    0.260060
     6  H    0.255058
 Sum of Mulliken charges =  -0.00000

 Dipole moment (field-independent basis, Debye):
    X=             -2.2720    Y=             -3.1401    Z=             -0.0000  Tot=              3.8759
 Quadrupole moment (field-independent basis, Debye-Ang):
   XX=             -9.5673   YY=             -7.5833   ZZ=            -14.7195
   XY=             -3.7996   XZ=             -0.0000   YZ=             -0.0000

 Normal termination of Gaussian 16 at Fri Aug 26 17:07:16 2022.
