 Gaussian 16, Revision A.03,
 Gaussian 16:  ES64L-G16RevA.03 25-Dec-2016

 ------------------
 #p CCSD(T)/cc-pVTZ
 ------------------

 -----------
 H2O_H2O_843
 -----------
 Symbolic Z-matrix:
 Charge =  0 Multiplicity = 1

                         Standard orientation:
 ---------------------------------------------------------------------
 Center     Atomic      Atomic             Coordinates (Angstroms)
 Number     Number       Type             X           Y           Z
 ---------------------------------------------------------------------
      1          8           0        0.033926    1.440204   -0.000000
      2          1           0        0.030210    0.457609   -0.000000
      3          1           0       -0.894356    1.762382   -0.000000
      4          8           0        0.033926   -1.262784    0.000000
      5          1           0        0.940303   -1.642239    0.000000
      6          1           0       -0.618966   -1.997112    0.000000
 ---------------------------------------------------------------------

 SCF Done:  E(RHF) =  -152.111491375     A.U. after   10 cycles
 E2 =    -0.5293669075D+00 EUMP2 =    -0.15264085828225D+03
 CCSD(T)
 CCSD(T)= -0.15266759207D+03

 The electronic state is 1-A'.
 Alpha  occ. eigenvalues --  -20.59193 -20.50863  -1.36896  -1.28738  -0.74077
 Alpha  occ. eigenvalues --   -0.68505  -0.59750  -0.53872  -0.51511  -0.45821
 Alpha virt. eigenvalues --    0.11756   0.18330   0.18904   0.32822   0.48133
 Alpha virt. eigenvalues --    0.54454   0.57341   0.63485   0.68519   0.72384
 Alpha virt. eigenvalues --    0.72491   0.77697   0.81738   0.83097   0.84453

 Mulliken charges:
               1
     1  O   -0.584561
     2  H    0.303117
     3  H    0.240847
     4  O   -0.476719
     5  H    0.264789
     6  H    0.252528
 Sum of Mulliken charges =  -0.00000

 Dipole moment (field-independent basis, Debye):
    X=             -1.1145    Y=             -3.8740    Z=              0.0000  Tot=              4.0311
 Quadrupole moment (field-independent basis, Debye-Ang):
   XX=             -9.1712   YY=             -8.9619   ZZ=            -14.7143
   XY=             -3.4244   XZ=              0.0000   YZ=              0.0000

 Normal termination of Gaussian 16 at Fri Aug 26 20:51:14 2022.
