 Gaussian 16, Revision A.03,
 Gaussian 16:  ES64L-G16RevA.03 25-Dec-2016

 ------------------
 #p CCSD(T)/cc-pVTZ
 ------------------

 ------------
 H2O_H2O_2069
 ------------
 Symbolic Z-matrix:
 Charge =  0 Multiplicity = 1

                         Standard orientation:
 ---------------------------------------------------------------------
 Center     Atomic      Atomic             Coordinates (Angstroms)
 Number     Number       Type             X           Y           Z
 ---------------------------------------------------------------------
      1          8           0        0.030237    1.927821   -0.000000
      2          1           0        0.027342    0.945224   -0.000000
      3          1           0       -0.898313    2.249224   -0.000000
      4          8           0        0.030237   -1.752247    0.000000
      5          1           0        0.959758   -2.070834    0.000000
      6          1           0       -0.572583   -2.528207    0.000000
 ---------------------------------------------------------------------

 SCF Done:  E(RHF) =  -152.112182541     A.U. after   10 cycles
 E2 =    -0.5263338243D+00 EUMP2 =    -0.15263851636547D+03
 CCSD(T)
 CCSD(T)= -0.15266558625D+03

 The electronic state is 1-A'.
 Alpha  occ. eigenvalues --  -20.57274 -20.53801  -1.34532  -1.31157  -0.71924
 Alpha  occ. eigenvalues --   -0.68586  -0.58214  -0.54624  -0.51671  -0.48311
 Alpha virt. eigenvalues --    0.12258   0.16946   0.19173   0.25966   0.52298
 Alpha virt. eigenvalues --    0.54900   0.56336   0.58864   0.69041   0.72364
 Alpha virt. eigenvalues --    0.76433   0.78046   0.80609   0.83488   0.84109

 Mulliken charges:
               1
     1  O   -0.530049
     2  H    0.268325
     3  H    0.251540
     4  O   -0.509536
     5  H    0.261598
     6  H    0.258121
 Sum of Mulliken charges =  -0.00000

 Dipole moment (field-independent basis, Debye):
    X=             -1.0257    Y=             -3.2893    Z=              0.0000  Tot=              3.4455
 Quadrupole moment (field-independent basis, Debye-Ang):
   XX=             -9.2306   YY=             -7.9190   ZZ=            -14.7281
   XY=             -4.5647   XZ=              0.0000   YZ=              0.0000

 Normal termination of Gaussian 16 at Sun Aug 28 04:06:28 2022.
