 Gaussian 16, Revision A.03,
 Gaussian 16:  ES64L-G16RevA.03 25-Dec-2016

 ------------------
 #p CCSD(T)/cc-pVTZ
 ------------------

 ------------
 H2O_H2O_1700
 ------------
 Symbolic Z-matrix:
 Charge =  0 Multiplicity = 1

                         Standard orientation:
 ---------------------------------------------------------------------
 Center     Atomic      Atomic             Coordinates (Angstroms)
 Number     Number       Type             X           Y           Z
 ---------------------------------------------------------------------
      1          8           0        0.092949   -1.764963    0.000000
      2          1           0        0.092949   -0.782362    0.000000
      3          1           0       -0.836544   -2.083630    0.000000
      4          8           0        0.092949    1.632176    0.000000
      5          1           0        0.092949    2.614777    0.000000
      6          1           0       -0.836544    1.313509    0.000000
 ---------------------------------------------------------------------

 SCF Done:  E(RHF) =  -152.108927386     A.U. after   10 cycles
 E2 =    -0.5272241080D+00 EUMP2 =    -0.15263615149432D+03
 CCSD(T)
 CCSD(T)= -0.15266326878D+03

 The electronic state is 1-A'.
 Alpha  occ. eigenvalues --  -20.57610 -20.54659  -1.34938  -1.31986  -0.72600
 Alpha  occ. eigenvalues --   -0.69229  -0.58428  -0.55381  -0.52008  -0.49088
 Alpha virt. eigenvalues --    0.11455   0.16211   0.20423   0.26778   0.50747
 Alpha virt. eigenvalues --    0.54732   0.57401   0.57740   0.67802   0.74173
 Alpha virt. eigenvalues --    0.74703   0.78077   0.80204   0.82212   0.83344

 Mulliken charges:
               1
     1  O   -0.517404
     2  H    0.269055
     3  H    0.241732
     4  O   -0.490266
     5  H    0.254547
     6  H    0.242336
 Sum of Mulliken charges =   0.00000

 Dipole moment (field-independent basis, Debye):
    X=             -3.1167    Y=              2.5356    Z=              0.0000  Tot=              4.0179
 Quadrupole moment (field-independent basis, Debye-Ang):
   XX=            -10.8913   YY=             -9.1437   ZZ=            -14.7121
   XY=              2.1255   XZ=              0.0000   YZ=              0.0000

 Normal termination of Gaussian 16 at Sun Aug 28 00:48:27 2022.
