 Gaussian 16, Revision A.03,
 Gaussian 16:  ES64L-G16RevA.03 25-Dec-2016

 ------------------
 #p CCSD(T)/cc-pVTZ
 ------------------

 ------------
 H2O_H2O_1410
 ------------
 Symbolic Z-matrix:
 Charge =  0 Multiplicity = 1

                         Standard orientation:
 ---------------------------------------------------------------------
 Center     Atomic      Atomic             Coordinates (Angstroms)
 Number     Number       Type             X           Y           Z
 ---------------------------------------------------------------------
      1          8           0        0.063279    1.668476   -0.000000
      2          1           0        0.061684    0.685876   -0.000000
      3          1           0       -0.865695    1.988651   -0.000000
      4          8           0        0.063279   -1.493030    0.000000
      5          1           0        0.660183   -2.273551    0.000000
      6          1           0       -0.868636   -1.804543    0.000000
 ---------------------------------------------------------------------

 SCF Done:  E(RHF) =  -152.113278659     A.U. after   10 cycles
 E2 =    -0.5274221782D+00 EUMP2 =    -0.15264070083753D+03
 CCSD(T)
 CCSD(T)= -0.15266769062D+03

 The electronic state is 1-A'.
 Alpha  occ. eigenvalues --  -20.58083 -20.52938  -1.35396  -1.30394  -0.72768
 Alpha  occ. eigenvalues --   -0.68081  -0.59150  -0.53703  -0.52509  -0.47531
 Alpha virt. eigenvalues --    0.11909   0.17302   0.19239   0.29343   0.49292
 Alpha virt. eigenvalues --    0.54996   0.56728   0.59134   0.69664   0.72691
 Alpha virt. eigenvalues --    0.73944   0.76623   0.81580   0.82834   0.84596

 Mulliken charges:
               1
     1  O   -0.540538
     2  H    0.280310
     3  H    0.242081
     4  O   -0.499745
     5  H    0.261909
     6  H    0.255984
 Sum of Mulliken charges =  -0.00000

 Dipole moment (field-independent basis, Debye):
    X=             -2.1141    Y=             -3.4719    Z=              0.0000  Tot=              4.0649
 Quadrupole moment (field-independent basis, Debye-Ang):
   XX=             -9.4733   YY=             -8.3935   ZZ=            -14.7315
   XY=             -3.3821   XZ=              0.0000   YZ=             -0.0000

 Normal termination of Gaussian 16 at Sat Aug 27 00:24:54 2022.
