 Gaussian 16, Revision A.03,
 Gaussian 16:  ES64L-G16RevA.03 25-Dec-2016

 ------------------
 #p CCSD(T)/cc-pVTZ
 ------------------

 ------------
 H2O_H2O_4312
 ------------
 Symbolic Z-matrix:
 Charge =  0 Multiplicity = 1

                         Standard orientation:
 ---------------------------------------------------------------------
 Center     Atomic      Atomic             Coordinates (Angstroms)
 Number     Number       Type             X           Y           Z
 ---------------------------------------------------------------------
      1          8           0        0.055968    2.827112    0.000000
      2          1           0        0.054822    1.844511    0.000000
      3          1           0       -0.873153    3.146862    0.000000
      4          8           0        0.055968   -2.648177   -0.000000
      5          1           0        0.749961   -3.343790   -0.000000
      6          1           0       -0.827118   -3.079067   -0.000000
 ---------------------------------------------------------------------

 SCF Done:  E(RHF) =  -152.108453242     A.U. after   10 cycles
 E2 =    -0.5258183406D+00 EUMP2 =    -0.15263427158218D+03
 CCSD(T)
 CCSD(T)= -0.15266146638D+03

 The electronic state is 1-A'.
 Alpha  occ. eigenvalues --  -20.56224 -20.54915  -1.33524  -1.32223  -0.70929
 Alpha  occ. eigenvalues --   -0.69622  -0.57019  -0.55693  -0.50643  -0.49346
 Alpha virt. eigenvalues --    0.13247   0.15008   0.19658   0.21126   0.53597
 Alpha virt. eigenvalues --    0.54873   0.56626   0.57805   0.66750   0.68878
 Alpha virt. eigenvalues --    0.78246   0.79509   0.79532   0.80042   0.82757

 Mulliken charges:
               1
     1  O   -0.513836
     2  H    0.260799
     3  H    0.252824
     4  O   -0.514628
     5  H    0.258725
     6  H    0.256116
 Sum of Mulliken charges =  -0.00000

 Dipole moment (field-independent basis, Debye):
    X=             -1.9183    Y=             -3.1469    Z=             -0.0000  Tot=              3.6855
 Quadrupole moment (field-independent basis, Debye-Ang):
   XX=             -9.2852   YY=             -6.4215   ZZ=            -14.7149
   XY=             -5.0268   XZ=             -0.0000   YZ=              0.0000

 Normal termination of Gaussian 16 at Sun Aug 28 01:47:37 2022.
