 Gaussian 16, Revision A.03,
 Gaussian 16:  ES64L-G16RevA.03 25-Dec-2016

 ------------------
 #p CCSD(T)/cc-pVTZ
 ------------------

 ------------
 H2O_H2O_2112
 ------------
 Symbolic Z-matrix:
 Charge =  0 Multiplicity = 1

                         Standard orientation:
 ---------------------------------------------------------------------
 Center     Atomic      Atomic             Coordinates (Angstroms)
 Number     Number       Type             X           Y           Z
 ---------------------------------------------------------------------
      1          8           0        0.056017    1.949552    0.000000
      2          1           0        0.054330    0.966952    0.000000
      3          1           0       -0.872927    2.269814    0.000000
      4          8           0        0.056017   -1.770678   -0.000000
      5          1           0        0.749628   -2.466674   -0.000000
      6          1           0       -0.827306   -2.201082   -0.000000
 ---------------------------------------------------------------------

 SCF Done:  E(RHF) =  -152.111774856     A.U. after   10 cycles
 E2 =    -0.5263525510D+00 EUMP2 =    -0.15263812740685D+03
 CCSD(T)
 CCSD(T)= -0.15266520458D+03

 The electronic state is 1-A'.
 Alpha  occ. eigenvalues --  -20.57258 -20.53834  -1.34511  -1.31183  -0.71902
 Alpha  occ. eigenvalues --   -0.68592  -0.58166  -0.54646  -0.51648  -0.48329
 Alpha virt. eigenvalues --    0.12188   0.16795   0.19244   0.25655   0.51816
 Alpha virt. eigenvalues --    0.55355   0.56272   0.58928   0.68987   0.72124
 Alpha virt. eigenvalues --    0.76573   0.77922   0.80574   0.83481   0.83891

 Mulliken charges:
               1
     1  O   -0.526470
     2  H    0.268582
     3  H    0.248099
     4  O   -0.507756
     5  H    0.261410
     6  H    0.256135
 Sum of Mulliken charges =  -0.00000

 Dipole moment (field-independent basis, Debye):
    X=             -1.8957    Y=             -3.3432    Z=             -0.0000  Tot=              3.8433
 Quadrupole moment (field-independent basis, Debye-Ang):
   XX=             -9.2927   YY=             -7.8180   ZZ=            -14.7266
   XY=             -3.8992   XZ=             -0.0000   YZ=             -0.0000

 Normal termination of Gaussian 16 at Sun Aug 28 04:28:26 2022.
