 Gaussian 16, Revision A.03,
 Gaussian 16:  ES64L-G16RevA.03 25-Dec-2016

 ------------------
 #p CCSD(T)/cc-pVTZ
 ------------------

 ------------
 H2O_H2O_1937
 ------------
 Symbolic Z-matrix:
 Charge =  0 Multiplicity = 1

                         Standard orientation:
 ---------------------------------------------------------------------
 Center     Atomic      Atomic             Coordinates (Angstroms)
 Number     Number       Type             X           Y           Z
 ---------------------------------------------------------------------
      1          8           0        0.056023    1.879745   -0.000000
      2          1           0        0.054271    0.897145   -0.000000
      3          1           0       -0.872900    2.200068   -0.000000
      4          8           0        0.056023   -1.700878    0.000000
      5          1           0        0.749588   -2.396921    0.000000
      6          1           0       -0.827328   -2.131223    0.000000
 ---------------------------------------------------------------------

 SCF Done:  E(RHF) =  -152.112307038     A.U. after   10 cycles
 E2 =    -0.5265142281D+00 EUMP2 =    -0.15263882126652D+03
 CCSD(T)
 CCSD(T)= -0.15266588124D+03

 The electronic state is 1-A'.
 Alpha  occ. eigenvalues --  -20.57427 -20.53645  -1.34680  -1.31009  -0.72064
 Alpha  occ. eigenvalues --   -0.68443  -0.58376  -0.54455  -0.51817  -0.48158
 Alpha virt. eigenvalues --    0.12140   0.16980   0.19196   0.26495   0.51256
 Alpha virt. eigenvalues --    0.55161   0.56307   0.58933   0.69037   0.72404
 Alpha virt. eigenvalues --    0.76030   0.77503   0.80786   0.83368   0.84237

 Mulliken charges:
               1
     1  O   -0.529107
     2  H    0.270028
     3  H    0.247251
     4  O   -0.506919
     5  H    0.262294
     6  H    0.256453
 Sum of Mulliken charges =  -0.00000

 Dipole moment (field-independent basis, Debye):
    X=             -1.8917    Y=             -3.3796    Z=              0.0000  Tot=              3.8730
 Quadrupole moment (field-independent basis, Debye-Ang):
   XX=             -9.2943   YY=             -7.9425   ZZ=            -14.7290
   XY=             -3.8085   XZ=              0.0000   YZ=             -0.0000

 Normal termination of Gaussian 16 at Sun Aug 28 02:54:56 2022.
