 Gaussian 16, Revision A.03,
 Gaussian 16:  ES64L-G16RevA.03 25-Dec-2016

 ------------------
 #p CCSD(T)/cc-pVTZ
 ------------------

 ------------
 H2O_H2O_1268
 ------------
 Symbolic Z-matrix:
 Charge =  0 Multiplicity = 1

                         Standard orientation:
 ---------------------------------------------------------------------
 Center     Atomic      Atomic             Coordinates (Angstroms)
 Number     Number       Type             X           Y           Z
 ---------------------------------------------------------------------
      1          8           0        0.033888    1.609740    0.000000
      2          1           0        0.030587    0.627144    0.000000
      3          1           0       -0.894529    1.931527    0.000000
      4          8           0        0.033888   -1.432291   -0.000000
      5          1           0        0.940425   -1.811364   -0.000000
      6          1           0       -0.618695   -2.166894   -0.000000
 ---------------------------------------------------------------------

 SCF Done:  E(RHF) =  -152.114214397     A.U. after   10 cycles
 E2 =    -0.5276636055D+00 EUMP2 =    -0.15264187800214D+03
 CCSD(T)
 CCSD(T)= -0.15266882105D+03

 The electronic state is 1-A'.
 Alpha  occ. eigenvalues --  -20.58302 -20.52415  -1.35659  -1.29948  -0.72984
 Alpha  occ. eigenvalues --   -0.67906  -0.59464  -0.53168  -0.52767  -0.47093
 Alpha virt. eigenvalues --    0.12036   0.18064   0.18781   0.30466   0.49514
 Alpha virt. eigenvalues --    0.54546   0.55870   0.60994   0.68627   0.72251
 Alpha virt. eigenvalues --    0.73429   0.77117   0.82002   0.82727   0.84782

 Mulliken charges:
               1
     1  O   -0.554334
     2  H    0.285094
     3  H    0.246837
     4  O   -0.500683
     5  H    0.265875
     6  H    0.257212
 Sum of Mulliken charges =  -0.00000

 Dipole moment (field-independent basis, Debye):
    X=             -1.1321    Y=             -3.5836    Z=             -0.0000  Tot=              3.7581
 Quadrupole moment (field-independent basis, Debye-Ang):
   XX=             -9.1839   YY=             -8.5072   ZZ=            -14.7336
   XY=             -3.7931   XZ=             -0.0000   YZ=              0.0000

 Normal termination of Gaussian 16 at Fri Aug 26 23:30:05 2022.
