 Gaussian 16, Revision A.03,
 Gaussian 16:  ES64L-G16RevA.03 25-Dec-2016

 ------------------
 #p CCSD(T)/cc-pVTZ
 ------------------

 -----------
 H2O_H2O_486
 -----------
 Symbolic Z-matrix:
 Charge =  0 Multiplicity = 1

                         Standard orientation:
 ---------------------------------------------------------------------
 Center     Atomic      Atomic             Coordinates (Angstroms)
 Number     Number       Type             X           Y           Z
 ---------------------------------------------------------------------
      1          8           0        0.059739    1.300534    0.000000
      2          1           0        0.057406    0.317935    0.000000
      3          1           0       -0.868995    1.621406    0.000000
      4          8           0        0.059739   -1.123220   -0.000000
      5          1           0        0.705858   -1.863516   -0.000000
      6          1           0       -0.850087   -1.494333   -0.000000
 ---------------------------------------------------------------------

 SCF Done:  E(RHF) =  -152.098451412     A.U. after   11 cycles
 E2 =    -0.5320609636D+00 EUMP2 =    -0.15263051237601D+03
 CCSD(T)
 CCSD(T)= -0.15265685877D+03

 The electronic state is 1-A'.
 Alpha  occ. eigenvalues --  -20.60293 -20.48828  -1.38853  -1.27325  -0.75676
 Alpha  occ. eigenvalues --   -0.71233  -0.58345  -0.55425  -0.49414  -0.44250
 Alpha virt. eigenvalues --    0.11170   0.17196   0.20089   0.33337   0.47826
 Alpha virt. eigenvalues --    0.53449   0.61272   0.62604   0.71426   0.72211
 Alpha virt. eigenvalues --    0.74152   0.78745   0.80506   0.83083   0.84082

 Mulliken charges:
               1
     1  O   -0.609675
     2  H    0.310964
     3  H    0.221618
     4  O   -0.422901
     5  H    0.252395
     6  H    0.247599
 Sum of Mulliken charges =  -0.00000

 Dipole moment (field-independent basis, Debye):
    X=             -1.9010    Y=             -4.2593    Z=             -0.0000  Tot=              4.6642
 Quadrupole moment (field-independent basis, Debye-Ang):
   XX=             -9.3566   YY=             -9.4347   ZZ=            -14.6661
   XY=             -2.9539   XZ=             -0.0000   YZ=             -0.0000

 Normal termination of Gaussian 16 at Fri Aug 26 18:35:26 2022.
