 Gaussian 16, Revision A.03,
 Gaussian 16:  ES64L-G16RevA.03 25-Dec-2016

 ------------------
 #p CCSD(T)/cc-pVTZ
 ------------------

 ------------
 H2O_H2O_1790
 ------------
 Symbolic Z-matrix:
 Charge =  0 Multiplicity = 1

                         Standard orientation:
 ---------------------------------------------------------------------
 Center     Atomic      Atomic             Coordinates (Angstroms)
 Number     Number       Type             X           Y           Z
 ---------------------------------------------------------------------
      1          8           0        0.044909    1.820722    0.000000
      2          1           0        0.042550    0.838123    0.000000
      3          1           0       -0.883816    2.141618    0.000000
      4          8           0        0.044909   -1.640372   -0.000000
      5          1           0        0.860600   -2.188236   -0.000000
      6          1           0       -0.737880   -2.234298   -0.000000
 ---------------------------------------------------------------------

 SCF Done:  E(RHF) =  -152.113076849     A.U. after   10 cycles
 E2 =    -0.5266504452D+00 EUMP2 =    -0.15263972729378D+03
 CCSD(T)
 CCSD(T)= -0.15266676641D+03

 The electronic state is 1-A'.
 Alpha  occ. eigenvalues --  -20.57584 -20.53391  -1.34839  -1.30777  -0.72207
 Alpha  occ. eigenvalues --   -0.68262  -0.58596  -0.54203  -0.51979  -0.47932
 Alpha virt. eigenvalues --    0.12167   0.17268   0.19075   0.27364   0.50973
 Alpha virt. eigenvalues --    0.54734   0.56336   0.59161   0.69061   0.72345
 Alpha virt. eigenvalues --    0.75493   0.77079   0.81040   0.83286   0.84586

 Mulliken charges:
               1
     1  O   -0.534138
     2  H    0.272012
     3  H    0.248119
     4  O   -0.507661
     5  H    0.263452
     6  H    0.258217
 Sum of Mulliken charges =  -0.00000

 Dipole moment (field-independent basis, Debye):
    X=             -1.5140    Y=             -3.4457    Z=             -0.0000  Tot=              3.7636
 Quadrupole moment (field-independent basis, Debye-Ang):
   XX=             -9.1611   YY=             -8.0283   ZZ=            -14.7324
   XY=             -3.9819   XZ=             -0.0000   YZ=              0.0000

 Normal termination of Gaussian 16 at Sun Aug 28 01:36:08 2022.
