 Gaussian 16, Revision A.03,
 Gaussian 16:  ES64L-G16RevA.03 25-Dec-2016

 ------------------
 #p CCSD(T)/cc-pVTZ
 ------------------

 ------------
 H2O_H2O_3777
 ------------
 Symbolic Z-matrix:
 Charge =  0 Multiplicity = 1

                         Standard orientation:
 ---------------------------------------------------------------------
 Center     Atomic      Atomic             Coordinates (Angstroms)
 Number     Number       Type             X           Y           Z
 ---------------------------------------------------------------------
      1          8           0        0.088230   -2.598899    0.000000
      2          1           0        0.088072   -1.616298    0.000000
      3          1           0       -0.841211   -2.917716    0.000000
      4          8           0        0.088230    2.454576    0.000000
      5          1           0        0.216329    3.428793    0.000000
      6          1           0       -0.874874    2.259804    0.000000
 ---------------------------------------------------------------------

 SCF Done:  E(RHF) =  -152.107980077     A.U. after   10 cycles
 E2 =    -0.5259102226D+00 EUMP2 =    -0.15263389029932D+03
 CCSD(T)
 CCSD(T)= -0.15266109042D+03

 The electronic state is 1-A'.
 Alpha  occ. eigenvalues --  -20.56370 -20.55153  -1.33669  -1.32456  -0.71087
 Alpha  occ. eigenvalues --   -0.69848  -0.57139  -0.55912  -0.50781  -0.49571
 Alpha virt. eigenvalues --    0.12238   0.15152   0.19059   0.22126   0.53192
 Alpha virt. eigenvalues --    0.54999   0.56476   0.57930   0.66779   0.68896
 Alpha virt. eigenvalues --    0.78121   0.78904   0.79295   0.81257   0.82491

 Mulliken charges:
               1
     1  O   -0.510635
     2  H    0.259026
     3  H    0.251175
     4  O   -0.511381
     5  H    0.259384
     6  H    0.252430
 Sum of Mulliken charges =  -0.00000

 Dipole moment (field-independent basis, Debye):
    X=             -3.0179    Y=              2.5526    Z=              0.0000  Tot=              3.9527
 Quadrupole moment (field-independent basis, Debye-Ang):
   XX=            -10.5536   YY=             -8.5720   ZZ=            -14.7129
   XY=              2.6305   XZ=              0.0000   YZ=              0.0000

 CCSD(T)=-152.6610904\RMSD=7.249e-09\PG=CS [SG(H4O2)]\\@
 Normal termination of Gaussian 16 at Fri Aug 26 23:36:55 2022.
