 Gaussian 16, Revision A.03,
 Gaussian 16:  ES64L-G16RevA.03 25-Dec-2016

 ------------------
 #p CCSD(T)/cc-pVTZ
 ------------------

 ------------
 H2O_H2O_3542
 ------------
 Symbolic Z-matrix:
 Charge =  0 Multiplicity = 1

                         Standard orientation:
 ---------------------------------------------------------------------
 Center     Atomic      Atomic             Coordinates (Angstroms)
 Number     Number       Type             X           Y           Z
 ---------------------------------------------------------------------
      1          8           0        0.037433    2.518007    0.000000
      2          1           0        0.035493    1.535408    0.000000
      3          1           0       -0.891429    2.838508   -0.000000
      4          8           0        0.037433   -2.339032    0.000000
      5          1           0        0.917842   -2.775365    0.000000
      6          1           0       -0.660841   -3.030349   -0.000000
 ---------------------------------------------------------------------

 SCF Done:  E(RHF) =  -152.109221979     A.U. after   10 cycles
 E2 =    -0.5258460852D+00 EUMP2 =    -0.15263506806386D+03
 CCSD(T)
 CCSD(T)= -0.15266223598D+03

 The electronic state is 1-A'.
 Alpha  occ. eigenvalues --  -20.56424 -20.54671  -1.33715  -1.31986  -0.71117
 Alpha  occ. eigenvalues --   -0.69385  -0.57237  -0.55469  -0.50840  -0.49117
 Alpha virt. eigenvalues --    0.12788   0.15516   0.19543   0.21797   0.53403
 Alpha virt. eigenvalues --    0.55124   0.56515   0.57989   0.66973   0.69315
 Alpha virt. eigenvalues --    0.78063   0.78992   0.79679   0.79721   0.83032

 Mulliken charges:
               1
     1  O   -0.517037
     2  H    0.262701
     3  H    0.253132
     4  O   -0.515962
     5  H    0.259343
     6  H    0.257823
 Sum of Mulliken charges =  -0.00000

 Dipole moment (field-independent basis, Debye):
    X=             -1.2801    Y=             -3.1825    Z=             -0.0000  Tot=              3.4303
 Quadrupole moment (field-independent basis, Debye-Ang):
   XX=             -9.1590   YY=             -6.8945   ZZ=            -14.7177
   XY=             -5.4937   XZ=             -0.0000   YZ=             -0.0000

 Normal termination of Gaussian 16 at Fri Aug 26 22:17:36 2022.
