 Gaussian 16, Revision A.03,
 Gaussian 16:  ES64L-G16RevA.03 25-Dec-2016

 ------------------
 #p CCSD(T)/cc-pVTZ
 ------------------

 ------------
 H2O_H2O_3996
 ------------
 Symbolic Z-matrix:
 Charge =  0 Multiplicity = 1

                         Standard orientation:
 ---------------------------------------------------------------------
 Center     Atomic      Atomic             Coordinates (Angstroms)
 Number     Number       Type             X           Y           Z
 ---------------------------------------------------------------------
      1          8           0       -0.023179    2.692847    0.000000
      2          1           0       -0.020910    1.710249    0.000000
      3          1           0        0.905575    3.013660    0.000000
      4          8           0       -0.023179   -2.522444    0.000000
      5          1           0       -0.986455   -2.716367    0.000000
      6          1           0        0.472660   -3.370766    0.000000
 ---------------------------------------------------------------------

 SCF Done:  E(RHF) =  -152.108781626     A.U. after   10 cycles
 E2 =    -0.5258096585D+00 EUMP2 =    -0.15263459128419D+03
 CCSD(T)
 CCSD(T)= -0.15266177685D+03

 The electronic state is 1-A'.
 Alpha  occ. eigenvalues --  -20.56285 -20.54890  -1.33585  -1.32201  -0.70989
 Alpha  occ. eigenvalues --   -0.69605  -0.57091  -0.55680  -0.50706  -0.49328
 Alpha virt. eigenvalues --    0.12975   0.15194   0.19462   0.21511   0.53356
 Alpha virt. eigenvalues --    0.55063   0.56611   0.57843   0.66682   0.69035
 Alpha virt. eigenvalues --    0.78186   0.79086   0.79521   0.80390   0.82812

 Mulliken charges:
               1
     1  O   -0.515684
     2  H    0.260905
     3  H    0.254353
     4  O   -0.515915
     5  H    0.258043
     6  H    0.258298
 Sum of Mulliken charges =   0.00000

 Dipole moment (field-independent basis, Debye):
    X=              0.7951    Y=             -3.0065    Z=              0.0000  Tot=              3.1099
 Quadrupole moment (field-independent basis, Debye-Ang):
   XX=             -9.3616   YY=             -7.0468   ZZ=            -14.7160
   XY=              6.6389   XZ=              0.0000   YZ=              0.0000

 Normal termination of Gaussian 16 at Sat Aug 27 00:54:09 2022.
