 Gaussian 16, Revision A.03,
 Gaussian 16:  ES64L-G16RevA.03 25-Dec-2016

 ------------------
 #p CCSD(T)/cc-pVTZ
 ------------------

 ------------
 H2O_H2O_2702
 ------------
 Symbolic Z-matrix:
 Charge =  0 Multiplicity = 1

                         Standard orientation:
 ---------------------------------------------------------------------
 Center     Atomic      Atomic             Coordinates (Angstroms)
 Number     Number       Type             X           Y           Z
 ---------------------------------------------------------------------
      1          8           0        0.088233   -2.170103    0.000000
      2          1           0        0.088042   -1.187502    0.000000
      3          1           0       -0.841198   -2.488950    0.000000
      4          8           0        0.088233    2.025787    0.000000
      5          1           0        0.216299    3.000006    0.000000
      6          1           0       -0.874865    1.830981    0.000000
 ---------------------------------------------------------------------

 SCF Done:  E(RHF) =  -152.108714260     A.U. after   10 cycles
 E2 =    -0.5261640748D+00 EUMP2 =    -0.15263487833521D+03
 CCSD(T)
 CCSD(T)= -0.15266203817D+03

 The electronic state is 1-A'.
 Alpha  occ. eigenvalues --  -20.56805 -20.54897  -1.34093  -1.32204  -0.71532
 Alpha  occ. eigenvalues --   -0.69576  -0.57582  -0.55658  -0.51204  -0.49322
 Alpha virt. eigenvalues --    0.11655   0.15812   0.19585   0.23542   0.54090
 Alpha virt. eigenvalues --    0.55127   0.56471   0.58127   0.68556   0.69724
 Alpha virt. eigenvalues --    0.77600   0.78766   0.79570   0.80682   0.82914

 Mulliken charges:
               1
     1  O   -0.513224
     2  H    0.262354
     3  H    0.248234
     4  O   -0.507158
     5  H    0.259484
     6  H    0.250309
 Sum of Mulliken charges =  -0.00000

 Dipole moment (field-independent basis, Debye):
    X=             -2.9981    Y=              2.6143    Z=              0.0000  Tot=              3.9778
 Quadrupole moment (field-independent basis, Debye-Ang):
   XX=            -10.5673   YY=             -8.6951   ZZ=            -14.7149
   XY=              2.5549   XZ=              0.0000   YZ=              0.0000

 Normal termination of Gaussian 16 at Fri Aug 26 16:40:54 2022.
