 Gaussian 16, Revision A.03,
 Gaussian 16:  ES64L-G16RevA.03 25-Dec-2016

 ------------------
 #p CCSD(T)/cc-pVTZ
 ------------------

 -----------
 H2O_H2O_235
 -----------
 Symbolic Z-matrix:
 Charge =  0 Multiplicity = 1

                         Standard orientation:
 ---------------------------------------------------------------------
 Center     Atomic      Atomic             Coordinates (Angstroms)
 Number     Number       Type             X           Y           Z
 ---------------------------------------------------------------------
      1          8           0        0.063339    1.199753   -0.000000
      2          1           0        0.061071    0.217154   -0.000000
      3          1           0       -0.865416    1.520564   -0.000000
      4          8           0        0.063339   -1.024394    0.000000
      5          1           0        0.659708   -1.805323    0.000000
      6          1           0       -0.868789   -1.335268   -0.000000
 ---------------------------------------------------------------------

 SCF Done:  E(RHF) =  -152.073479575     A.U. after   11 cycles
 E2 =    -0.5346005089D+00 EUMP2 =    -0.15260808008398D+03
 CCSD(T)
 CCSD(T)= -0.15263398371D+03

 The electronic state is 1-A'.
 Alpha  occ. eigenvalues --  -20.61279 -20.46610  -1.41288  -1.25931  -0.78085
 Alpha  occ. eigenvalues --   -0.74033  -0.57085  -0.56430  -0.47085  -0.42660
 Alpha virt. eigenvalues --    0.10713   0.16591   0.20817   0.32965   0.48141
 Alpha virt. eigenvalues --    0.52499   0.61412   0.63988   0.71667   0.71763
 Alpha virt. eigenvalues --    0.78106   0.79047   0.80672   0.83290   0.84741

 Mulliken charges:
               1
     1  O   -0.634239
     2  H    0.299089
     3  H    0.207596
     4  O   -0.359321
     5  H    0.243289
     6  H    0.243587
 Sum of Mulliken charges =  -0.00000

 Dipole moment (field-independent basis, Debye):
    X=             -1.9605    Y=             -4.6158    Z=              0.0000  Tot=              5.0149
 Quadrupole moment (field-independent basis, Debye-Ang):
   XX=             -9.4343   YY=             -9.8393   ZZ=            -14.6052
   XY=             -2.7597   XZ=              0.0000   YZ=             -0.0000

 Normal termination of Gaussian 16 at Fri Aug 26 16:48:34 2022.
