 Gaussian 16, Revision A.03,
 Gaussian 16:  ES64L-G16RevA.03 25-Dec-2016

 ------------------
 #p CCSD(T)/cc-pVTZ
 ------------------

 ------------
 H2O_H2O_3794
 ------------
 Symbolic Z-matrix:
 Charge =  0 Multiplicity = 1

                         Standard orientation:
 ---------------------------------------------------------------------
 Center     Atomic      Atomic             Coordinates (Angstroms)
 Number     Number       Type             X           Y           Z
 ---------------------------------------------------------------------
      1          8           0        0.030167    2.615906    0.000000
      2          1           0        0.028060    1.633307    0.000000
      3          1           0       -0.898641    2.936565   -0.000000
      4          8           0        0.030167   -2.440284    0.000000
      5          1           0        0.959942   -2.758126    0.000000
      6          1           0       -0.572031   -3.216727   -0.000000
 ---------------------------------------------------------------------

 SCF Done:  E(RHF) =  -152.108973170     A.U. after   10 cycles
 E2 =    -0.5258217911D+00 EUMP2 =    -0.15263479496134D+03
 CCSD(T)
 CCSD(T)= -0.15266197306D+03

 The electronic state is 1-A'.
 Alpha  occ. eigenvalues --  -20.56342 -20.54786  -1.33638  -1.32098  -0.71041
 Alpha  occ. eigenvalues --   -0.69501  -0.57151  -0.55580  -0.50761  -0.49227
 Alpha virt. eigenvalues --    0.12907   0.15334   0.19528   0.21586   0.53401
 Alpha virt. eigenvalues --    0.55074   0.56573   0.57879   0.66735   0.69189
 Alpha virt. eigenvalues --    0.78136   0.79010   0.79617   0.80044   0.82922

 Mulliken charges:
               1
     1  O   -0.516295
     2  H    0.261784
     3  H    0.253806
     4  O   -0.516124
     5  H    0.258704
     6  H    0.258124
 Sum of Mulliken charges =  -0.00000

 Dipole moment (field-independent basis, Debye):
    X=             -1.0331    Y=             -3.1085    Z=             -0.0000  Tot=              3.2757
 Quadrupole moment (field-independent basis, Debye-Ang):
   XX=             -9.2297   YY=             -6.8954   ZZ=            -14.7168
   XY=             -6.0600   XZ=             -0.0000   YZ=             -0.0000

 Normal termination of Gaussian 16 at Fri Aug 26 23:42:36 2022.
