 Gaussian 16, Revision A.03,
 Gaussian 16:  ES64L-G16RevA.03 25-Dec-2016

 ------------------
 #p CCSD(T)/cc-pVTZ
 ------------------

 ------------
 H2O_H2O_4990
 ------------
 Symbolic Z-matrix:
 Charge =  0 Multiplicity = 1

                         Standard orientation:
 ---------------------------------------------------------------------
 Center     Atomic      Atomic             Coordinates (Angstroms)
 Number     Number       Type             X           Y           Z
 ---------------------------------------------------------------------
      1          8           0        0.044817    3.097172    0.000000
      2          1           0        0.043459    2.114572    0.000000
      3          1           0       -0.884235    3.417123    0.000000
      4          8           0        0.044817   -2.916732   -0.000000
      5          1           0        0.861065   -3.463764   -0.000000
      6          1           0       -0.737367   -3.511455   -0.000000
 ---------------------------------------------------------------------

 SCF Done:  E(RHF) =  -152.108233413     A.U. after   10 cycles
 E2 =    -0.5258069149D+00 EUMP2 =    -0.15263404032838D+03
 CCSD(T)
 CCSD(T)= -0.15266124332D+03

 The electronic state is 1-A'.
 Alpha  occ. eigenvalues --  -20.56108 -20.55037  -1.33411  -1.32343  -0.70815
 Alpha  occ. eigenvalues --   -0.69745  -0.56896  -0.55811  -0.50528  -0.49464
 Alpha virt. eigenvalues --    0.13553   0.14757   0.19752   0.20879   0.53737
 Alpha virt. eigenvalues --    0.54795   0.56726   0.57760   0.67087   0.68489
 Alpha virt. eigenvalues --    0.78354   0.79396   0.79767   0.80534   0.82170

 Mulliken charges:
               1
     1  O   -0.513139
     2  H    0.259470
     3  H    0.253638
     4  O   -0.513744
     5  H    0.257559
     6  H    0.256215
 Sum of Mulliken charges =  -0.00000

 Dipole moment (field-independent basis, Debye):
    X=             -1.5388    Y=             -3.1561    Z=             -0.0000  Tot=              3.5113
 Quadrupole moment (field-independent basis, Debye-Ang):
   XX=             -9.1570   YY=             -5.8927   ZZ=            -14.7142
   XY=             -6.1129   XZ=             -0.0000   YZ=             -0.0000

 Normal termination of Gaussian 16 at Sun Aug 28 07:29:58 2022.
