 Gaussian 16, Revision A.03,
 Gaussian 16:  ES64L-G16RevA.03 25-Dec-2016

 ------------------
 #p CCSD(T)/cc-pVTZ
 ------------------

 -----------
 H2O_H2O_874
 -----------
 Symbolic Z-matrix:
 Charge =  0 Multiplicity = 1

                         Standard orientation:
 ---------------------------------------------------------------------
 Center     Atomic      Atomic             Coordinates (Angstroms)
 Number     Number       Type             X           Y           Z
 ---------------------------------------------------------------------
      1          8           0        0.013679   -1.440288    0.000000
      2          1           0        0.008726   -0.457699    0.000000
      3          1           0       -0.914196   -1.763635    0.000000
      4          8           0        0.013679    1.281081    0.000000
      5          1           0        0.996269    1.286033    0.000000
      6          1           0       -0.309668    2.208956    0.000000
 ---------------------------------------------------------------------

 SCF Done:  E(RHF) =  -152.109967761     A.U. after   10 cycles
 E2 =    -0.5293650576D+00 EUMP2 =    -0.15263933281818D+03
 CCSD(T)
 CCSD(T)= -0.15266612107D+03

 The electronic state is 1-A'.
 Alpha  occ. eigenvalues --  -20.58995 -20.51628  -1.36758  -1.29410  -0.74585
 Alpha  occ. eigenvalues --   -0.67861  -0.60073  -0.53679  -0.52245  -0.46509
 Alpha virt. eigenvalues --    0.11927   0.18176   0.19096   0.32752   0.48614
 Alpha virt. eigenvalues --    0.54140   0.56454   0.64790   0.68284   0.72251
 Alpha virt. eigenvalues --    0.74588   0.76252   0.80625   0.82981   0.84138

 Mulliken charges:
               1
     1  O   -0.580187
     2  H    0.291095
     3  H    0.249925
     4  O   -0.455591
     5  H    0.258625
     6  H    0.236133
 Sum of Mulliken charges =  -0.00000

 Dipole moment (field-independent basis, Debye):
    X=             -0.4656    Y=              3.4656    Z=              0.0000  Tot=              3.4967
 Quadrupole moment (field-independent basis, Debye-Ang):
   XX=             -9.6277   YY=             -8.9954   ZZ=            -14.7046
   XY=              3.8481   XZ=              0.0000   YZ=              0.0000

 Normal termination of Gaussian 16 at Fri Aug 26 21:03:47 2022.
