 Gaussian 16, Revision A.03,
 Gaussian 16:  ES64L-G16RevA.03 25-Dec-2016

 ------------------
 #p CCSD(T)/cc-pVTZ
 ------------------

 ------------
 H2O_H2O_2270
 ------------
 Symbolic Z-matrix:
 Charge =  0 Multiplicity = 1

                         Standard orientation:
 ---------------------------------------------------------------------
 Center     Atomic      Atomic             Coordinates (Angstroms)
 Number     Number       Type             X           Y           Z
 ---------------------------------------------------------------------
      1          8           0        0.026696    2.006308    0.000000
      2          1           0        0.023765    1.023711    0.000000
      3          1           0       -0.901842    2.327745    0.000000
      4          8           0        0.026696   -1.833107    0.000000
      5          1           0        0.975054   -2.090252    0.000000
      6          1           0       -0.524112   -2.646812    0.000000
 ---------------------------------------------------------------------

 SCF Done:  E(RHF) =  -152.111542879     A.U. after   10 cycles
 E2 =    -0.5261920532D+00 EUMP2 =    -0.15263773493216D+03
 CCSD(T)
 CCSD(T)= -0.15266482415D+03

 The electronic state is 1-A'.
 Alpha  occ. eigenvalues --  -20.57095 -20.54031  -1.34357  -1.31373  -0.71756
 Alpha  occ. eigenvalues --   -0.68787  -0.57992  -0.54855  -0.51494  -0.48524
 Alpha virt. eigenvalues --    0.12277   0.16694   0.19232   0.25109   0.52911
 Alpha virt. eigenvalues --    0.55214   0.56343   0.58701   0.68960   0.71750
 Alpha virt. eigenvalues --    0.76950   0.78606   0.80360   0.82768   0.83606

 Mulliken charges:
               1
     1  O   -0.527269
     2  H    0.266923
     3  H    0.252512
     4  O   -0.510782
     5  H    0.260756
     6  H    0.257861
 Sum of Mulliken charges =   0.00000

 Dipole moment (field-independent basis, Debye):
    X=             -0.9083    Y=             -3.2076    Z=              0.0000  Tot=              3.3337
 Quadrupole moment (field-independent basis, Debye-Ang):
   XX=             -9.2890   YY=             -7.8513   ZZ=            -14.7254
   XY=             -4.8574   XZ=              0.0000   YZ=              0.0000

 Normal termination of Gaussian 16 at Sun Aug 28 05:54:03 2022.
