 Gaussian 16, Revision A.03,
 Gaussian 16:  ES64L-G16RevA.03 25-Dec-2016

 ------------------
 #p CCSD(T)/cc-pVTZ
 ------------------

 ------------
 H2O_H2O_3826
 ------------
 Symbolic Z-matrix:
 Charge =  0 Multiplicity = 1

                         Standard orientation:
 ---------------------------------------------------------------------
 Center     Atomic      Atomic             Coordinates (Angstroms)
 Number     Number       Type             X           Y           Z
 ---------------------------------------------------------------------
      1          8           0        0.090684   -2.615795    0.000000
      2          1           0        0.090608   -1.633193    0.000000
      3          1           0       -0.838785   -2.934533    0.000000
      4          8           0        0.090684    2.477085    0.000000
      5          1           0        0.154874    3.457587    0.000000
      6          1           0       -0.857641    2.219818    0.000000
 ---------------------------------------------------------------------

 SCF Done:  E(RHF) =  -152.107847540     A.U. after   10 cycles
 E2 =    -0.5259140746D+00 EUMP2 =    -0.15263376161430D+03
 CCSD(T)
 CCSD(T)= -0.15266096583D+03

 The electronic state is 1-A'.
 Alpha  occ. eigenvalues --  -20.56358 -20.55220  -1.33658  -1.32523  -0.71077
 Alpha  occ. eigenvalues --   -0.69915  -0.57124  -0.55976  -0.50769  -0.49636
 Alpha virt. eigenvalues --    0.12161   0.15106   0.18960   0.22254   0.53170
 Alpha virt. eigenvalues --    0.54966   0.56482   0.57892   0.66781   0.68813
 Alpha virt. eigenvalues --    0.78132   0.79000   0.79234   0.81388   0.82400

 Mulliken charges:
               1
     1  O   -0.510051
     2  H    0.258471
     3  H    0.251237
     4  O   -0.510902
     5  H    0.259249
     6  H    0.251996
 Sum of Mulliken charges =   0.00000

 Dipole moment (field-independent basis, Debye):
    X=             -3.1024    Y=              2.4511    Z=              0.0000  Tot=              3.9539
 Quadrupole moment (field-independent basis, Debye-Ang):
   XX=            -10.7036   YY=             -8.8993   ZZ=            -14.7124
   XY=              2.3947   XZ=              0.0000   YZ=              0.0000

 Normal termination of Gaussian 16 at Fri Aug 26 23:54:21 2022.
