 Gaussian 16, Revision A.03,
 Gaussian 16:  ES64L-G16RevA.03 25-Dec-2016

 ------------------
 #p CCSD(T)/cc-pVTZ
 ------------------

 ------------
 H2O_H2O_3902
 ------------
 Symbolic Z-matrix:
 Charge =  0 Multiplicity = 1

                         Standard orientation:
 ---------------------------------------------------------------------
 Center     Atomic      Atomic             Coordinates (Angstroms)
 Number     Number       Type             X           Y           Z
 ---------------------------------------------------------------------
      1          8           0        0.088230   -2.648759    0.000000
      2          1           0        0.088075   -1.666158    0.000000
      3          1           0       -0.841212   -2.967573    0.000000
      4          8           0        0.088230    2.504436    0.000000
      5          1           0        0.216331    3.478651    0.000000
      6          1           0       -0.874875    2.309666    0.000000
 ---------------------------------------------------------------------

 SCF Done:  E(RHF) =  -152.107933119     A.U. after   10 cycles
 E2 =    -0.5258981523D+00 EUMP2 =    -0.15263383127090D+03
 CCSD(T)
 CCSD(T)= -0.15266103409D+03

 The electronic state is 1-A'.
 Alpha  occ. eigenvalues --  -20.56336 -20.55173  -1.33636  -1.32477  -0.71053
 Alpha  occ. eigenvalues --   -0.69869  -0.57105  -0.55933  -0.50748  -0.49592
 Alpha virt. eigenvalues --    0.12351   0.15079   0.19038   0.22009   0.53153
 Alpha virt. eigenvalues --    0.54990   0.56490   0.57888   0.66751   0.68840
 Alpha virt. eigenvalues --    0.78151   0.79035   0.79276   0.81273   0.82449

 Mulliken charges:
               1
     1  O   -0.510542
     2  H    0.258826
     3  H    0.251385
     4  O   -0.511459
     5  H    0.259224
     6  H    0.252565
 Sum of Mulliken charges =  -0.00000

 Dipole moment (field-independent basis, Debye):
    X=             -3.0195    Y=              2.5483    Z=              0.0000  Tot=              3.9511
 Quadrupole moment (field-independent basis, Debye-Ang):
   XX=            -10.5527   YY=             -8.5566   ZZ=            -14.7128
   XY=              2.6392   XZ=              0.0000   YZ=              0.0000

 CCSD(T)=-152.6610341\RMSD=7.220e-09\PG=CS [SG(H4O2)]\\@
 Normal termination of Gaussian 16 at Sat Aug 27 00:22:22 2022.
