 Gaussian 16, Revision A.03,
 Gaussian 16:  ES64L-G16RevA.03 25-Dec-2016

 ------------------
 #p CCSD(T)/cc-pVTZ
 ------------------

 ------------
 H2O_H2O_2406
 ------------
 Symbolic Z-matrix:
 Charge =  0 Multiplicity = 1

                         Standard orientation:
 ---------------------------------------------------------------------
 Center     Atomic      Atomic             Coordinates (Angstroms)
 Number     Number       Type             X           Y           Z
 ---------------------------------------------------------------------
      1          8           0        0.076765    2.060695   -0.000000
      2          1           0        0.076071    1.078094   -0.000000
      3          1           0       -0.852502    2.380018    0.000000
      4          8           0        0.076765   -1.897500   -0.000000
      5          1           0        0.452150   -2.805571   -0.000000
      6          1           0       -0.903966   -1.958099    0.000000
 ---------------------------------------------------------------------

 SCF Done:  E(RHF) =  -152.110024981     A.U. after   10 cycles
 E2 =    -0.5262461125D+00 EUMP2 =    -0.15263627109370D+03
 CCSD(T)
 CCSD(T)= -0.15266339121D+03

 The electronic state is 1-A'.
 Alpha  occ. eigenvalues --  -20.57005 -20.54415  -1.34278  -1.31737  -0.71702
 Alpha  occ. eigenvalues --   -0.69113  -0.57826  -0.55199  -0.51400  -0.48866
 Alpha virt. eigenvalues --    0.11955   0.16223   0.19499   0.24247   0.53162
 Alpha virt. eigenvalues --    0.55652   0.56181   0.58364   0.68766   0.71103
 Alpha virt. eigenvalues --    0.77212   0.79093   0.80029   0.81314   0.83278

 Mulliken charges:
               1
     1  O   -0.518574
     2  H    0.265471
     3  H    0.247521
     4  O   -0.507023
     5  H    0.259576
     6  H    0.253030
 Sum of Mulliken charges =  -0.00000

 Dipole moment (field-independent basis, Debye):
    X=             -2.6039    Y=             -2.9976    Z=              0.0000  Tot=              3.9706
 Quadrupole moment (field-independent basis, Debye-Ang):
   XX=             -9.9649   YY=             -8.0783   ZZ=            -14.7197
   XY=             -3.2306   XZ=             -0.0000   YZ=              0.0000

 Normal termination of Gaussian 16 at Sun Aug 28 07:05:24 2022.
