 Gaussian 16, Revision A.03,
 Gaussian 16:  ES64L-G16RevA.03 25-Dec-2016

 ------------------
 #p CCSD(T)/cc-pVTZ
 ------------------

 -----------
 H2O_H2O_895
 -----------
 Symbolic Z-matrix:
 Charge =  0 Multiplicity = 1

                         Standard orientation:
 ---------------------------------------------------------------------
 Center     Atomic      Atomic             Coordinates (Angstroms)
 Number     Number       Type             X           Y           Z
 ---------------------------------------------------------------------
      1          8           0        0.026799    1.457823   -0.000000
      2          1           0        0.022696    0.475230   -0.000000
      3          1           0       -0.901355    1.780368    0.000000
      4          8           0        0.026799   -1.284686   -0.000000
      5          1           0        0.974849   -1.542962   -0.000000
      6          1           0       -0.524980   -2.097733    0.000000
 ---------------------------------------------------------------------

 SCF Done:  E(RHF) =  -152.111877591     A.U. after   10 cycles
 E2 =    -0.5291143353D+00 EUMP2 =    -0.15264099192645D+03
 CCSD(T)
 CCSD(T)= -0.15266776826D+03

 The electronic state is 1-A'.
 Alpha  occ. eigenvalues --  -20.59032 -20.51237  -1.36690  -1.29040  -0.74041
 Alpha  occ. eigenvalues --   -0.68194  -0.59865  -0.53679  -0.51888  -0.46138
 Alpha virt. eigenvalues --    0.11846   0.18453   0.18754   0.32609   0.48405
 Alpha virt. eigenvalues --    0.54520   0.56762   0.63909   0.68276   0.72511
 Alpha virt. eigenvalues --    0.72941   0.77285   0.81559   0.83035   0.84352

 Mulliken charges:
               1
     1  O   -0.580375
     2  H    0.298001
     3  H    0.244456
     4  O   -0.473766
     5  H    0.263659
     6  H    0.248026
 Sum of Mulliken charges =  -0.00000

 Dipole moment (field-independent basis, Debye):
    X=             -0.8870    Y=             -3.7401    Z=              0.0000  Tot=              3.8439
 Quadrupole moment (field-independent basis, Debye-Ang):
   XX=             -9.2735   YY=             -8.9081   ZZ=            -14.7154
   XY=             -3.5708   XZ=             -0.0000   YZ=              0.0000

 Normal termination of Gaussian 16 at Fri Aug 26 21:11:38 2022.
