 Gaussian 16, Revision A.03,
 Gaussian 16:  ES64L-G16RevA.03 25-Dec-2016

 ------------------
 #p CCSD(T)/cc-pVTZ
 ------------------

 ------------
 H2O_H2O_4053
 ------------
 Symbolic Z-matrix:
 Charge =  0 Multiplicity = 1

                         Standard orientation:
 ---------------------------------------------------------------------
 Center     Atomic      Atomic             Coordinates (Angstroms)
 Number     Number       Type             X           Y           Z
 ---------------------------------------------------------------------
      1          8           0        0.085598   -2.711459    0.000000
      2          1           0        0.085361   -1.728857    0.000000
      3          1           0       -0.843818   -3.030349    0.000000
      4          8           0        0.085598    2.561855    0.000000
      5          1           0        0.277062    3.525622    0.000000
      6          1           0       -0.888172    2.430412    0.000000
 ---------------------------------------------------------------------

 SCF Done:  E(RHF) =  -152.107979323     A.U. after   10 cycles
 E2 =    -0.5258786868D+00 EUMP2 =    -0.15263385800996D+03
 CCSD(T)
 CCSD(T)= -0.15266106121D+03

 The electronic state is 1-A'.
 Alpha  occ. eigenvalues --  -20.56296 -20.55145  -1.33597  -1.32449  -0.71011
 Alpha  occ. eigenvalues --   -0.69843  -0.57069  -0.55907  -0.50710  -0.49565
 Alpha virt. eigenvalues --    0.12595   0.15009   0.19124   0.21733   0.53172
 Alpha virt. eigenvalues --    0.54980   0.56514   0.57850   0.66741   0.68810
 Alpha virt. eigenvalues --    0.78186   0.79150   0.79301   0.81120   0.82464

 Mulliken charges:
               1
     1  O   -0.510934
     2  H    0.259025
     3  H    0.251650
     4  O   -0.511948
     5  H    0.259077
     6  H    0.253131
 Sum of Mulliken charges =  -0.00000

 Dipole moment (field-independent basis, Debye):
    X=             -2.9311    Y=              2.6370    Z=              0.0000  Tot=              3.9427
 Quadrupole moment (field-independent basis, Debye-Ang):
   XX=            -10.3990   YY=             -8.2157   ZZ=            -14.7130
   XY=              2.8944   XZ=              0.0000   YZ=              0.0000

 52\MP4DQ=-152.6429697\MP4SDQ=-152.6460228\CCSD=-152.6454357\CCSD(T)=-1
 Normal termination of Gaussian 16 at Sat Aug 27 22:59:46 2022.
