 Gaussian 16, Revision A.03,
 Gaussian 16:  ES64L-G16RevA.03 25-Dec-2016

 ------------------
 #p CCSD(T)/cc-pVTZ
 ------------------

 ------------
 H2O_H2O_2272
 ------------
 Symbolic Z-matrix:
 Charge =  0 Multiplicity = 1

                         Standard orientation:
 ---------------------------------------------------------------------
 Center     Atomic      Atomic             Coordinates (Angstroms)
 Number     Number       Type             X           Y           Z
 ---------------------------------------------------------------------
      1          8           0       -0.019903    2.002986    0.000000
      2          1           0       -0.016672    1.020390    0.000000
      3          1           0        0.908537    2.324708    0.000000
      4          8           0       -0.019903   -1.835902    0.000000
      5          1           0       -0.993671   -1.967361    0.000000
      6          1           0        0.420252   -2.714407    0.000000
 ---------------------------------------------------------------------

 SCF Done:  E(RHF) =  -152.111372503     A.U. after   10 cycles
 E2 =    -0.5261927382D+00 EUMP2 =    -0.15263756524168D+03
 CCSD(T)
 CCSD(T)= -0.15266465898D+03

 The electronic state is 1-A'.
 Alpha  occ. eigenvalues --  -20.57077 -20.54139  -1.34347  -1.31478  -0.71757
 Alpha  occ. eigenvalues --   -0.68893  -0.57970  -0.54960  -0.51481  -0.48628
 Alpha virt. eigenvalues --    0.12231   0.16644   0.19241   0.25150   0.53326
 Alpha virt. eigenvalues --    0.55111   0.56179   0.58671   0.68817   0.71841
 Alpha virt. eigenvalues --    0.76944   0.78926   0.80272   0.82475   0.83602

 Mulliken charges:
               1
     1  O   -0.527136
     2  H    0.266192
     3  H    0.253601
     4  O   -0.511017
     5  H    0.260298
     6  H    0.258061
 Sum of Mulliken charges =  -0.00000

 Dipole moment (field-independent basis, Debye):
    X=              0.6803    Y=             -3.0911    Z=              0.0000  Tot=              3.1651
 Quadrupole moment (field-independent basis, Debye-Ang):
   XX=             -9.4477   YY=             -8.0151   ZZ=            -14.7246
   XY=              5.1115   XZ=              0.0000   YZ=              0.0000

 Normal termination of Gaussian 16 at Sun Aug 28 05:54:51 2022.
