 Gaussian 16, Revision A.03,
 Gaussian 16:  ES64L-G16RevA.03 25-Dec-2016

 ------------------
 #p CCSD(T)/cc-pVTZ
 ------------------

 ------------
 H2O_H2O_4537
 ------------
 Symbolic Z-matrix:
 Charge =  0 Multiplicity = 1

                         Standard orientation:
 ---------------------------------------------------------------------
 Center     Atomic      Atomic             Coordinates (Angstroms)
 Number     Number       Type             X           Y           Z
 ---------------------------------------------------------------------
      1          8           0        0.055965    2.916862   -0.000000
      2          1           0        0.054855    1.934261   -0.000000
      3          1           0       -0.873168    3.236578   -0.000000
      4          8           0        0.055965   -2.737922    0.000000
      5          1           0        0.749984   -3.433510    0.000000
      6          1           0       -0.827105   -3.168845    0.000000
 ---------------------------------------------------------------------

 SCF Done:  E(RHF) =  -152.108338821     A.U. after   10 cycles
 E2 =    -0.5258147187D+00 EUMP2 =    -0.15263415354012D+03
 CCSD(T)
 CCSD(T)= -0.15266135240D+03

 The electronic state is 1-A'.
 Alpha  occ. eigenvalues --  -20.56181 -20.54965  -1.33483  -1.32272  -0.70888
 Alpha  occ. eigenvalues --   -0.69672  -0.56973  -0.55741  -0.50601  -0.49394
 Alpha virt. eigenvalues --    0.13364   0.14903   0.19684   0.21025   0.53644
 Alpha virt. eigenvalues --    0.54846   0.56660   0.57789   0.66859   0.68729
 Alpha virt. eigenvalues --    0.78286   0.79463   0.79636   0.80224   0.82636

 Mulliken charges:
               1
     1  O   -0.513407
     2  H    0.260295
     3  H    0.252996
     4  O   -0.514215
     5  H    0.258372
     6  H    0.255958
 Sum of Mulliken charges =  -0.00000

 Dipole moment (field-independent basis, Debye):
    X=             -1.9194    Y=             -3.1403    Z=              0.0000  Tot=              3.6804
 Quadrupole moment (field-independent basis, Debye-Ang):
   XX=             -9.2851   YY=             -6.2794   ZZ=            -14.7146
   XY=             -5.1419   XZ=              0.0000   YZ=             -0.0000

 Normal termination of Gaussian 16 at Sun Aug 28 03:42:03 2022.
