 Gaussian 16, Revision A.03,
 Gaussian 16:  ES64L-G16RevA.03 25-Dec-2016

 ------------------
 #p CCSD(T)/cc-pVTZ
 ------------------

 ------------
 H2O_H2O_2697
 ------------
 Symbolic Z-matrix:
 Charge =  0 Multiplicity = 1

                         Standard orientation:
 ---------------------------------------------------------------------
 Center     Atomic      Atomic             Coordinates (Angstroms)
 Number     Number       Type             X           Y           Z
 ---------------------------------------------------------------------
      1          8           0       -0.019881    2.172513    0.000000
      2          1           0       -0.016911    1.189917    0.000000
      3          1           0        0.908645    2.493987    0.000000
      4          8           0       -0.019881   -2.005419    0.000000
      5          1           0       -0.993685   -2.136617    0.000000
      6          1           0        0.420039   -2.884041    0.000000
 ---------------------------------------------------------------------

 SCF Done:  E(RHF) =  -152.110398273     A.U. after   10 cycles
 E2 =    -0.5260021104D+00 EUMP2 =    -0.15263640038318D+03
 CCSD(T)
 CCSD(T)= -0.15266352577D+03

 The electronic state is 1-A'.
 Alpha  occ. eigenvalues --  -20.56789 -20.54425  -1.34067  -1.31750  -0.71473
 Alpha  occ. eigenvalues --   -0.69157  -0.57634  -0.55242  -0.51198  -0.48893
 Alpha virt. eigenvalues --    0.12277   0.16204   0.19282   0.23740   0.53688
 Alpha virt. eigenvalues --    0.55577   0.56344   0.58500   0.68816   0.69851
 Alpha virt. eigenvalues --    0.77609   0.79112   0.79951   0.80536   0.83393

 Mulliken charges:
               1
     1  O   -0.522666
     2  H    0.264510
     3  H    0.254006
     4  O   -0.513559
     5  H    0.259402
     6  H    0.258308
 Sum of Mulliken charges =   0.00000

 Dipole moment (field-independent basis, Debye):
    X=              0.6805    Y=             -3.0353    Z=              0.0000  Tot=              3.1107
 Quadrupole moment (field-independent basis, Debye-Ang):
   XX=             -9.4469   YY=             -7.8117   ZZ=            -14.7213
   XY=              5.5395   XZ=              0.0000   YZ=              0.0000

 Normal termination of Gaussian 16 at Fri Aug 26 16:38:36 2022.
