 Gaussian 16, Revision A.03,
 Gaussian 16:  ES64L-G16RevA.03 25-Dec-2016

 ------------------
 #p CCSD(T)/cc-pVTZ
 ------------------

 -----------
 H2O_H2O_869
 -----------
 Symbolic Z-matrix:
 Charge =  0 Multiplicity = 1

                         Standard orientation:
 ---------------------------------------------------------------------
 Center     Atomic      Atomic             Coordinates (Angstroms)
 Number     Number       Type             X           Y           Z
 ---------------------------------------------------------------------
      1          8           0        0.030328    1.449140   -0.000000
      2          1           0        0.026415    0.466546   -0.000000
      3          1           0       -0.897889    1.771505   -0.000000
      4          8           0        0.030328   -1.273628    0.000000
      5          1           0        0.959518   -1.593178    0.000000
      6          1           0       -0.573295   -2.048964    0.000000
 ---------------------------------------------------------------------

 SCF Done:  E(RHF) =  -152.111732073     A.U. after   10 cycles
 E2 =    -0.5292354097D+00 EUMP2 =    -0.15264096748323D+03
 CCSD(T)
 CCSD(T)= -0.15266772258D+03

 The electronic state is 1-A'.
 Alpha  occ. eigenvalues --  -20.59113 -20.51043  -1.36791  -1.28882  -0.74054
 Alpha  occ. eigenvalues --   -0.68341  -0.59813  -0.53775  -0.51693  -0.45973
 Alpha virt. eigenvalues --    0.11802   0.18415   0.18807   0.32723   0.48264
 Alpha virt. eigenvalues --    0.54496   0.57025   0.63745   0.68349   0.72503
 Alpha virt. eigenvalues --    0.72629   0.77511   0.81649   0.83087   0.84405

 Mulliken charges:
               1
     1  O   -0.582547
     2  H    0.300618
     3  H    0.242662
     4  O   -0.475596
     5  H    0.264324
     6  H    0.250540
 Sum of Mulliken charges =  -0.00000

 Dipole moment (field-independent basis, Debye):
    X=             -0.9997    Y=             -3.8116    Z=              0.0000  Tot=              3.9405
 Quadrupole moment (field-independent basis, Debye-Ang):
   XX=             -9.2145   YY=             -8.9328   ZZ=            -14.7151
   XY=             -3.4932   XZ=              0.0000   YZ=              0.0000

 Normal termination of Gaussian 16 at Fri Aug 26 21:01:06 2022.
