 Gaussian 16, Revision A.03,
 Gaussian 16:  ES64L-G16RevA.03 25-Dec-2016

 ------------------
 #p CCSD(T)/cc-pVTZ
 ------------------

 ------------
 H2O_H2O_3131
 ------------
 Symbolic Z-matrix:
 Charge =  0 Multiplicity = 1

                         Standard orientation:
 ---------------------------------------------------------------------
 Center     Atomic      Atomic             Coordinates (Angstroms)
 Number     Number       Type             X           Y           Z
 ---------------------------------------------------------------------
      1          8           0        0.076758    2.349888    0.000000
      2          1           0        0.076152    1.367287    0.000000
      3          1           0       -0.852538    2.669127    0.000000
      4          8           0        0.076758   -2.186679    0.000000
      5          1           0        0.452225   -3.094717    0.000000
      6          1           0       -0.903968   -2.247367    0.000000
 ---------------------------------------------------------------------

 SCF Done:  E(RHF) =  -152.108942602     A.U. after   10 cycles
 E2 =    -0.5259751425D+00 EUMP2 =    -0.15263491774435D+03
 CCSD(T)
 CCSD(T)= -0.15266208216D+03

 The electronic state is 1-A'.
 Alpha  occ. eigenvalues --  -20.56594 -20.54753  -1.33882  -1.32065  -0.71297
 Alpha  occ. eigenvalues --   -0.69451  -0.57385  -0.55534  -0.51001  -0.49189
 Alpha virt. eigenvalues --    0.12194   0.15670   0.19408   0.22465   0.53677
 Alpha virt. eigenvalues --    0.55100   0.56361   0.58343   0.67689   0.69266
 Alpha virt. eigenvalues --    0.77900   0.78709   0.79660   0.80450   0.82905

 Mulliken charges:
               1
     1  O   -0.514432
     2  H    0.262358
     3  H    0.250090
     4  O   -0.511863
     5  H    0.259966
     6  H    0.253882
 Sum of Mulliken charges =  -0.00000

 Dipole moment (field-independent basis, Debye):
    X=             -2.6175    Y=             -2.9258    Z=             -0.0000  Tot=              3.9258
 Quadrupole moment (field-independent basis, Debye-Ang):
   XX=             -9.9555   YY=             -7.7886   ZZ=            -14.7164
   XY=             -3.3957   XZ=             -0.0000   YZ=             -0.0000

 Normal termination of Gaussian 16 at Fri Aug 26 19:56:30 2022.
