 Gaussian 16, Revision A.03,
 Gaussian 16:  ES64L-G16RevA.03 25-Dec-2016

 ------------------
 #p CCSD(T)/cc-pVTZ
 ------------------

 ------------
 H2O_H2O_3510
 ------------
 Symbolic Z-matrix:
 Charge =  0 Multiplicity = 1

                         Standard orientation:
 ---------------------------------------------------------------------
 Center     Atomic      Atomic             Coordinates (Angstroms)
 Number     Number       Type             X           Y           Z
 ---------------------------------------------------------------------
      1          8           0        0.063230    2.506153    0.000000
      2          1           0        0.062187    1.523553    0.000000
      3          1           0       -0.865924    2.825806   -0.000000
      4          8           0        0.063230   -2.330637    0.000000
      5          1           0        0.660573   -3.110821    0.000000
      6          1           0       -0.868511   -2.642672   -0.000000
 ---------------------------------------------------------------------

 SCF Done:  E(RHF) =  -152.108951175     A.U. after   10 cycles
 E2 =    -0.5258801016D+00 EUMP2 =    -0.15263483127646D+03
 CCSD(T)
 CCSD(T)= -0.15266200367D+03

 The electronic state is 1-A'.
 Alpha  occ. eigenvalues --  -20.56444 -20.54723  -1.33735  -1.32035  -0.71141
 Alpha  occ. eigenvalues --   -0.69428  -0.57244  -0.55510  -0.50857  -0.49161
 Alpha virt. eigenvalues --    0.12669   0.15478   0.19512   0.21790   0.53394
 Alpha virt. eigenvalues --    0.55076   0.56451   0.58060   0.66993   0.69297
 Alpha virt. eigenvalues --    0.78048   0.78860   0.79682   0.79891   0.82968

 Mulliken charges:
               1
     1  O   -0.515181
     2  H    0.262412
     3  H    0.251555
     4  O   -0.514463
     5  H    0.259890
     6  H    0.255786
 Sum of Mulliken charges =  -0.00000

 Dipole moment (field-independent basis, Debye):
    X=             -2.1608    Y=             -3.1228    Z=             -0.0000  Tot=              3.7975
 Quadrupole moment (field-independent basis, Debye-Ang):
   XX=             -9.4559   YY=             -7.0707   ZZ=            -14.7167
   XY=             -4.2588   XZ=             -0.0000   YZ=             -0.0000

 Normal termination of Gaussian 16 at Fri Aug 26 22:07:00 2022.
