 Gaussian 16, Revision A.03,
 Gaussian 16:  ES64L-G16RevA.03 25-Dec-2016

 ------------------
 #p CCSD(T)/cc-pVTZ
 ------------------

 ------------
 H2O_H2O_2486
 ------------
 Symbolic Z-matrix:
 Charge =  0 Multiplicity = 1

                         Standard orientation:
 ---------------------------------------------------------------------
 Center     Atomic      Atomic             Coordinates (Angstroms)
 Number     Number       Type             X           Y           Z
 ---------------------------------------------------------------------
      1          8           0        0.059655    2.098343    0.000000
      2          1           0        0.058248    1.115743    0.000000
      3          1           0       -0.869381    2.418340    0.000000
      4          8           0        0.059655   -1.920917   -0.000000
      5          1           0        0.706471   -2.660603   -0.000000
      6          1           0       -0.849820   -2.292887   -0.000000
 ---------------------------------------------------------------------

 SCF Done:  E(RHF) =  -152.110667542     A.U. after   10 cycles
 E2 =    -0.5261336783D+00 EUMP2 =    -0.15263680121998D+03
 CCSD(T)
 CCSD(T)= -0.15266391173D+03

 The electronic state is 1-A'.
 Alpha  occ. eigenvalues --  -20.56959 -20.54182  -1.34222  -1.31511  -0.71623
 Alpha  occ. eigenvalues --   -0.68900  -0.57805  -0.54990  -0.51355  -0.48651
 Alpha virt. eigenvalues --    0.12253   0.16378   0.19353   0.24114   0.52759
 Alpha virt. eigenvalues --    0.55687   0.56108   0.58948   0.68964   0.70692
 Alpha virt. eigenvalues --    0.77349   0.78721   0.80200   0.81004   0.83588

 Mulliken charges:
               1
     1  O   -0.521714
     2  H    0.266465
     3  H    0.249209
     4  O   -0.509980
     5  H    0.260332
     6  H    0.255689
 Sum of Mulliken charges =  -0.00000

 Dipole moment (field-independent basis, Debye):
    X=             -2.0262    Y=             -3.2543    Z=             -0.0000  Tot=              3.8335
 Quadrupole moment (field-independent basis, Debye-Ang):
   XX=             -9.3679   YY=             -7.6076   ZZ=            -14.7222
   XY=             -3.9664   XZ=             -0.0000   YZ=             -0.0000

 Normal termination of Gaussian 16 at Sun Aug 28 07:40:38 2022.
