 Gaussian 16, Revision A.03,
 Gaussian 16:  ES64L-G16RevA.03 25-Dec-2016

 ------------------
 #p CCSD(T)/cc-pVTZ
 ------------------

 ------------
 H2O_H2O_4786
 ------------
 Symbolic Z-matrix:
 Charge =  0 Multiplicity = 1

                         Standard orientation:
 ---------------------------------------------------------------------
 Center     Atomic      Atomic             Coordinates (Angstroms)
 Number     Number       Type             X           Y           Z
 ---------------------------------------------------------------------
      1          8           0        0.059615    3.015787   -0.000000
      2          1           0        0.058649    2.033186   -0.000000
      3          1           0       -0.869564    3.335367    0.000000
      4          8           0        0.059615   -2.838308   -0.000000
      5          1           0        0.706763   -3.577703   -0.000000
      6          1           0       -0.849693   -3.210685    0.000000
 ---------------------------------------------------------------------

 SCF Done:  E(RHF) =  -152.108200159     A.U. after   10 cycles
 E2 =    -0.5258167975D+00 EUMP2 =    -0.15263401695694D+03
 CCSD(T)
 CCSD(T)= -0.15266121989D+03

 The electronic state is 1-A'.
 Alpha  occ. eigenvalues --  -20.56142 -20.55028  -1.33444  -1.32334  -0.70850
 Alpha  occ. eigenvalues --   -0.69735  -0.56928  -0.55800  -0.50561  -0.49455
 Alpha virt. eigenvalues --    0.13458   0.14793   0.19694   0.20932   0.53677
 Alpha virt. eigenvalues --    0.54814   0.56688   0.57759   0.66996   0.68571
 Alpha virt. eigenvalues --    0.78324   0.79406   0.79693   0.80462   0.82352

 Mulliken charges:
               1
     1  O   -0.512781
     2  H    0.259679
     3  H    0.253047
     4  O   -0.513557
     5  H    0.258042
     6  H    0.255571
 Sum of Mulliken charges =  -0.00000

 Dipole moment (field-independent basis, Debye):
    X=             -2.0458    Y=             -3.1086    Z=             -0.0000  Tot=              3.7214
 Quadrupole moment (field-independent basis, Debye-Ang):
   XX=             -9.3615   YY=             -6.2121   ZZ=            -14.7141
   XY=             -5.0287   XZ=             -0.0000   YZ=              0.0000

 Normal termination of Gaussian 16 at Sun Aug 28 05:53:08 2022.
