 Gaussian 16, Revision A.03,
 Gaussian 16:  ES64L-G16RevA.03 25-Dec-2016

 ------------------
 #p CCSD(T)/cc-pVTZ
 ------------------

 ------------
 H2O_H2O_3731
 ------------
 Symbolic Z-matrix:
 Charge =  0 Multiplicity = 1

                         Standard orientation:
 ---------------------------------------------------------------------
 Center     Atomic      Atomic             Coordinates (Angstroms)
 Number     Number       Type             X           Y           Z
 ---------------------------------------------------------------------
      1          8           0        0.076753    2.589219    0.000000
      2          1           0        0.076205    1.606618    0.000000
      3          1           0       -0.852562    2.908404    0.000000
      4          8           0        0.076753   -2.426001   -0.000000
      5          1           0        0.452273   -3.334016   -0.000000
      6          1           0       -0.903969   -2.486746   -0.000000
 ---------------------------------------------------------------------

 SCF Done:  E(RHF) =  -152.108424866     A.U. after   10 cycles
 E2 =    -0.5258828573D+00 EUMP2 =    -0.15263430772304D+03
 CCSD(T)
 CCSD(T)= -0.15266149603D+03

 The electronic state is 1-A'.
 Alpha  occ. eigenvalues --  -20.56376 -20.54935  -1.33673  -1.32243  -0.71085
 Alpha  occ. eigenvalues --   -0.69635  -0.57161  -0.55709  -0.50790  -0.49363
 Alpha virt. eigenvalues --    0.12587   0.15256   0.19358   0.21710   0.53276
 Alpha virt. eigenvalues --    0.55051   0.56478   0.57965   0.66769   0.69108
 Alpha virt. eigenvalues --    0.78111   0.78811   0.79492   0.80601   0.82748

 Mulliken charges:
               1
     1  O   -0.512793
     2  H    0.260759
     3  H    0.251368
     4  O   -0.513220
     5  H    0.259634
     6  H    0.254253
 Sum of Mulliken charges =  -0.00000

 Dipole moment (field-independent basis, Debye):
    X=             -2.6251    Y=             -2.8911    Z=             -0.0000  Tot=              3.9050
 Quadrupole moment (field-independent basis, Debye-Ang):
   XX=             -9.9510   YY=             -7.5531   ZZ=            -14.7147
   XY=             -3.5318   XZ=             -0.0000   YZ=             -0.0000

 CCSD(T)=-152.661496\RMSD=7.170e-09\PG=CS [SG(H4O2)]\\@
 Normal termination of Gaussian 16 at Fri Aug 26 23:21:38 2022.
