 Gaussian 16, Revision A.03,
 Gaussian 16:  ES64L-G16RevA.03 25-Dec-2016

 ------------------
 #p CCSD(T)/cc-pVTZ
 ------------------

 -----------
 H2O_H2O_428
 -----------
 Symbolic Z-matrix:
 Charge =  0 Multiplicity = 1

                         Standard orientation:
 ---------------------------------------------------------------------
 Center     Atomic      Atomic             Coordinates (Angstroms)
 Number     Number       Type             X           Y           Z
 ---------------------------------------------------------------------
      1          8           0        0.085620   -1.265504    0.000000
      2          1           0        0.085096   -0.282903    0.000000
      3          1           0       -0.843703   -1.584665    0.000000
      4          8           0        0.085620    1.115950    0.000000
      5          1           0        0.276803    2.079773    0.000000
      6          1           0       -0.888112    0.984222    0.000000
 ---------------------------------------------------------------------

 SCF Done:  E(RHF) =  -152.087242785     A.U. after   11 cycles
 E2 =    -0.5338252408D+00 EUMP2 =    -0.15262106802600D+03
 CCSD(T)
 CCSD(T)= -0.15264741271D+03

 The electronic state is 1-A'.
 Alpha  occ. eigenvalues --  -20.60323 -20.50059  -1.39456  -1.28400  -0.78239
 Alpha  occ. eigenvalues --   -0.69140  -0.58836  -0.55585  -0.50763  -0.45330
 Alpha virt. eigenvalues --    0.11087   0.16406   0.20893   0.32574   0.48805
 Alpha virt. eigenvalues --    0.52168   0.59240   0.64969   0.71678   0.72268
 Alpha virt. eigenvalues --    0.74299   0.77514   0.78953   0.83262   0.84510

 Mulliken charges:
               1
     1  O   -0.581306
     2  H    0.287447
     3  H    0.211671
     4  O   -0.379621
     5  H    0.229545
     6  H    0.232263
 Sum of Mulliken charges =   0.00000

 Dipole moment (field-independent basis, Debye):
    X=             -2.7266    Y=              3.7040    Z=              0.0000  Tot=              4.5993
 Quadrupole moment (field-independent basis, Debye-Ang):
   XX=            -10.4200   YY=             -9.4557   ZZ=            -14.6255
   XY=              2.3864   XZ=              0.0000   YZ=              0.0000

 Normal termination of Gaussian 16 at Fri Aug 26 18:11:56 2022.
