 Gaussian 16, Revision A.03,
 Gaussian 16:  ES64L-G16RevA.03 25-Dec-2016

 ------------------
 #p CCSD(T)/cc-pVTZ
 ------------------

 ------------
 H2O_H2O_1939
 ------------
 Symbolic Z-matrix:
 Charge =  0 Multiplicity = 1

                         Standard orientation:
 ---------------------------------------------------------------------
 Center     Atomic      Atomic             Coordinates (Angstroms)
 Number     Number       Type             X           Y           Z
 ---------------------------------------------------------------------
      1          8           0        0.048623    1.880549   -0.000000
      2          1           0        0.046520    0.897950   -0.000000
      3          1           0       -0.880186    2.201205    0.000000
      4          8           0        0.048623   -1.700204   -0.000000
      5          1           0        0.826891   -2.300042   -0.000000
      6          1           0       -0.771194   -2.241875    0.000000
 ---------------------------------------------------------------------

 SCF Done:  E(RHF) =  -152.112520122     A.U. after   10 cycles
 E2 =    -0.5264868122D+00 EUMP2 =    -0.15263900693430D+03
 CCSD(T)
 CCSD(T)= -0.15266606387D+03

 The electronic state is 1-A'.
 Alpha  occ. eigenvalues --  -20.57425 -20.53595  -1.34675  -1.30962  -0.72053
 Alpha  occ. eigenvalues --   -0.68404  -0.58386  -0.54411  -0.51815  -0.48114
 Alpha virt. eigenvalues --    0.12191   0.17060   0.19147   0.26558   0.51353
 Alpha virt. eigenvalues --    0.54992   0.56388   0.59013   0.69060   0.72373
 Alpha virt. eigenvalues --    0.76038   0.77385   0.80822   0.83386   0.84374

 Mulliken charges:
               1
     1  O   -0.530530
     2  H    0.270191
     3  H    0.248273
     4  O   -0.507734
     5  H    0.262487
     6  H    0.257313
 Sum of Mulliken charges =  -0.00000

 Dipole moment (field-independent basis, Debye):
    X=             -1.6423    Y=             -3.4083    Z=             -0.0000  Tot=              3.7834
 Quadrupole moment (field-independent basis, Debye-Ang):
   XX=             -9.1873   YY=             -7.9135   ZZ=            -14.7299
   XY=             -3.9936   XZ=             -0.0000   YZ=             -0.0000

 Normal termination of Gaussian 16 at Sun Aug 28 02:55:40 2022.
