 Gaussian 16, Revision A.03,
 Gaussian 16:  ES64L-G16RevA.03 25-Dec-2016

 ------------------
 #p CCSD(T)/cc-pVTZ
 ------------------

 -----------
 H2O_H2O_492
 -----------
 Symbolic Z-matrix:
 Charge =  0 Multiplicity = 1

                         Standard orientation:
 ---------------------------------------------------------------------
 Center     Atomic      Atomic             Coordinates (Angstroms)
 Number     Number       Type             X           Y           Z
 ---------------------------------------------------------------------
      1          8           0        0.037611    1.301362    0.000000
      2          1           0        0.033723    0.318768    0.000000
      3          1           0       -0.890615    1.623703   -0.000000
      4          8           0        0.037611   -1.122536    0.000000
      5          1           0        0.917154   -1.560612    0.000000
      6          1           0       -0.662032   -1.812467   -0.000000
 ---------------------------------------------------------------------

 SCF Done:  E(RHF) =  -152.099329927     A.U. after   11 cycles
 E2 =    -0.5317513904D+00 EUMP2 =    -0.15263108131762D+03
 CCSD(T)
 CCSD(T)= -0.15265742300D+03

 The electronic state is 1-A'.
 Alpha  occ. eigenvalues --  -20.60261 -20.48574  -1.38812  -1.27123  -0.75519
 Alpha  occ. eigenvalues --   -0.71256  -0.58469  -0.55409  -0.49105  -0.44058
 Alpha virt. eigenvalues --    0.11285   0.17724   0.19781   0.33712   0.47252
 Alpha virt. eigenvalues --    0.53588   0.60313   0.65824   0.69446   0.72246
 Alpha virt. eigenvalues --    0.74321   0.78569   0.80752   0.82953   0.83894

 Mulliken charges:
               1
     1  O   -0.619932
     2  H    0.310979
     3  H    0.229429
     4  O   -0.430007
     5  H    0.261753
     6  H    0.247778
 Sum of Mulliken charges =  -0.00000

 Dipole moment (field-independent basis, Debye):
    X=             -1.2026    Y=             -4.3047    Z=             -0.0000  Tot=              4.4695
 Quadrupole moment (field-independent basis, Debye-Ang):
   XX=             -9.1256   YY=             -9.4553   ZZ=            -14.6710
   XY=             -3.0789   XZ=              0.0000   YZ=             -0.0000

 Normal termination of Gaussian 16 at Fri Aug 26 18:37:39 2022.
