 Gaussian 16, Revision A.03,
 Gaussian 16:  ES64L-G16RevA.03 25-Dec-2016

 ------------------
 #p CCSD(T)/cc-pVTZ
 ------------------

 ------------
 H2O_H2O_2267
 ------------
 Symbolic Z-matrix:
 Charge =  0 Multiplicity = 1

                         Standard orientation:
 ---------------------------------------------------------------------
 Center     Atomic      Atomic             Coordinates (Angstroms)
 Number     Number       Type             X           Y           Z
 ---------------------------------------------------------------------
      1          8           0        0.037480    2.009420    0.000000
      2          1           0        0.035026    1.026822    0.000000
      3          1           0       -0.891214    2.330407    0.000000
      4          8           0        0.037480   -1.830485   -0.000000
      5          1           0        0.917661   -2.267277   -0.000000
      6          1           0       -0.661156   -2.521436   -0.000000
 ---------------------------------------------------------------------

 SCF Done:  E(RHF) =  -152.111631460     A.U. after   10 cycles
 E2 =    -0.5262007261D+00 EUMP2 =    -0.15263783218655D+03
 CCSD(T)
 CCSD(T)= -0.15266491879D+03

 The electronic state is 1-A'.
 Alpha  occ. eigenvalues --  -20.57115 -20.53938  -1.34371  -1.31282  -0.71761
 Alpha  occ. eigenvalues --   -0.68692  -0.58011  -0.54763  -0.51510  -0.48432
 Alpha virt. eigenvalues --    0.12303   0.16723   0.19236   0.25085   0.52425
 Alpha virt. eigenvalues --    0.55296   0.56451   0.58871   0.69053   0.71733
 Alpha virt. eigenvalues --    0.76952   0.78267   0.80439   0.82791   0.83599

 Mulliken charges:
               1
     1  O   -0.526849
     2  H    0.267615
     3  H    0.250971
     4  O   -0.510201
     5  H    0.261047
     6  H    0.257417
 Sum of Mulliken charges =   0.00000

 Dipole moment (field-independent basis, Debye):
    X=             -1.2718    Y=             -3.3170    Z=             -0.0000  Tot=              3.5524
 Quadrupole moment (field-independent basis, Debye-Ang):
   XX=             -9.1599   YY=             -7.7089   ZZ=            -14.7258
   XY=             -4.5154   XZ=             -0.0000   YZ=              0.0000

 Normal termination of Gaussian 16 at Sun Aug 28 05:52:51 2022.
