 Gaussian 16, Revision A.03,
 Gaussian 16:  ES64L-G16RevA.03 25-Dec-2016

 ------------------
 #p CCSD(T)/cc-pVTZ
 ------------------

 -----------
 H2O_H2O_165
 -----------
 Symbolic Z-matrix:
 Charge =  0 Multiplicity = 1

                         Standard orientation:
 ---------------------------------------------------------------------
 Center     Atomic      Atomic             Coordinates (Angstroms)
 Number     Number       Type             X           Y           Z
 ---------------------------------------------------------------------
      1          8           0        0.045039    1.172484    0.000000
      2          1           0        0.041267    0.189890    0.000000
      3          1           0       -0.883224    1.494716   -0.000000
      4          8           0        0.045039   -0.992264    0.000000
      5          1           0        0.859941   -1.541300    0.000000
      6          1           0       -0.738603   -1.585065   -0.000000
 ---------------------------------------------------------------------

 SCF Done:  E(RHF) =  -152.063029862     A.U. after   11 cycles
 E2 =    -0.5347350666D+00 EUMP2 =    -0.15259776492836D+03
 CCSD(T)
 CCSD(T)= -0.15262351623D+03

 The electronic state is 1-A'.
 Alpha  occ. eigenvalues --  -20.61623 -20.45237  -1.42212  -1.25053  -0.77492
 Alpha  occ. eigenvalues --   -0.76740  -0.57734  -0.55620  -0.45563  -0.41667
 Alpha virt. eigenvalues --    0.10577   0.16765   0.20848   0.33277   0.46883
 Alpha virt. eigenvalues --    0.52374   0.62826   0.65334   0.70548   0.71303
 Alpha virt. eigenvalues --    0.78856   0.79990   0.80777   0.82146   0.85798

 Mulliken charges:
               1
     1  O   -0.659566
     2  H    0.299022
     3  H    0.209709
     4  O   -0.348174
     5  H    0.255863
     6  H    0.243147
 Sum of Mulliken charges =  -0.00000

 Dipole moment (field-independent basis, Debye):
    X=             -1.3798    Y=             -4.8928    Z=             -0.0000  Tot=              5.0836
 Quadrupole moment (field-independent basis, Debye-Ang):
   XX=             -9.1065   YY=            -10.0466   ZZ=            -14.5922
   XY=             -2.7581   XZ=             -0.0000   YZ=             -0.0000

 Normal termination of Gaussian 16 at Fri Aug 26 16:18:57 2022.
