 Gaussian 16, Revision A.03,
 Gaussian 16:  ES64L-G16RevA.03 25-Dec-2016

 ------------------
 #p CCSD(T)/cc-pVTZ
 ------------------

 ------------
 H2O_H2O_1380
 ------------
 Symbolic Z-matrix:
 Charge =  0 Multiplicity = 1

                         Standard orientation:
 ---------------------------------------------------------------------
 Center     Atomic      Atomic             Coordinates (Angstroms)
 Number     Number       Type             X           Y           Z
 ---------------------------------------------------------------------
      1          8           0        0.079869   -1.649582    0.000000
      2          1           0        0.079162   -0.666981    0.000000
      3          1           0       -0.849394   -1.968918    0.000000
      4          8           0        0.079869    1.490556    0.000000
      5          1           0        0.395047    2.421239    0.000000
      6          1           0       -0.902726    1.486869    0.000000
 ---------------------------------------------------------------------

 SCF Done:  E(RHF) =  -152.111465858     A.U. after   10 cycles
 E2 =    -0.5276788621D+00 EUMP2 =    -0.15263914471987D+03
 CCSD(T)
 CCSD(T)= -0.15266616047D+03

 The electronic state is 1-A'.
 Alpha  occ. eigenvalues --  -20.58083 -20.53450  -1.35440  -1.30876  -0.72988
 Alpha  occ. eigenvalues --   -0.68385  -0.59066  -0.54187  -0.52518  -0.47992
 Alpha virt. eigenvalues --    0.11701   0.16767   0.19780   0.28999   0.49293
 Alpha virt. eigenvalues --    0.54936   0.57807   0.58384   0.69345   0.73670
 Alpha virt. eigenvalues --    0.74580   0.76956   0.81275   0.82354   0.83912

 Mulliken charges:
               1
     1  O   -0.533766
     2  H    0.278604
     3  H    0.239246
     4  O   -0.484397
     5  H    0.250585
     6  H    0.249728
 Sum of Mulliken charges =  -0.00000

 Dipole moment (field-independent basis, Debye):
    X=             -2.6630    Y=              3.1515    Z=              0.0000  Tot=              4.1260
 Quadrupole moment (field-independent basis, Debye-Ang):
   XX=            -10.1356   YY=             -8.6294   ZZ=            -14.7213
   XY=              2.8636   XZ=              0.0000   YZ=              0.0000

 CCSD(T)=-152.6661605\RMSD=7.186e-09\PG=CS [SG(H4O2)]\\@
 Normal termination of Gaussian 16 at Sat Aug 27 00:13:58 2022.
