 Gaussian 16, Revision A.03,
 Gaussian 16:  ES64L-G16RevA.03 25-Dec-2016

 ------------------
 #p CCSD(T)/cc-pVTZ
 ------------------

 -----------
 H2O_H2O_846
 -----------
 Symbolic Z-matrix:
 Charge =  0 Multiplicity = 1

                         Standard orientation:
 ---------------------------------------------------------------------
 Center     Atomic      Atomic             Coordinates (Angstroms)
 Number     Number       Type             X           Y           Z
 ---------------------------------------------------------------------
      1          8           0       -0.023362    1.436341    0.000000
      2          1           0       -0.018982    0.453749    0.000000
      3          1           0        0.904701    1.759147    0.000000
      4          8           0       -0.023362   -1.266038    0.000000
      5          1           0       -0.986220   -1.462027    0.000000
      6          1           0        0.474298   -2.113292    0.000000
 ---------------------------------------------------------------------

 SCF Done:  E(RHF) =  -152.110837534     A.U. after   10 cycles
 E2 =    -0.5293980904D+00 EUMP2 =    -0.15264023562442D+03
 CCSD(T)
 CCSD(T)= -0.15266698111D+03

 The electronic state is 1-A'.
 Alpha  occ. eigenvalues --  -20.59131 -20.51106  -1.36873  -1.28956  -0.74321
 Alpha  occ. eigenvalues --   -0.68231  -0.59901  -0.53823  -0.51733  -0.46046
 Alpha virt. eigenvalues --    0.11827   0.18381   0.18878   0.32858   0.48323
 Alpha virt. eigenvalues --    0.54401   0.56904   0.64701   0.68230   0.72415
 Alpha virt. eigenvalues --    0.73350   0.77067   0.81185   0.83179   0.84226

 Mulliken charges:
               1
     1  O   -0.584437
     2  H    0.297803
     3  H    0.245027
     4  O   -0.464817
     5  H    0.262327
     6  H    0.244097
 Sum of Mulliken charges =  -0.00000

 Dipole moment (field-independent basis, Debye):
    X=              0.7745    Y=             -3.7227    Z=              0.0000  Tot=              3.8024
 Quadrupole moment (field-independent basis, Debye-Ang):
   XX=             -9.3429   YY=             -8.9696   ZZ=            -14.7095
   XY=              3.5822   XZ=              0.0000   YZ=              0.0000

 Normal termination of Gaussian 16 at Fri Aug 26 20:52:19 2022.
