 Gaussian 16, Revision A.03,
 Gaussian 16:  ES64L-G16RevA.03 25-Dec-2016

 ------------------
 #p CCSD(T)/cc-pVTZ
 ------------------

 ------------
 H2O_H2O_4807
 ------------
 Symbolic Z-matrix:
 Charge =  0 Multiplicity = 1

                         Standard orientation:
 ---------------------------------------------------------------------
 Center     Atomic      Atomic             Coordinates (Angstroms)
 Number     Number       Type             X           Y           Z
 ---------------------------------------------------------------------
      1          8           0        0.073522    3.020048   -0.000000
      2          1           0        0.072960    2.037447   -0.000000
      3          1           0       -0.855789    3.339245   -0.000000
      4          8           0        0.073522   -2.853081    0.000000
      5          1           0        0.507612   -3.734598    0.000000
      6          1           0       -0.901130   -2.977825    0.000000
 ---------------------------------------------------------------------

 SCF Done:  E(RHF) =  -152.108017784     A.U. after   10 cycles
 E2 =    -0.5258323293D+00 EUMP2 =    -0.15263385011311D+03
 CCSD(T)
 CCSD(T)= -0.15266105695D+03

 The electronic state is 1-A'.
 Alpha  occ. eigenvalues --  -20.56145 -20.55117  -1.33447  -1.32421  -0.70855
 Alpha  occ. eigenvalues --   -0.69820  -0.56922  -0.55882  -0.50562  -0.49539
 Alpha virt. eigenvalues --    0.13382   0.14720   0.19563   0.20961   0.53593
 Alpha virt. eigenvalues --    0.54793   0.56664   0.57706   0.67024   0.68492
 Alpha virt. eigenvalues --    0.78324   0.79326   0.79659   0.80667   0.82120

 Mulliken charges:
               1
     1  O   -0.511741
     2  H    0.259001
     3  H    0.252696
     4  O   -0.512599
     5  H    0.258052
     6  H    0.254591
 Sum of Mulliken charges =  -0.00000

 Dipole moment (field-independent basis, Debye):
    X=             -2.5231    Y=             -2.9238    Z=              0.0000  Tot=              3.8619
 Quadrupole moment (field-independent basis, Debye-Ang):
   XX=             -9.8084   YY=             -6.8718   ZZ=            -14.7134
   XY=             -4.0366   XZ=              0.0000   YZ=             -0.0000

 Normal termination of Gaussian 16 at Sun Aug 28 06:01:55 2022.
