 Gaussian 16, Revision A.03,
 Gaussian 16:  ES64L-G16RevA.03 25-Dec-2016

 ------------------
 #p CCSD(T)/cc-pVTZ
 ------------------

 ------------
 H2O_H2O_3821
 ------------
 Symbolic Z-matrix:
 Charge =  0 Multiplicity = 1

                         Standard orientation:
 ---------------------------------------------------------------------
 Center     Atomic      Atomic             Coordinates (Angstroms)
 Number     Number       Type             X           Y           Z
 ---------------------------------------------------------------------
      1          8           0       -0.023185    2.623043    0.000000
      2          1           0       -0.020853    1.640444    0.000000
      3          1           0        0.905549    2.943914    0.000000
      4          8           0       -0.023185   -2.452643    0.000000
      5          1           0       -0.986448   -2.646625    0.000000
      6          1           0        0.472710   -3.300933    0.000000
 ---------------------------------------------------------------------

 SCF Done:  E(RHF) =  -152.108922209     A.U. after   10 cycles
 E2 =    -0.5258185590D+00 EUMP2 =    -0.15263474076765D+03
 CCSD(T)
 CCSD(T)= -0.15266192091D+03

 The electronic state is 1-A'.
 Alpha  occ. eigenvalues --  -20.56331 -20.54842  -1.33629  -1.32153  -0.71033
 Alpha  occ. eigenvalues --   -0.69558  -0.57139  -0.55635  -0.50751  -0.49282
 Alpha virt. eigenvalues --    0.12853   0.15305   0.19432   0.21670   0.53322
 Alpha virt. eigenvalues --    0.55133   0.56586   0.57874   0.66720   0.69141
 Alpha virt. eigenvalues --    0.78145   0.78941   0.79564   0.80350   0.82870

 Mulliken charges:
               1
     1  O   -0.516217
     2  H    0.261282
     3  H    0.254307
     4  O   -0.516099
     5  H    0.258259
     6  H    0.258469
 Sum of Mulliken charges =  -0.00000

 Dipole moment (field-independent basis, Debye):
    X=              0.7949    Y=             -3.0139    Z=              0.0000  Tot=              3.1170
 Quadrupole moment (field-independent basis, Debye-Ang):
   XX=             -9.3614   YY=             -7.1347   ZZ=            -14.7165
   XY=              6.4709   XZ=              0.0000   YZ=              0.0000

 Normal termination of Gaussian 16 at Fri Aug 26 23:52:37 2022.
