 Gaussian 16, Revision A.03,
 Gaussian 16:  ES64L-G16RevA.03 25-Dec-2016

 ------------------
 #p CCSD(T)/cc-pVTZ
 ------------------

 ------------
 H2O_H2O_1966
 ------------
 Symbolic Z-matrix:
 Charge =  0 Multiplicity = 1

                         Standard orientation:
 ---------------------------------------------------------------------
 Center     Atomic      Atomic             Coordinates (Angstroms)
 Number     Number       Type             X           Y           Z
 ---------------------------------------------------------------------
      1          8           0        0.041186    1.890272   -0.000000
      2          1           0        0.038744    0.907673   -0.000000
      3          1           0       -0.887511    2.211248   -0.000000
      4          8           0        0.041186   -1.710389    0.000000
      5          1           0        0.890920   -2.203803    0.000000
      6          1           0       -0.701136   -2.354177    0.000000
 ---------------------------------------------------------------------

 SCF Done:  E(RHF) =  -152.112542534     A.U. after   10 cycles
 E2 =    -0.5264406431D+00 EUMP2 =    -0.15263898317719D+03
 CCSD(T)
 CCSD(T)= -0.15266604149D+03

 The electronic state is 1-A'.
 Alpha  occ. eigenvalues --  -20.57391 -20.53618  -1.34643  -1.30984  -0.72022
 Alpha  occ. eigenvalues --   -0.68426  -0.58354  -0.54439  -0.51784  -0.48138
 Alpha virt. eigenvalues --    0.12228   0.17073   0.19133   0.26455   0.51608
 Alpha virt. eigenvalues --    0.54891   0.56417   0.59001   0.69087   0.72392
 Alpha virt. eigenvalues --    0.76124   0.77479   0.80791   0.83416   0.84404

 Mulliken charges:
               1
     1  O   -0.531073
     2  H    0.269817
     3  H    0.249487
     4  O   -0.508441
     5  H    0.262319
     6  H    0.257891
 Sum of Mulliken charges =  -0.00000

 Dipole moment (field-independent basis, Debye):
    X=             -1.3925    Y=             -3.3938    Z=              0.0000  Tot=              3.6683
 Quadrupole moment (field-independent basis, Debye-Ang):
   XX=             -9.1517   YY=             -7.9021   ZZ=            -14.7299
   XY=             -4.1911   XZ=              0.0000   YZ=             -0.0000

 Normal termination of Gaussian 16 at Sun Aug 28 03:13:10 2022.
