 Gaussian 16, Revision A.03,
 Gaussian 16:  ES64L-G16RevA.03 25-Dec-2016

 ------------------
 #p CCSD(T)/cc-pVTZ
 ------------------

 ------------
 H2O_H2O_2151
 ------------
 Symbolic Z-matrix:
 Charge =  0 Multiplicity = 1

                         Standard orientation:
 ---------------------------------------------------------------------
 Center     Atomic      Atomic             Coordinates (Angstroms)
 Number     Number       Type             X           Y           Z
 ---------------------------------------------------------------------
      1          8           0        0.090686   -1.947672    0.000000
      2          1           0        0.090583   -0.965071    0.000000
      3          1           0       -0.838774   -2.266436    0.000000
      4          8           0        0.090686    1.808967    0.000000
      5          1           0        0.154850    2.789472    0.000000
      6          1           0       -0.857632    1.551676    0.000000
 ---------------------------------------------------------------------

 SCF Done:  E(RHF) =  -152.109053755     A.U. after   10 cycles
 E2 =    -0.5265506943D+00 EUMP2 =    -0.15263560444880D+03
 CCSD(T)
 CCSD(T)= -0.15266273957D+03

 The electronic state is 1-A'.
 Alpha  occ. eigenvalues --  -20.57179 -20.54787  -1.34470  -1.32097  -0.71967
 Alpha  occ. eigenvalues --   -0.69434  -0.57970  -0.55532  -0.51571  -0.49212
 Alpha virt. eigenvalues --    0.11515   0.16077   0.20007   0.25036   0.52552
 Alpha virt. eigenvalues --    0.55758   0.56783   0.57480   0.68278   0.73010
 Alpha virt. eigenvalues --    0.76564   0.79168   0.79835   0.80948   0.83164

 Mulliken charges:
               1
     1  O   -0.514980
     2  H    0.264900
     3  H    0.245402
     4  O   -0.501142
     5  H    0.258723
     6  H    0.247097
 Sum of Mulliken charges =  -0.00000

 Dipole moment (field-independent basis, Debye):
    X=             -3.0632    Y=              2.5699    Z=              0.0000  Tot=              3.9985
 Quadrupole moment (field-independent basis, Debye-Ang):
   XX=            -10.7316   YY=             -8.9496   ZZ=            -14.7151
   XY=              2.3286   XZ=              0.0000   YZ=              0.0000

 Normal termination of Gaussian 16 at Sun Aug 28 04:45:19 2022.
