 Gaussian 16, Revision A.03,
 Gaussian 16:  ES64L-G16RevA.03 25-Dec-2016

 ------------------
 #p CCSD(T)/cc-pVTZ
 ------------------

 ------------
 H2O_H2O_3644
 ------------
 Symbolic Z-matrix:
 Charge =  0 Multiplicity = 1

                         Standard orientation:
 ---------------------------------------------------------------------
 Center     Atomic      Atomic             Coordinates (Angstroms)
 Number     Number       Type             X           Y           Z
 ---------------------------------------------------------------------
      1          8           0        0.030171    2.556073    0.000000
      2          1           0        0.028013    1.573474    0.000000
      3          1           0       -0.898619    2.876781   -0.000000
      4          8           0        0.030171   -2.380454    0.000000
      5          1           0        0.959930   -2.698343    0.000000
      6          1           0       -0.572066   -3.156866   -0.000000
 ---------------------------------------------------------------------

 SCF Done:  E(RHF) =  -152.109117299     A.U. after   10 cycles
 E2 =    -0.5258328459D+00 EUMP2 =    -0.15263495014541D+03
 CCSD(T)
 CCSD(T)= -0.15266212263D+03

 The electronic state is 1-A'.
 Alpha  occ. eigenvalues --  -20.56387 -20.54738  -1.33681  -1.32051  -0.71083
 Alpha  occ. eigenvalues --   -0.69453  -0.57198  -0.55534  -0.50805  -0.49181
 Alpha virt. eigenvalues --    0.12809   0.15438   0.19503   0.21743   0.53377
 Alpha virt. eigenvalues --    0.55139   0.56548   0.57930   0.66847   0.69260
 Alpha virt. eigenvalues --    0.78095   0.78913   0.79660   0.79995   0.82971

 Mulliken charges:
               1
     1  O   -0.516822
     2  H    0.262143
     3  H    0.253721
     4  O   -0.516155
     5  H    0.258894
     6  H    0.258217
 Sum of Mulliken charges =  -0.00000

 Dipole moment (field-independent basis, Debye):
    X=             -1.0327    Y=             -3.1163    Z=             -0.0000  Tot=              3.2829
 Quadrupole moment (field-independent basis, Debye-Ang):
   XX=             -9.2296   YY=             -6.9816   ZZ=            -14.7173
   XY=             -5.9302   XZ=              0.0000   YZ=             -0.0000

 Normal termination of Gaussian 16 at Fri Aug 26 22:51:25 2022.
