 Gaussian 16, Revision A.03,
 Gaussian 16:  ES64L-G16RevA.03 25-Dec-2016

 ------------------
 #p CCSD(T)/cc-pVTZ
 ------------------

 ------------
 H2O_H2O_3370
 ------------
 Symbolic Z-matrix:
 Charge =  0 Multiplicity = 1

                         Standard orientation:
 ---------------------------------------------------------------------
 Center     Atomic      Atomic             Coordinates (Angstroms)
 Number     Number       Type             X           Y           Z
 ---------------------------------------------------------------------
      1          8           0        0.026648    2.445085    0.000000
      2          1           0        0.024262    1.462487    0.000000
      3          1           0       -0.902069    2.766008    0.000000
      4          8           0        0.026648   -2.271855   -0.000000
      5          1           0        0.975149   -2.528475   -0.000000
      6          1           0       -0.523709   -3.085866   -0.000000
 ---------------------------------------------------------------------

 SCF Done:  E(RHF) =  -152.109412280     A.U. after   10 cycles
 E2 =    -0.5258602971D+00 EUMP2 =    -0.15263527257752D+03
 CCSD(T)
 CCSD(T)= -0.15266243376D+03

 The electronic state is 1-A'.
 Alpha  occ. eigenvalues --  -20.56479 -20.54662  -1.33769  -1.31978  -0.71172
 Alpha  occ. eigenvalues --   -0.69381  -0.57296  -0.55466  -0.50895  -0.49112
 Alpha virt. eigenvalues --    0.12610   0.15638   0.19421   0.22159   0.53363
 Alpha virt. eigenvalues --    0.55319   0.56506   0.58077   0.67236   0.69331
 Alpha virt. eigenvalues --    0.78008   0.78778   0.79724   0.80070   0.83049

 Mulliken charges:
               1
     1  O   -0.518015
     2  H    0.262640
     3  H    0.253820
     4  O   -0.515961
     5  H    0.259025
     6  H    0.258491
 Sum of Mulliken charges =  -0.00000

 Dipole moment (field-independent basis, Debye):
    X=             -0.9117    Y=             -3.0898    Z=             -0.0000  Tot=              3.2215
 Quadrupole moment (field-independent basis, Debye-Ang):
   XX=             -9.2883   YY=             -7.2387   ZZ=            -14.7183
   XY=             -5.8634   XZ=             -0.0000   YZ=             -0.0000

 Normal termination of Gaussian 16 at Fri Aug 26 21:19:35 2022.
