 Gaussian 16, Revision A.03,
 Gaussian 16:  ES64L-G16RevA.03 25-Dec-2016

 ------------------
 #p CCSD(T)/cc-pVTZ
 ------------------

 ------------
 H2O_H2O_3048
 ------------
 Symbolic Z-matrix:
 Charge =  0 Multiplicity = 1

                         Standard orientation:
 ---------------------------------------------------------------------
 Center     Atomic      Atomic             Coordinates (Angstroms)
 Number     Number       Type             X           Y           Z
 ---------------------------------------------------------------------
      1          8           0       -0.016630    2.310107    0.000000
      2          1           0       -0.013724    1.327510    0.000000
      3          1           0        0.911916    2.631522    0.000000
      4          8           0       -0.016630   -2.146719    0.000000
      5          1           0       -0.996934   -2.213883    0.000000
      6          1           0        0.364826   -3.052255    0.000000
 ---------------------------------------------------------------------

 SCF Done:  E(RHF) =  -152.109721566     A.U. after   10 cycles
 E2 =    -0.5259118408D+00 EUMP2 =    -0.15263563340625D+03
 CCSD(T)
 CCSD(T)= -0.15266278255D+03

 The electronic state is 1-A'.
 Alpha  occ. eigenvalues --  -20.56603 -20.54648  -1.33891  -1.31966  -0.71299
 Alpha  occ. eigenvalues --   -0.69373  -0.57428  -0.55456  -0.51017  -0.49103
 Alpha virt. eigenvalues --    0.12311   0.15867   0.19260   0.22981   0.53670
 Alpha virt. eigenvalues --    0.55546   0.56429   0.58232   0.67958   0.69350
 Alpha virt. eigenvalues --    0.77871   0.78755   0.79735   0.80563   0.83120

 Mulliken charges:
               1
     1  O   -0.519721
     2  H    0.262729
     3  H    0.254625
     4  O   -0.515128
     5  H    0.258591
     6  H    0.258904
 Sum of Mulliken charges =  -0.00000

 Dipole moment (field-independent basis, Debye):
    X=              0.5711    Y=             -2.9343    Z=              0.0000  Tot=              2.9894
 Quadrupole moment (field-independent basis, Debye-Ang):
   XX=             -9.5430   YY=             -7.7988   ZZ=            -14.7191
   XY=              6.0622   XZ=              0.0000   YZ=              0.0000

 Normal termination of Gaussian 16 at Fri Aug 26 19:28:55 2022.
