 Gaussian 16, Revision A.03,
 Gaussian 16:  ES64L-G16RevA.03 25-Dec-2016

 ------------------
 #p CCSD(T)/cc-pVTZ
 ------------------

 ------------
 H2O_H2O_1980
 ------------
 Symbolic Z-matrix:
 Charge =  0 Multiplicity = 1

                         Standard orientation:
 ---------------------------------------------------------------------
 Center     Atomic      Atomic             Coordinates (Angstroms)
 Number     Number       Type             X           Y           Z
 ---------------------------------------------------------------------
      1          8           0        0.079862    1.888916    0.000000
      2          1           0        0.079247    0.906315    0.000000
      3          1           0       -0.849432    2.208164    0.000000
      4          8           0        0.079862   -1.729875   -0.000000
      5          1           0        0.395127   -2.660527   -0.000000
      6          1           0       -0.902733   -1.726281   -0.000000
 ---------------------------------------------------------------------

 SCF Done:  E(RHF) =  -152.110634577     A.U. after   10 cycles
 E2 =    -0.5266069717D+00 EUMP2 =    -0.15263724154899D+03
 CCSD(T)
 CCSD(T)= -0.15266433327D+03

 The electronic state is 1-A'.
 Alpha  occ. eigenvalues --  -20.57355 -20.54200  -1.34632  -1.31537  -0.72085
 Alpha  occ. eigenvalues --   -0.68911  -0.58219  -0.54972  -0.51747  -0.48666
 Alpha virt. eigenvalues --    0.11815   0.16465   0.19642   0.25836   0.51621
 Alpha virt. eigenvalues --    0.55676   0.56448   0.58021   0.68878   0.73157
 Alpha virt. eigenvalues --    0.76113   0.78560   0.80359   0.83248   0.83301

 Mulliken charges:
               1
     1  O   -0.521252
     2  H    0.267640
     3  H    0.244937
     4  O   -0.502506
     5  H    0.259391
     6  H    0.251789
 Sum of Mulliken charges =  -0.00000

 Dipole moment (field-independent basis, Debye):
    X=             -2.6950    Y=             -2.9864    Z=             -0.0000  Tot=              4.0227
 Quadrupole moment (field-independent basis, Debye-Ang):
   XX=            -10.1220   YY=             -8.3652   ZZ=            -14.7219
   XY=             -2.9867   XZ=             -0.0000   YZ=              0.0000

 Normal termination of Gaussian 16 at Sun Aug 28 03:18:28 2022.
