 Gaussian 16, Revision A.03,
 Gaussian 16:  ES64L-G16RevA.03 25-Dec-2016

 ------------------
 #p CCSD(T)/cc-pVTZ
 ------------------

 ------------
 H2O_H2O_2166
 ------------
 Symbolic Z-matrix:
 Charge =  0 Multiplicity = 1

                         Standard orientation:
 ---------------------------------------------------------------------
 Center     Atomic      Atomic             Coordinates (Angstroms)
 Number     Number       Type             X           Y           Z
 ---------------------------------------------------------------------
      1          8           0        0.041177    1.970051   -0.000000
      2          1           0        0.038838    0.987452   -0.000000
      3          1           0       -0.887555    2.290929   -0.000000
      4          8           0        0.041177   -1.790160    0.000000
      5          1           0        0.890963   -2.283485    0.000000
      6          1           0       -0.701078   -2.434026    0.000000
 ---------------------------------------------------------------------

 SCF Done:  E(RHF) =  -152.111912081     A.U. after   10 cycles
 E2 =    -0.5262725926D+00 EUMP2 =    -0.15263818467309D+03
 CCSD(T)
 CCSD(T)= -0.15266526242D+03

 The electronic state is 1-A'.
 Alpha  occ. eigenvalues --  -20.57204 -20.53833  -1.34457  -1.31182  -0.71843
 Alpha  occ. eigenvalues --   -0.68598  -0.58118  -0.54656  -0.51597  -0.48333
 Alpha virt. eigenvalues --    0.12277   0.16835   0.19206   0.25509   0.52109
 Alpha virt. eigenvalues --    0.55190   0.56450   0.58927   0.69067   0.72052
 Alpha virt. eigenvalues --    0.76714   0.77968   0.80553   0.83539   0.83660

 Mulliken charges:
               1
     1  O   -0.527889
     2  H    0.268305
     3  H    0.250182
     4  O   -0.509350
     5  H    0.261399
     6  H    0.257354
 Sum of Mulliken charges =  -0.00000

 Dipole moment (field-independent basis, Debye):
    X=             -1.3953    Y=             -3.3531    Z=              0.0000  Tot=              3.6318
 Quadrupole moment (field-independent basis, Debye-Ang):
   XX=             -9.1509   YY=             -7.7568   ZZ=            -14.7270
   XY=             -4.3357   XZ=              0.0000   YZ=             -0.0000

 Normal termination of Gaussian 16 at Sun Aug 28 05:04:17 2022.
