 Gaussian 16, Revision A.03,
 Gaussian 16:  ES64L-G16RevA.03 25-Dec-2016

 ------------------
 #p CCSD(T)/cc-pVTZ
 ------------------

 ------------
 H2O_H2O_3517
 ------------
 Symbolic Z-matrix:
 Charge =  0 Multiplicity = 1

                         Standard orientation:
 ---------------------------------------------------------------------
 Center     Atomic      Atomic             Coordinates (Angstroms)
 Number     Number       Type             X           Y           Z
 ---------------------------------------------------------------------
      1          8           0        0.037434    2.508035   -0.000000
      2          1           0        0.035486    1.525435   -0.000000
      3          1           0       -0.891425    2.828543    0.000000
      4          8           0        0.037434   -2.329061   -0.000000
      5          1           0        0.917840   -2.765400   -0.000000
      6          1           0       -0.660846   -3.020372    0.000000
 ---------------------------------------------------------------------

 SCF Done:  E(RHF) =  -152.109250019     A.U. after   10 cycles
 E2 =    -0.5258486501D+00 EUMP2 =    -0.15263509866902D+03
 CCSD(T)
 CCSD(T)= -0.15266226550D+03

 The electronic state is 1-A'.
 Alpha  occ. eigenvalues --  -20.56432 -20.54662  -1.33723  -1.31977  -0.71125
 Alpha  occ. eigenvalues --   -0.69376  -0.57246  -0.55461  -0.50848  -0.49108
 Alpha virt. eigenvalues --    0.12773   0.15534   0.19538   0.21829   0.53396
 Alpha virt. eigenvalues --    0.55138   0.56510   0.58005   0.67009   0.69322
 Alpha virt. eigenvalues --    0.78055   0.78981   0.79670   0.79730   0.83040

 Mulliken charges:
               1
     1  O   -0.517138
     2  H    0.262767
     3  H    0.253109
     4  O   -0.515940
     5  H    0.259373
     6  H    0.257829
 Sum of Mulliken charges =  -0.00000

 Dipole moment (field-independent basis, Debye):
    X=             -1.2800    Y=             -3.1841    Z=              0.0000  Tot=              3.4317
 Quadrupole moment (field-independent basis, Debye-Ang):
   XX=             -9.1590   YY=             -6.9101   ZZ=            -14.7178
   XY=             -5.4745   XZ=             -0.0000   YZ=              0.0000

 Normal termination of Gaussian 16 at Fri Aug 26 22:09:20 2022.
