 Gaussian 16, Revision A.03,
 Gaussian 16:  ES64L-G16RevA.03 25-Dec-2016

 ------------------
 #p CCSD(T)/cc-pVTZ
 ------------------

 ------------
 H2O_H2O_4729
 ------------
 Symbolic Z-matrix:
 Charge =  0 Multiplicity = 1

                         Standard orientation:
 ---------------------------------------------------------------------
 Center     Atomic      Atomic             Coordinates (Angstroms)
 Number     Number       Type             X           Y           Z
 ---------------------------------------------------------------------
      1          8           0        0.082797    2.983378    0.000000
      2          1           0        0.082501    2.000776    0.000000
      3          1           0       -0.846600    3.302324   -0.000000
      4          8           0        0.082797   -2.828846    0.000000
      5          1           0        0.336827   -3.778043    0.000000
      6          1           0       -0.897481   -2.761312   -0.000000
 ---------------------------------------------------------------------

 SCF Done:  E(RHF) =  -152.107866436     A.U. after   10 cycles
 E2 =    -0.5258478950D+00 EUMP2 =    -0.15263371433112D+03
 CCSD(T)
 CCSD(T)= -0.15266092426D+03

 The electronic state is 1-A'.
 Alpha  occ. eigenvalues --  -20.56163 -20.55203  -1.33465  -1.32506  -0.70876
 Alpha  occ. eigenvalues --   -0.69904  -0.56934  -0.55963  -0.50578  -0.49622
 Alpha virt. eigenvalues --    0.13216   0.14692   0.19343   0.21124   0.53470
 Alpha virt. eigenvalues --    0.54788   0.56624   0.57674   0.67002   0.68456
 Alpha virt. eigenvalues --    0.78309   0.79246   0.79655   0.80853   0.81921

 Mulliken charges:
               1
     1  O   -0.510863
     2  H    0.258358
     3  H    0.252458
     4  O   -0.511783
     5  H    0.258081
     6  H    0.253748
 Sum of Mulliken charges =   0.00000

 Dipole moment (field-independent basis, Debye):
    X=             -2.8409    Y=             -2.7072    Z=             -0.0000  Tot=              3.9243
 Quadrupole moment (field-independent basis, Debye-Ang):
   XX=            -10.2436   YY=             -7.7333   ZZ=            -14.7128
   XY=             -3.2332   XZ=             -0.0000   YZ=             -0.0000

 Normal termination of Gaussian 16 at Sun Aug 28 05:26:24 2022.
