 Gaussian 16, Revision A.03,
 Gaussian 16:  ES64L-G16RevA.03 25-Dec-2016

 ------------------
 #p CCSD(T)/cc-pVTZ
 ------------------

 ------------
 H2O_H2O_4098
 ------------
 Symbolic Z-matrix:
 Charge =  0 Multiplicity = 1

                         Standard orientation:
 ---------------------------------------------------------------------
 Center     Atomic      Atomic             Coordinates (Angstroms)
 Number     Number       Type             X           Y           Z
 ---------------------------------------------------------------------
      1          8           0       -0.016592    2.728934    0.000000
      2          1           0       -0.014145    1.746336    0.000000
      3          1           0        0.912105    3.049914    0.000000
      4          8           0       -0.016592   -2.565530    0.000000
      5          1           0       -0.996927   -2.632237    0.000000
      6          1           0        0.364440   -3.471246    0.000000
 ---------------------------------------------------------------------

 SCF Done:  E(RHF) =  -152.108659683     A.U. after   10 cycles
 E2 =    -0.5258064864D+00 EUMP2 =    -0.15263446616892D+03
 CCSD(T)
 CCSD(T)= -0.15266165611D+03

 The electronic state is 1-A'.
 Alpha  occ. eigenvalues --  -20.56260 -20.54976  -1.33561  -1.32286  -0.70967
 Alpha  occ. eigenvalues --   -0.69693  -0.57062  -0.55763  -0.50681  -0.49412
 Alpha virt. eigenvalues --    0.12952   0.15115   0.19337   0.21582   0.53285
 Alpha virt. eigenvalues --    0.55073   0.56628   0.57828   0.66695   0.68921
 Alpha virt. eigenvalues --    0.78210   0.79158   0.79441   0.80697   0.82708

 Mulliken charges:
               1
     1  O   -0.515278
     2  H    0.260148
     3  H    0.254822
     4  O   -0.515609
     5  H    0.257443
     6  H    0.258474
 Sum of Mulliken charges =  -0.00000

 Dipole moment (field-independent basis, Debye):
    X=              0.5703    Y=             -2.8784    Z=              0.0000  Tot=              2.9343
 Quadrupole moment (field-independent basis, Debye-Ang):
   XX=             -9.5431   YY=             -7.3779   ZZ=            -14.7155
   XY=              7.1645   XZ=              0.0000   YZ=              0.0000

 Normal termination of Gaussian 16 at Sat Aug 27 23:28:46 2022.
