 Gaussian 16, Revision A.03,
 Gaussian 16:  ES64L-G16RevA.03 25-Dec-2016

 ------------------
 #p CCSD(T)/cc-pVTZ
 ------------------

 ------------
 H2O_H2O_2206
 ------------
 Symbolic Z-matrix:
 Charge =  0 Multiplicity = 1

                         Standard orientation:
 ---------------------------------------------------------------------
 Center     Atomic      Atomic             Coordinates (Angstroms)
 Number     Number       Type             X           Y           Z
 ---------------------------------------------------------------------
      1          8           0        0.076768    1.980917    0.000000
      2          1           0        0.076044    0.998316    0.000000
      3          1           0       -0.852490    2.300268    0.000000
      4          8           0        0.076768   -1.817727   -0.000000
      5          1           0        0.452125   -2.725809   -0.000000
      6          1           0       -0.903965   -1.878297   -0.000000
 ---------------------------------------------------------------------

 SCF Done:  E(RHF) =  -152.110429274     A.U. after   10 cycles
 E2 =    -0.5263792213D+00 EUMP2 =    -0.15263680849527D+03
 CCSD(T)
 CCSD(T)= -0.15266391347D+03

 The electronic state is 1-A'.
 Alpha  occ. eigenvalues --  -20.57159 -20.54282  -1.34430  -1.31611  -0.71859
 Alpha  occ. eigenvalues --   -0.68987  -0.58001  -0.55065  -0.51551  -0.48742
 Alpha virt. eigenvalues --    0.11917   0.16377   0.19522   0.24962   0.52494
 Alpha virt. eigenvalues --    0.55803   0.56129   0.58219   0.68794   0.72069
 Alpha virt. eigenvalues --    0.76792   0.78884   0.80196   0.82615   0.83459

 Mulliken charges:
               1
     1  O   -0.520105
     2  H    0.266411
     3  H    0.246535
     4  O   -0.505391
     5  H    0.259726
     6  H    0.252825
 Sum of Mulliken charges =  -0.00000

 Dipole moment (field-independent basis, Debye):
    X=             -2.5987    Y=             -3.0264    Z=             -0.0000  Tot=              3.9890
 Quadrupole moment (field-independent basis, Debye-Ang):
   XX=             -9.9686   YY=             -8.1619   ZZ=            -14.7212
   XY=             -3.1845   XZ=             -0.0000   YZ=              0.0000

 Normal termination of Gaussian 16 at Sun Aug 28 05:25:43 2022.
