 Gaussian 16, Revision A.03,
 Gaussian 16:  ES64L-G16RevA.03 25-Dec-2016

 ------------------
 #p CCSD(T)/cc-pVTZ
 ------------------

 ------------
 H2O_H2O_2398
 ------------
 Symbolic Z-matrix:
 Charge =  0 Multiplicity = 1

                         Standard orientation:
 ---------------------------------------------------------------------
 Center     Atomic      Atomic             Coordinates (Angstroms)
 Number     Number       Type             X           Y           Z
 ---------------------------------------------------------------------
      1          8           0       -0.016662    2.050832    0.000000
      2          1           0       -0.013373    1.068236    0.000000
      3          1           0        0.911759    2.372607    0.000000
      4          8           0       -0.016662   -1.887456    0.000000
      5          1           0       -0.996940   -1.955003    0.000000
      6          1           0        0.365146   -2.792845    0.000000
 ---------------------------------------------------------------------

 SCF Done:  E(RHF) =  -152.110951703     A.U. after   10 cycles
 E2 =    -0.5261260159D+00 EUMP2 =    -0.15263707771898D+03
 CCSD(T)
 CCSD(T)= -0.15266418438D+03

 The electronic state is 1-A'.
 Alpha  occ. eigenvalues --  -20.56975 -20.54297  -1.34250  -1.31629  -0.71664
 Alpha  occ. eigenvalues --   -0.69041  -0.57847  -0.55116  -0.51381  -0.48777
 Alpha virt. eigenvalues --    0.12204   0.16479   0.19256   0.24737   0.53736
 Alpha virt. eigenvalues --    0.55256   0.56156   0.58592   0.68731   0.71303
 Alpha virt. eigenvalues --    0.77195   0.79212   0.80108   0.81437   0.83666

 Mulliken charges:
               1
     1  O   -0.525518
     2  H    0.265284
     3  H    0.254250
     4  O   -0.511801
     5  H    0.259614
     6  H    0.258172
 Sum of Mulliken charges =  -0.00000

 Dipole moment (field-independent basis, Debye):
    X=              0.5720    Y=             -3.0024    Z=              0.0000  Tot=              3.0564
 Quadrupole moment (field-independent basis, Debye-Ang):
   XX=             -9.5439   YY=             -8.0663   ZZ=            -14.7230
   XY=              5.3800   XZ=              0.0000   YZ=              0.0000

 Normal termination of Gaussian 16 at Sun Aug 28 06:57:21 2022.
