 Gaussian 16, Revision A.03,
 Gaussian 16:  ES64L-G16RevA.03 25-Dec-2016

 ------------------
 #p CCSD(T)/cc-pVTZ
 ------------------

 -----------
 H2O_H2O_268
 -----------
 Symbolic Z-matrix:
 Charge =  0 Multiplicity = 1

                         Standard orientation:
 ---------------------------------------------------------------------
 Center     Atomic      Atomic             Coordinates (Angstroms)
 Number     Number       Type             X           Y           Z
 ---------------------------------------------------------------------
      1          8           0        0.033994    1.210825    0.000000
      2          1           0        0.029520    0.228234    0.000000
      3          1           0       -0.894038    1.533721    0.000000
      4          8           0        0.033994   -1.033458   -0.000000
      5          1           0        0.940078   -1.413612   -0.000000
      6          1           0       -0.619466   -1.767280   -0.000000
 ---------------------------------------------------------------------

 SCF Done:  E(RHF) =  -152.078230768     A.U. after   11 cycles
 E2 =    -0.5337870024D+00 EUMP2 =    -0.15261201777021D+03
 CCSD(T)
 CCSD(T)= -0.15263796857D+03

 The electronic state is 1-A'.
 Alpha  occ. eigenvalues --  -20.61120 -20.46475  -1.40909  -1.25791  -0.77478
 Alpha  occ. eigenvalues --   -0.73862  -0.56865  -0.56861  -0.46851  -0.42550
 Alpha virt. eigenvalues --    0.10887   0.17252   0.20408   0.33711   0.46896
 Alpha virt. eigenvalues --    0.52797   0.61278   0.67541   0.69987   0.71792
 Alpha virt. eigenvalues --    0.77827   0.79133   0.79519   0.83134   0.84289

 Mulliken charges:
               1
     1  O   -0.648165
     2  H    0.301194
     3  H    0.221251
     4  O   -0.376032
     5  H    0.260822
     6  H    0.240930
 Sum of Mulliken charges =  -0.00000

 Dipole moment (field-independent basis, Debye):
    X=             -1.0603    Y=             -4.6378    Z=             -0.0000  Tot=              4.7574
 Quadrupole moment (field-independent basis, Debye-Ang):
   XX=             -9.1273   YY=             -9.8282   ZZ=            -14.6200
   XY=             -2.8852   XZ=             -0.0000   YZ=              0.0000

 Normal termination of Gaussian 16 at Fri Aug 26 17:03:12 2022.
