 Gaussian 16, Revision A.03,
 Gaussian 16:  ES64L-G16RevA.03 25-Dec-2016

 ------------------
 #p CCSD(T)/cc-pVTZ
 ------------------

 ------------
 H2O_H2O_2880
 ------------
 Symbolic Z-matrix:
 Charge =  0 Multiplicity = 1

                         Standard orientation:
 ---------------------------------------------------------------------
 Center     Atomic      Atomic             Coordinates (Angstroms)
 Number     Number       Type             X           Y           Z
 ---------------------------------------------------------------------
      1          8           0        0.079854    2.247914    0.000000
      2          1           0        0.079341    1.265313    0.000000
      3          1           0       -0.849473    2.567065    0.000000
      4          8           0        0.079854   -2.088856   -0.000000
      5          1           0        0.395216   -3.019476   -0.000000
      6          1           0       -0.902741   -2.085364   -0.000000
 ---------------------------------------------------------------------

 SCF Done:  E(RHF) =  -152.109089811     A.U. after   10 cycles
 E2 =    -0.5260536394D+00 EUMP2 =    -0.15263514345074D+03
 CCSD(T)
 CCSD(T)= -0.15266229828D+03

 The electronic state is 1-A'.
 Alpha  occ. eigenvalues --  -20.56713 -20.54721  -1.33998  -1.32033  -0.71418
 Alpha  occ. eigenvalues --   -0.69414  -0.57504  -0.55499  -0.51116  -0.49157
 Alpha virt. eigenvalues --    0.12000   0.15820   0.19449   0.22985   0.53956
 Alpha virt. eigenvalues --    0.55076   0.56350   0.58423   0.68388   0.69311
 Alpha virt. eigenvalues --    0.77755   0.78831   0.79700   0.80569   0.82926

 Mulliken charges:
               1
     1  O   -0.514887
     2  H    0.262955
     3  H    0.249200
     4  O   -0.510066
     5  H    0.259777
     6  H    0.253021
 Sum of Mulliken charges =  -0.00000

 Dipole moment (field-independent basis, Debye):
    X=             -2.7184    Y=             -2.8700    Z=             -0.0000  Tot=              3.9530
 Quadrupole moment (field-independent basis, Debye-Ang):
   XX=            -10.1052   YY=             -8.0514   ZZ=            -14.7167
   XY=             -3.1562   XZ=             -0.0000   YZ=              0.0000

 Normal termination of Gaussian 16 at Fri Aug 26 17:58:31 2022.
