 Gaussian 16, Revision A.03,
 Gaussian 16:  ES64L-G16RevA.03 25-Dec-2016

 ------------------
 #p CCSD(T)/cc-pVTZ
 ------------------

 ------------
 H2O_H2O_2870
 ------------
 Symbolic Z-matrix:
 Charge =  0 Multiplicity = 1

                         Standard orientation:
 ---------------------------------------------------------------------
 Center     Atomic      Atomic             Coordinates (Angstroms)
 Number     Number       Type             X           Y           Z
 ---------------------------------------------------------------------
      1          8           0        0.026667    2.245642    0.000000
      2          1           0        0.024061    1.263044    0.000000
      3          1           0       -0.901977    2.566772   -0.000000
      4          8           0        0.026667   -2.072423    0.000000
      5          1           0        0.975110   -2.329255    0.000000
      6          1           0       -0.523873   -2.886310   -0.000000
 ---------------------------------------------------------------------

 SCF Done:  E(RHF) =  -152.110172675     A.U. after   10 cycles
 E2 =    -0.5259519844D+00 EUMP2 =    -0.15263612465961D+03
 CCSD(T)
 CCSD(T)= -0.15266325819D+03

 The electronic state is 1-A'.
 Alpha  occ. eigenvalues --  -20.56703 -20.54435  -1.33981  -1.31758  -0.71383
 Alpha  occ. eigenvalues --   -0.69161  -0.57538  -0.55251  -0.51112  -0.48899
 Alpha virt. eigenvalues --    0.12397   0.16070   0.19349   0.23161   0.53407
 Alpha virt. eigenvalues --    0.55574   0.56417   0.58510   0.68646   0.69396
 Alpha virt. eigenvalues --    0.77755   0.79023   0.79933   0.80049   0.83291

 Mulliken charges:
               1
     1  O   -0.521204
     2  H    0.264383
     3  H    0.253367
     4  O   -0.514404
     5  H    0.259649
     6  H    0.258208
 Sum of Mulliken charges =   0.00000

 Dipole moment (field-independent basis, Debye):
    X=             -0.9105    Y=             -3.1306    Z=             -0.0000  Tot=              3.2603
 Quadrupole moment (field-independent basis, Debye-Ang):
   XX=             -9.2883   YY=             -7.5108   ZZ=            -14.7207
   XY=             -5.4066   XZ=              0.0000   YZ=             -0.0000

 CCSD(T)=-152.6632582\RMSD=6.775e-09\PG=CS [SG(H4O2)]\\@
 Normal termination of Gaussian 16 at Fri Aug 26 17:53:42 2022.
