 Gaussian 16, Revision A.03,
 Gaussian 16:  ES64L-G16RevA.03 25-Dec-2016

 ------------------
 #p CCSD(T)/cc-pVTZ
 ------------------

 ------------
 H2O_H2O_1053
 ------------
 Symbolic Z-matrix:
 Charge =  0 Multiplicity = 1

                         Standard orientation:
 ---------------------------------------------------------------------
 Center     Atomic      Atomic             Coordinates (Angstroms)
 Number     Number       Type             X           Y           Z
 ---------------------------------------------------------------------
      1          8           0        0.085613   -1.514810    0.000000
      2          1           0        0.085180   -0.532208    0.000000
      3          1           0       -0.843740   -1.833886    0.000000
      4          8           0        0.085613    1.365240    0.000000
      5          1           0        0.276885    2.329046    0.000000
      6          1           0       -0.888132    1.233603    0.000000
 ---------------------------------------------------------------------

 SCF Done:  E(RHF) =  -152.109041934     A.U. after   10 cycles
 E2 =    -0.5290397828D+00 EUMP2 =    -0.15263808171649D+03
 CCSD(T)
 CCSD(T)= -0.15266502594D+03

 The electronic state is 1-A'.
 Alpha  occ. eigenvalues --  -20.58630 -20.53068  -1.36195  -1.30605  -0.74082
 Alpha  occ. eigenvalues --   -0.68220  -0.59518  -0.53776  -0.53163  -0.47682
 Alpha virt. eigenvalues --    0.11523   0.16621   0.20220   0.30653   0.48498
 Alpha virt. eigenvalues --    0.53885   0.58316   0.59930   0.68758   0.72330
 Alpha virt. eigenvalues --    0.74431   0.77554   0.80904   0.81930   0.83502

 Mulliken charges:
               1
     1  O   -0.541056
     2  H    0.285191
     3  H    0.232910
     4  O   -0.454389
     5  H    0.237376
     6  H    0.239967
 Sum of Mulliken charges =   0.00000

 Dipole moment (field-independent basis, Debye):
    X=             -2.8230    Y=              3.1164    Z=              0.0000  Tot=              4.2049
 Quadrupole moment (field-independent basis, Debye-Ang):
   XX=            -10.4509   YY=             -8.9405   ZZ=            -14.7034
   XY=              2.5380   XZ=              0.0000   YZ=              0.0000

 CCSD(T)=-152.6650259\RMSD=7.845e-09\PG=CS [SG(H4O2)]\\@
 Normal termination of Gaussian 16 at Fri Aug 26 22:10:23 2022.
