 Gaussian 16, Revision A.03,
 Gaussian 16:  ES64L-G16RevA.03 25-Dec-2016

 ------------------
 #p CCSD(T)/cc-pVTZ
 ------------------

 -----------
 H2O_H2O_549
 -----------
 Symbolic Z-matrix:
 Charge =  0 Multiplicity = 1

                         Standard orientation:
 ---------------------------------------------------------------------
 Center     Atomic      Atomic             Coordinates (Angstroms)
 Number     Number       Type             X           Y           Z
 ---------------------------------------------------------------------
      1          8           0        0.013722   -1.310647    0.000000
      2          1           0        0.008247   -0.328061    0.000000
      3          1           0       -0.913981   -1.634487    0.000000
      4          8           0        0.013722    1.151455    0.000000
      5          1           0        0.996308    1.156929    0.000000
      6          1           0       -0.310119    2.079158    0.000000
 ---------------------------------------------------------------------

 SCF Done:  E(RHF) =  -152.099196081     A.U. after   11 cycles
 E2 =    -0.5316686567D+00 EUMP2 =    -0.15263086473748D+03
 CCSD(T)
 CCSD(T)= -0.15265731361D+03

 The electronic state is 1-A'.
 Alpha  occ. eigenvalues --  -20.59894 -20.49788  -1.38453  -1.28074  -0.76637
 Alpha  occ. eigenvalues --   -0.68704  -0.59691  -0.54984  -0.50269  -0.45085
 Alpha virt. eigenvalues --    0.11612   0.18071   0.19508   0.34005   0.47924
 Alpha virt. eigenvalues --    0.53199   0.58059   0.67941   0.69973   0.72037
 Alpha virt. eigenvalues --    0.74619   0.76453   0.78842   0.83874   0.84241

 Mulliken charges:
               1
     1  O   -0.612072
     2  H    0.294432
     3  H    0.244025
     4  O   -0.416179
     5  H    0.257529
     6  H    0.232265
 Sum of Mulliken charges =  -0.00000

 Dipole moment (field-independent basis, Debye):
    X=             -0.4544    Y=              3.8000    Z=              0.0000  Tot=              3.8271
 Quadrupole moment (field-independent basis, Debye-Ang):
   XX=             -9.5948   YY=             -9.3343   ZZ=            -14.6650
   XY=              3.4752   XZ=              0.0000   YZ=              0.0000

 Normal termination of Gaussian 16 at Fri Aug 26 18:59:12 2022.
