 Gaussian 16, Revision A.03,
 Gaussian 16:  ES64L-G16RevA.03 25-Dec-2016

 ------------------
 #p CCSD(T)/cc-pVTZ
 ------------------

 ------------
 H2O_H2O_3352
 ------------
 Symbolic Z-matrix:
 Charge =  0 Multiplicity = 1

                         Standard orientation:
 ---------------------------------------------------------------------
 Center     Atomic      Atomic             Coordinates (Angstroms)
 Number     Number       Type             X           Y           Z
 ---------------------------------------------------------------------
      1          8           0        0.088231   -2.429375    0.000000
      2          1           0        0.088061   -1.446774    0.000000
      3          1           0       -0.841207   -2.748202    0.000000
      4          8           0        0.088231    2.285054    0.000000
      5          1           0        0.216318    3.259272    0.000000
      6          1           0       -0.874871    2.090271    0.000000
 ---------------------------------------------------------------------

 SCF Done:  E(RHF) =  -152.108189098     A.U. after   10 cycles
 E2 =    -0.5259714400D+00 EUMP2 =    -0.15263416053805D+03
 CCSD(T)
 CCSD(T)= -0.15266134860D+03

 The electronic state is 1-A'.
 Alpha  occ. eigenvalues --  -20.56507 -20.55071  -1.33802  -1.32375  -0.71225
 Alpha  occ. eigenvalues --   -0.69762  -0.57277  -0.55832  -0.50914  -0.49491
 Alpha virt. eigenvalues --    0.11913   0.15410   0.19208   0.22558   0.53637
 Alpha virt. eigenvalues --    0.54910   0.56442   0.58086   0.67190   0.69017
 Alpha virt. eigenvalues --    0.77992   0.78578   0.79374   0.81157   0.82589

 Mulliken charges:
               1
     1  O   -0.511173
     2  H    0.259906
     3  H    0.250290
     4  O   -0.510583
     5  H    0.259738
     6  H    0.251822
 Sum of Mulliken charges =  -0.00000

 Dipole moment (field-independent basis, Debye):
    X=             -3.0115    Y=              2.5710    Z=              0.0000  Tot=              3.9597
 Quadrupole moment (field-independent basis, Debye-Ang):
   XX=            -10.5576   YY=             -8.6222   ZZ=            -14.7136
   XY=              2.6009   XZ=              0.0000   YZ=              0.0000

 Normal termination of Gaussian 16 at Fri Aug 26 21:13:36 2022.
