 Gaussian 16, Revision A.03,
 Gaussian 16:  ES64L-G16RevA.03 25-Dec-2016

 ------------------
 #p CCSD(T)/cc-pVTZ
 ------------------

 ------------
 H2O_H2O_4592
 ------------
 Symbolic Z-matrix:
 Charge =  0 Multiplicity = 1

                         Standard orientation:
 ---------------------------------------------------------------------
 Center     Atomic      Atomic             Coordinates (Angstroms)
 Number     Number       Type             X           Y           Z
 ---------------------------------------------------------------------
      1          8           0        0.037407    2.936839    0.000000
      2          1           0        0.035753    1.954239    0.000000
      3          1           0       -0.891548    3.257070   -0.000000
      4          8           0        0.037407   -2.757842    0.000000
      5          1           0        0.917943   -3.193919    0.000000
      6          1           0       -0.660666   -3.449362   -0.000000
 ---------------------------------------------------------------------

 SCF Done:  E(RHF) =  -152.108426897     A.U. after   10 cycles
 E2 =    -0.5258020182D+00 EUMP2 =    -0.15263422891567D+03
 CCSD(T)
 CCSD(T)= -0.15266142654D+03

 The electronic state is 1-A'.
 Alpha  occ. eigenvalues --  -20.56167 -20.54966  -1.33468  -1.32274  -0.70872
 Alpha  occ. eigenvalues --   -0.69676  -0.56962  -0.55746  -0.50587  -0.49397
 Alpha virt. eigenvalues --    0.13406   0.14903   0.19701   0.21023   0.53661
 Alpha virt. eigenvalues --    0.54848   0.56683   0.57796   0.66880   0.68696
 Alpha virt. eigenvalues --    0.78298   0.79459   0.79663   0.80270   0.82600

 Mulliken charges:
               1
     1  O   -0.514076
     2  H    0.260209
     3  H    0.253765
     4  O   -0.514726
     5  H    0.257892
     6  H    0.256935
 Sum of Mulliken charges =   0.00000

 Dipole moment (field-independent basis, Debye):
    X=             -1.2835    Y=             -3.1395    Z=             -0.0000  Tot=              3.3917
 Quadrupole moment (field-independent basis, Debye-Ang):
   XX=             -9.1596   YY=             -6.2362   ZZ=            -14.7149
   XY=             -6.2974   XZ=             -0.0000   YZ=             -0.0000

 Normal termination of Gaussian 16 at Sun Aug 28 04:11:34 2022.
