 Gaussian 16, Revision A.03,
 Gaussian 16:  ES64L-G16RevA.03 25-Dec-2016

 ------------------
 #p CCSD(T)/cc-pVTZ
 ------------------

 ------------
 H2O_H2O_4604
 ------------
 Symbolic Z-matrix:
 Charge =  0 Multiplicity = 1

                         Standard orientation:
 ---------------------------------------------------------------------
 Center     Atomic      Atomic             Coordinates (Angstroms)
 Number     Number       Type             X           Y           Z
 ---------------------------------------------------------------------
      1          8           0        0.082797    2.933517    0.000000
      2          1           0        0.082496    1.950916    0.000000
      3          1           0       -0.846598    3.252469    0.000000
      4          8           0        0.082797   -2.778986   -0.000000
      5          1           0        0.336823   -3.728185   -0.000000
      6          1           0       -0.897480   -2.711448   -0.000000
 ---------------------------------------------------------------------

 SCF Done:  E(RHF) =  -152.107895136     A.U. after   10 cycles
 E2 =    -0.5258501008D+00 EUMP2 =    -0.15263374523712D+03
 CCSD(T)
 CCSD(T)= -0.15266095407D+03

 The electronic state is 1-A'.
 Alpha  occ. eigenvalues --  -20.56183 -20.55186  -1.33485  -1.32489  -0.70896
 Alpha  occ. eigenvalues --   -0.69887  -0.56955  -0.55947  -0.50599  -0.49605
 Alpha virt. eigenvalues --    0.13132   0.14745   0.19307   0.21208   0.53414
 Alpha virt. eigenvalues --    0.54827   0.56605   0.57704   0.66940   0.68523
 Alpha virt. eigenvalues --    0.78290   0.79262   0.79589   0.80888   0.82033

 Mulliken charges:
               1
     1  O   -0.510949
     2  H    0.258542
     3  H    0.252341
     4  O   -0.511924
     5  H    0.258270
     6  H    0.253720
 Sum of Mulliken charges =  -0.00000

 Dipole moment (field-independent basis, Debye):
    X=             -2.8400    Y=             -2.7097    Z=             -0.0000  Tot=              3.9253
 Quadrupole moment (field-independent basis, Debye-Ang):
   XX=            -10.2440   YY=             -7.7690   ZZ=            -14.7129
   XY=             -3.2151   XZ=             -0.0000   YZ=             -0.0000

 Normal termination of Gaussian 16 at Sun Aug 28 04:16:31 2022.
