 Gaussian 16, Revision A.03,
 Gaussian 16:  ES64L-G16RevA.03 25-Dec-2016

 ------------------
 #p CCSD(T)/cc-pVTZ
 ------------------

 ------------
 H2O_H2O_3011
 ------------
 Symbolic Z-matrix:
 Charge =  0 Multiplicity = 1

                         Standard orientation:
 ---------------------------------------------------------------------
 Center     Atomic      Atomic             Coordinates (Angstroms)
 Number     Number       Type             X           Y           Z
 ---------------------------------------------------------------------
      1          8           0        0.059643    2.307761    0.000000
      2          1           0        0.058369    1.325161    0.000000
      3          1           0       -0.869436    2.627633    0.000000
      4          8           0        0.059643   -2.130319   -0.000000
      5          1           0        0.706559   -2.869918   -0.000000
      6          1           0       -0.849782   -2.502412   -0.000000
 ---------------------------------------------------------------------

 SCF Done:  E(RHF) =  -152.109660088     A.U. after   10 cycles
 E2 =    -0.5259578908D+00 EUMP2 =    -0.15263561797890D+03
 CCSD(T)
 CCSD(T)= -0.15266276386D+03

 The electronic state is 1-A'.
 Alpha  occ. eigenvalues --  -20.56650 -20.54489  -1.33929  -1.31808  -0.71333
 Alpha  occ. eigenvalues --   -0.69197  -0.57464  -0.55290  -0.51057  -0.48940
 Alpha virt. eigenvalues --    0.12436   0.15892   0.19456   0.22626   0.53286
 Alpha virt. eigenvalues --    0.55379   0.56303   0.58571   0.68192   0.69335
 Alpha virt. eigenvalues --    0.77838   0.79023   0.79554   0.79893   0.83192

 Mulliken charges:
               1
     1  O   -0.517822
     2  H    0.264190
     3  H    0.250758
     4  O   -0.513321
     5  H    0.260188
     6  H    0.256007
 Sum of Mulliken charges =  -0.00000

 Dipole moment (field-independent basis, Debye):
    X=             -2.0331    Y=             -3.1950    Z=             -0.0000  Tot=              3.7871
 Quadrupole moment (field-independent basis, Debye-Ang):
   XX=             -9.3650   YY=             -7.2844   ZZ=            -14.7191
   XY=             -4.2092   XZ=             -0.0000   YZ=              0.0000

 Normal termination of Gaussian 16 at Fri Aug 26 19:14:30 2022.
