 Gaussian 16, Revision A.03,
 Gaussian 16:  ES64L-G16RevA.03 25-Dec-2016

 ------------------
 #p CCSD(T)/cc-pVTZ
 ------------------

 ------------
 H2O_H2O_1919
 ------------
 Symbolic Z-matrix:
 Charge =  0 Multiplicity = 1

                         Standard orientation:
 ---------------------------------------------------------------------
 Center     Atomic      Atomic             Coordinates (Angstroms)
 Number     Number       Type             X           Y           Z
 ---------------------------------------------------------------------
      1          8           0        0.030246    1.867986    0.000000
      2          1           0        0.027254    0.885390    0.000000
      3          1           0       -0.898273    2.189482   -0.000000
      4          8           0        0.030246   -1.692418    0.000000
      5          1           0        0.959735   -2.011097    0.000000
      6          1           0       -0.572650   -2.468319   -0.000000
 ---------------------------------------------------------------------

 SCF Done:  E(RHF) =  -152.112651895     A.U. after   10 cycles
 E2 =    -0.5264720783D+00 EUMP2 =    -0.15263912397323D+03
 CCSD(T)
 CCSD(T)= -0.15266617884D+03

 The electronic state is 1-A'.
 Alpha  occ. eigenvalues --  -20.57421 -20.53633  -1.34680  -1.31003  -0.72068
 Alpha  occ. eigenvalues --   -0.68454  -0.58401  -0.54452  -0.51819  -0.48159
 Alpha virt. eigenvalues --    0.12231   0.17131   0.19124   0.26687   0.51885
 Alpha virt. eigenvalues --    0.54633   0.56252   0.59074   0.69060   0.72626
 Alpha virt. eigenvalues --    0.75944   0.77712   0.80800   0.83386   0.84395

 Mulliken charges:
               1
     1  O   -0.532691
     2  H    0.269567
     3  H    0.251144
     4  O   -0.508835
     5  H    0.262316
     6  H    0.258499
 Sum of Mulliken charges =  -0.00000

 Dipole moment (field-independent basis, Debye):
    X=             -1.0243    Y=             -3.3215    Z=             -0.0000  Tot=              3.4758
 Quadrupole moment (field-independent basis, Debye-Ang):
   XX=             -9.2309   YY=             -8.0191   ZZ=            -14.7302
   XY=             -4.4336   XZ=              0.0000   YZ=             -0.0000

 Normal termination of Gaussian 16 at Sun Aug 28 02:47:56 2022.
