 Gaussian 16, Revision A.03,
 Gaussian 16:  ES64L-G16RevA.03 25-Dec-2016

 ------------------
 #p CCSD(T)/cc-pVTZ
 ------------------

 ------------
 H2O_H2O_3616
 ------------
 Symbolic Z-matrix:
 Charge =  0 Multiplicity = 1

                         Standard orientation:
 ---------------------------------------------------------------------
 Center     Atomic      Atomic             Coordinates (Angstroms)
 Number     Number       Type             X           Y           Z
 ---------------------------------------------------------------------
      1          8           0        0.041127    2.548445    0.000000
      2          1           0        0.039338    1.565845    0.000000
      3          1           0       -0.887785    2.868803    0.000000
      4          8           0        0.041127   -2.368508    0.000000
      5          1           0        0.891190   -2.861357    0.000000
      6          1           0       -0.700768   -3.012790    0.000000
 ---------------------------------------------------------------------

 SCF Done:  E(RHF) =  -152.109126229     A.U. after   10 cycles
 E2 =    -0.5258417814D+00 EUMP2 =    -0.15263496801035D+03
 CCSD(T)
 CCSD(T)= -0.15266213920D+03

 The electronic state is 1-A'.
 Alpha  occ. eigenvalues --  -20.56401 -20.54691  -1.33693  -1.32004  -0.71095
 Alpha  occ. eigenvalues --   -0.69403  -0.57211  -0.55487  -0.50817  -0.49134
 Alpha virt. eigenvalues --    0.12843   0.15460   0.19572   0.21686   0.53439
 Alpha virt. eigenvalues --    0.55059   0.56522   0.57952   0.66883   0.69295
 Alpha virt. eigenvalues --    0.78084   0.79106   0.79586   0.79705   0.83012

 Mulliken charges:
               1
     1  O   -0.516599
     2  H    0.262590
     3  H    0.252956
     4  O   -0.515889
     5  H    0.259383
     6  H    0.257560
 Sum of Mulliken charges =  -0.00000

 Dipole moment (field-independent basis, Debye):
    X=             -1.4066    Y=             -3.1954    Z=              0.0000  Tot=              3.4913
 Quadrupole moment (field-independent basis, Debye-Ang):
   XX=             -9.1491   YY=             -6.8069   ZZ=            -14.7174
   XY=             -5.3752   XZ=             -0.0000   YZ=              0.0000

 Normal termination of Gaussian 16 at Fri Aug 26 22:42:05 2022.
