 Gaussian 16, Revision A.03,
 Gaussian 16:  ES64L-G16RevA.03 25-Dec-2016

 ------------------
 #p CCSD(T)/cc-pVTZ
 ------------------

 ------------
 H2O_H2O_4630
 ------------
 Symbolic Z-matrix:
 Charge =  0 Multiplicity = 1

                         Standard orientation:
 ---------------------------------------------------------------------
 Center     Atomic      Atomic             Coordinates (Angstroms)
 Number     Number       Type             X           Y           Z
 ---------------------------------------------------------------------
      1          8           0        0.079844    2.945959   -0.000000
      2          1           0        0.079456    1.963358   -0.000000
      3          1           0       -0.849524    3.264992   -0.000000
      4          8           0        0.079844   -2.786881    0.000000
      5          1           0        0.395323   -3.717460    0.000000
      6          1           0       -0.902753   -2.783514    0.000000
 ---------------------------------------------------------------------

 SCF Done:  E(RHF) =  -152.107953207     A.U. after   10 cycles
 E2 =    -0.5258441039D+00 EUMP2 =    -0.15263379731085D+03
 CCSD(T)
 CCSD(T)= -0.15266100494D+03

 The electronic state is 1-A'.
 Alpha  occ. eigenvalues --  -20.56177 -20.55152  -1.33479  -1.32456  -0.70889
 Alpha  occ. eigenvalues --   -0.69854  -0.56951  -0.55915  -0.50593  -0.49573
 Alpha virt. eigenvalues --    0.13205   0.14752   0.19396   0.21129   0.53461
 Alpha virt. eigenvalues --    0.54826   0.56620   0.57712   0.66946   0.68538
 Alpha virt. eigenvalues --    0.78295   0.79293   0.79584   0.80795   0.82126

 Mulliken charges:
               1
     1  O   -0.511281
     2  H    0.258800
     3  H    0.252415
     4  O   -0.512238
     5  H    0.258271
     6  H    0.254034
 Sum of Mulliken charges =   0.00000

 Dipole moment (field-independent basis, Debye):
    X=             -2.7389    Y=             -2.7890    Z=              0.0000  Tot=              3.9090
 Quadrupole moment (field-independent basis, Debye-Ang):
   XX=            -10.0935   YY=             -7.4607   ZZ=            -14.7131
   XY=             -3.4792   XZ=              0.0000   YZ=             -0.0000

 Normal termination of Gaussian 16 at Sun Aug 28 04:30:34 2022.
