 Gaussian 16, Revision A.03,
 Gaussian 16:  ES64L-G16RevA.03 25-Dec-2016

 ------------------
 #p CCSD(T)/cc-pVTZ
 ------------------

 -----------
 H2O_H2O_476
 -----------
 Symbolic Z-matrix:
 Charge =  0 Multiplicity = 1

                         Standard orientation:
 ---------------------------------------------------------------------
 Center     Atomic      Atomic             Coordinates (Angstroms)
 Number     Number       Type             X           Y           Z
 ---------------------------------------------------------------------
      1          8           0        0.090690   -1.279548    0.000000
      2          1           0        0.090531   -0.296946    0.000000
      3          1           0       -0.838752   -1.598364    0.000000
      4          8           0        0.090690    1.140853    0.000000
      5          1           0        0.154796    2.121361    0.000000
      6          1           0       -0.857614    0.883507    0.000000
 ---------------------------------------------------------------------

 SCF Done:  E(RHF) =  -152.087363295     A.U. after   11 cycles
 E2 =    -0.5337425560D+00 EUMP2 =    -0.15262110585137D+03
 CCSD(T)
 CCSD(T)= -0.15264756122D+03

 The electronic state is 1-A'.
 Alpha  occ. eigenvalues --  -20.60091 -20.50981  -1.39146  -1.29138  -0.78382
 Alpha  occ. eigenvalues --   -0.68204  -0.59377  -0.55263  -0.51731  -0.46092
 Alpha virt. eigenvalues --    0.11190   0.16340   0.21092   0.32323   0.48673
 Alpha virt. eigenvalues --    0.51753   0.59100   0.65385   0.71286   0.71307
 Alpha virt. eigenvalues --    0.74025   0.77366   0.78792   0.82684   0.83941

 Mulliken charges:
               1
     1  O   -0.566472
     2  H    0.283500
     3  H    0.212311
     4  O   -0.387860
     5  H    0.229576
     6  H    0.228945
 Sum of Mulliken charges =  -0.00000

 Dipole moment (field-independent basis, Debye):
    X=             -2.9076    Y=              3.4023    Z=              0.0000  Tot=              4.4755
 Quadrupole moment (field-independent basis, Debye-Ang):
   XX=            -10.7288   YY=             -9.4724   ZZ=            -14.6257
   XY=              2.1466   XZ=              0.0000   YZ=              0.0000

 Normal termination of Gaussian 16 at Fri Aug 26 18:31:27 2022.
