 Gaussian 16, Revision A.03,
 Gaussian 16:  ES64L-G16RevA.03 25-Dec-2016

 ------------------
 #p CCSD(T)/cc-pVTZ
 ------------------

 ------------
 H2O_H2O_2141
 ------------
 Symbolic Z-matrix:
 Charge =  0 Multiplicity = 1

                         Standard orientation:
 ---------------------------------------------------------------------
 Center     Atomic      Atomic             Coordinates (Angstroms)
 Number     Number       Type             X           Y           Z
 ---------------------------------------------------------------------
      1          8           0        0.041178    1.960079   -0.000000
      2          1           0        0.038827    0.977480   -0.000000
      3          1           0       -0.887550    2.280969   -0.000000
      4          8           0        0.041178   -1.780189    0.000000
      5          1           0        0.890958   -2.273525    0.000000
      6          1           0       -0.701085   -2.424045    0.000000
 ---------------------------------------------------------------------

 SCF Done:  E(RHF) =  -152.111988133     A.U. after   10 cycles
 E2 =    -0.5262907881D+00 EUMP2 =    -0.15263827892069D+03
 CCSD(T)
 CCSD(T)= -0.15266535437D+03

 The electronic state is 1-A'.
 Alpha  occ. eigenvalues --  -20.57226 -20.53808  -1.34478  -1.31159  -0.71864
 Alpha  occ. eigenvalues --   -0.68577  -0.58145  -0.54631  -0.51619  -0.48311
 Alpha virt. eigenvalues --    0.12271   0.16864   0.19198   0.25622   0.52052
 Alpha virt. eigenvalues --    0.55155   0.56451   0.58929   0.69071   0.72117
 Alpha virt. eigenvalues --    0.76649   0.77906   0.80580   0.83524   0.83842

 Mulliken charges:
               1
     1  O   -0.528247
     2  H    0.268462
     3  H    0.250102
     4  O   -0.509214
     5  H    0.261493
     6  H    0.257404
 Sum of Mulliken charges =  -0.00000

 Dipole moment (field-independent basis, Debye):
    X=             -1.3950    Y=             -3.3578    Z=              0.0000  Tot=              3.6360
 Quadrupole moment (field-independent basis, Debye-Ang):
   XX=             -9.1510   YY=             -7.7746   ZZ=            -14.7274
   XY=             -4.3177   XZ=              0.0000   YZ=             -0.0000

 Normal termination of Gaussian 16 at Sun Aug 28 04:40:36 2022.
