 Gaussian 16, Revision A.03,
 Gaussian 16:  ES64L-G16RevA.03 25-Dec-2016

 ------------------
 #p CCSD(T)/cc-pVTZ
 ------------------

 ------------
 H2O_H2O_2914
 ------------
 Symbolic Z-matrix:
 Charge =  0 Multiplicity = 1

                         Standard orientation:
 ---------------------------------------------------------------------
 Center     Atomic      Atomic             Coordinates (Angstroms)
 Number     Number       Type             X           Y           Z
 ---------------------------------------------------------------------
      1          8           0        0.048589    2.269473   -0.000000
      2          1           0        0.046860    1.286873   -0.000000
      3          1           0       -0.880343    2.589773   -0.000000
      4          8           0        0.048589   -2.089090    0.000000
      5          1           0        0.827086   -2.688630    0.000000
      6          1           0       -0.771020   -2.631074    0.000000
 ---------------------------------------------------------------------

 SCF Done:  E(RHF) =  -152.110032240     A.U. after   10 cycles
 E2 =    -0.5259607482D+00 EUMP2 =    -0.15263599298855D+03
 CCSD(T)
 CCSD(T)= -0.15266312909D+03

 The electronic state is 1-A'.
 Alpha  occ. eigenvalues --  -20.56697 -20.54384  -1.33972  -1.31706  -0.71371
 Alpha  occ. eigenvalues --   -0.69099  -0.57523  -0.55193  -0.51102  -0.48843
 Alpha virt. eigenvalues --    0.12472   0.16027   0.19438   0.22887   0.53104
 Alpha virt. eigenvalues --    0.55502   0.56322   0.58684   0.68608   0.69327
 Alpha virt. eigenvalues --    0.77780   0.79150   0.79367   0.79985   0.83315

 Mulliken charges:
               1
     1  O   -0.519674
     2  H    0.264861
     3  H    0.251368
     4  O   -0.513701
     5  H    0.260226
     6  H    0.256919
 Sum of Mulliken charges =  -0.00000

 Dipole moment (field-independent basis, Debye):
    X=             -1.6556    Y=             -3.2582    Z=              0.0000  Tot=              3.6547
 Quadrupole moment (field-independent basis, Debye-Ang):
   XX=             -9.1831   YY=             -7.2400   ZZ=            -14.7203
   XY=             -4.5949   XZ=              0.0000   YZ=             -0.0000

 Normal termination of Gaussian 16 at Fri Aug 26 18:19:03 2022.
