 Gaussian 16, Revision A.03,
 Gaussian 16:  ES64L-G16RevA.03 25-Dec-2016

 ------------------
 #p CCSD(T)/cc-pVTZ
 ------------------

 ------------
 H2O_H2O_4172
 ------------
 Symbolic Z-matrix:
 Charge =  0 Multiplicity = 1

                         Standard orientation:
 ---------------------------------------------------------------------
 Center     Atomic      Atomic             Coordinates (Angstroms)
 Number     Number       Type             X           Y           Z
 ---------------------------------------------------------------------
      1          8           0       -0.019825    2.760868    0.000000
      2          1           0       -0.017508    1.778270    0.000000
      3          1           0        0.908914    3.081725    0.000000
      4          8           0       -0.019825   -2.593748    0.000000
      5          1           0       -0.993715   -2.724300    0.000000
      6          1           0        0.419512   -3.472662    0.000000
 ---------------------------------------------------------------------

 SCF Done:  E(RHF) =  -152.108638830     A.U. after   10 cycles
 E2 =    -0.5258038215D+00 EUMP2 =    -0.15263444265103D+03
 CCSD(T)
 CCSD(T)= -0.15266163347D+03

 The electronic state is 1-A'.
 Alpha  occ. eigenvalues --  -20.56244 -20.54962  -1.33545  -1.32271  -0.70950
 Alpha  occ. eigenvalues --   -0.69677  -0.57046  -0.55748  -0.50665  -0.49397
 Alpha virt. eigenvalues --    0.13055   0.15082   0.19429   0.21437   0.53360
 Alpha virt. eigenvalues --    0.55022   0.56635   0.57821   0.66707   0.68896
 Alpha virt. eigenvalues --    0.78224   0.79228   0.79456   0.80564   0.82716

 Mulliken charges:
               1
     1  O   -0.515162
     2  H    0.260288
     3  H    0.254605
     4  O   -0.515578
     5  H    0.257605
     6  H    0.258243
 Sum of Mulliken charges =   0.00000

 Dipole moment (field-independent basis, Debye):
    X=              0.6808    Y=             -2.9418    Z=              0.0000  Tot=              3.0196
 Quadrupole moment (field-independent basis, Debye-Ang):
   XX=             -9.4471   YY=             -7.1390   ZZ=            -14.7155
   XY=              7.0232   XZ=              0.0000   YZ=              0.0000

 Normal termination of Gaussian 16 at Sun Aug 28 00:25:15 2022.
