 Gaussian 16, Revision A.03,
 Gaussian 16:  ES64L-G16RevA.03 25-Dec-2016

 ------------------
 #p CCSD(T)/cc-pVTZ
 ------------------

 ------------
 H2O_H2O_4087
 ------------
 Symbolic Z-matrix:
 Charge =  0 Multiplicity = 1

                         Standard orientation:
 ---------------------------------------------------------------------
 Center     Atomic      Atomic             Coordinates (Angstroms)
 Number     Number       Type             X           Y           Z
 ---------------------------------------------------------------------
      1          8           0        0.055971    2.737362   -0.000000
      2          1           0        0.054787    1.754762   -0.000000
      3          1           0       -0.873137    3.057149   -0.000000
      4          8           0        0.055971   -2.558431    0.000000
      5          1           0        0.749938   -3.254073    0.000000
      6          1           0       -0.827131   -2.989287    0.000000
 ---------------------------------------------------------------------

 SCF Done:  E(RHF) =  -152.108590914     A.U. after   10 cycles
 E2 =    -0.5258255786D+00 EUMP2 =    -0.15263441649288D+03
 CCSD(T)
 CCSD(T)= -0.15266160603D+03

 The electronic state is 1-A'.
 Alpha  occ. eigenvalues --  -20.56274 -20.54858  -1.33572  -1.32167  -0.70977
 Alpha  occ. eigenvalues --   -0.69565  -0.57071  -0.55640  -0.50692  -0.49291
 Alpha virt. eigenvalues --    0.13112   0.15128   0.19630   0.21253   0.53545
 Alpha virt. eigenvalues --    0.54904   0.56589   0.57826   0.66686   0.69031
 Alpha virt. eigenvalues --    0.78201   0.79385   0.79560   0.79889   0.82835

 Mulliken charges:
               1
     1  O   -0.514321
     2  H    0.261322
     3  H    0.252626
     4  O   -0.514967
     5  H    0.259077
     6  H    0.256262
 Sum of Mulliken charges =  -0.00000

 Dipole moment (field-independent basis, Debye):
    X=             -1.9171    Y=             -3.1549    Z=              0.0000  Tot=              3.6917
 Quadrupole moment (field-independent basis, Debye-Ang):
   XX=             -9.2854   YY=             -6.5626   ZZ=            -14.7154
   XY=             -4.9117   XZ=              0.0000   YZ=             -0.0000

 Normal termination of Gaussian 16 at Sat Aug 27 23:24:13 2022.
