 Gaussian 16, Revision A.03,
 Gaussian 16:  ES64L-G16RevA.03 25-Dec-2016

 ------------------
 #p CCSD(T)/cc-pVTZ
 ------------------

 ------------
 H2O_H2O_3849
 ------------
 Symbolic Z-matrix:
 Charge =  0 Multiplicity = 1

                         Standard orientation:
 ---------------------------------------------------------------------
 Center     Atomic      Atomic             Coordinates (Angstroms)
 Number     Number       Type             X           Y           Z
 ---------------------------------------------------------------------
      1          8           0       -0.013492    2.626972    0.000000
      2          1           0       -0.010847    1.644374    0.000000
      3          1           0        0.915139    2.948140    0.000000
      4          8           0       -0.013492   -2.467701    0.000000
      5          1           0       -0.996090   -2.470347    0.000000
      6          1           0        0.307676   -3.396333    0.000000
 ---------------------------------------------------------------------

 SCF Done:  E(RHF) =  -152.108797958     A.U. after   10 cycles
 E2 =    -0.5258183955D+00 EUMP2 =    -0.15263461635375D+03
 CCSD(T)
 CCSD(T)= -0.15266180079D+03

 The electronic state is 1-A'.
 Alpha  occ. eigenvalues --  -20.56320 -20.54955  -1.33620  -1.32265  -0.71027
 Alpha  occ. eigenvalues --   -0.69673  -0.57124  -0.55745  -0.50741  -0.49393
 Alpha virt. eigenvalues --    0.12699   0.15259   0.19209   0.21935   0.53201
 Alpha virt. eigenvalues --    0.55208   0.56603   0.57860   0.66710   0.69051
 Alpha virt. eigenvalues --    0.78154   0.78933   0.79458   0.80842   0.82765

 Mulliken charges:
               1
     1  O   -0.515859
     2  H    0.260281
     3  H    0.255063
     4  O   -0.515794
     5  H    0.257410
     6  H    0.258898
 Sum of Mulliken charges =  -0.00000

 Dipole moment (field-independent basis, Debye):
    X=              0.4646    Y=             -2.8141    Z=              0.0000  Tot=              2.8522
 Quadrupole moment (field-independent basis, Debye-Ang):
   XX=             -9.6478   YY=             -7.6966   ZZ=            -14.7160
   XY=              7.1120   XZ=              0.0000   YZ=              0.0000

 Normal termination of Gaussian 16 at Sat Aug 27 00:04:26 2022.
