 Gaussian 16, Revision A.03,
 Gaussian 16:  ES64L-G16RevA.03 25-Dec-2016

 ------------------
 #p CCSD(T)/cc-pVTZ
 ------------------

 ------------
 H2O_H2O_3030
 ------------
 Symbolic Z-matrix:
 Charge =  0 Multiplicity = 1

                         Standard orientation:
 ---------------------------------------------------------------------
 Center     Atomic      Atomic             Coordinates (Angstroms)
 Number     Number       Type             X           Y           Z
 ---------------------------------------------------------------------
      1          8           0        0.079853    2.307746   -0.000000
      2          1           0        0.079354    1.325145   -0.000000
      3          1           0       -0.849479    2.626885   -0.000000
      4          8           0        0.079853   -2.148686    0.000000
      5          1           0        0.395228   -3.079302    0.000000
      6          1           0       -0.902743   -2.145208    0.000000
 ---------------------------------------------------------------------

 SCF Done:  E(RHF) =  -152.108912045     A.U. after   10 cycles
 E2 =    -0.5260101987D+00 EUMP2 =    -0.15263492224352D+03
 CCSD(T)
 CCSD(T)= -0.15266208504D+03

 The electronic state is 1-A'.
 Alpha  occ. eigenvalues --  -20.56640 -20.54777  -1.33927  -1.32088  -0.71346
 Alpha  occ. eigenvalues --   -0.69471  -0.57427  -0.55554  -0.51045  -0.49211
 Alpha virt. eigenvalues --    0.12059   0.15712   0.19413   0.22694   0.53873
 Alpha virt. eigenvalues --    0.55031   0.56366   0.58364   0.67951   0.69240
 Alpha virt. eigenvalues --    0.77849   0.78715   0.79643   0.80607   0.82873

 Mulliken charges:
               1
     1  O   -0.514190
     2  H    0.262336
     3  H    0.249671
     4  O   -0.510908
     5  H    0.259876
     6  H    0.253214
 Sum of Mulliken charges =   0.00000

 Dipole moment (field-independent basis, Debye):
    X=             -2.7210    Y=             -2.8579    Z=              0.0000  Tot=              3.9461
 Quadrupole moment (field-independent basis, Debye-Ang):
   XX=            -10.1034   YY=             -8.0014   ZZ=            -14.7162
   XY=             -3.1839   XZ=              0.0000   YZ=             -0.0000

 Normal termination of Gaussian 16 at Fri Aug 26 19:21:58 2022.
