 Gaussian 16, Revision A.03,
 Gaussian 16:  ES64L-G16RevA.03 25-Dec-2016

 ------------------
 #p CCSD(T)/cc-pVTZ
 ------------------

 ------------
 H2O_H2O_4621
 ------------
 Symbolic Z-matrix:
 Charge =  0 Multiplicity = 1

                         Standard orientation:
 ---------------------------------------------------------------------
 Center     Atomic      Atomic             Coordinates (Angstroms)
 Number     Number       Type             X           Y           Z
 ---------------------------------------------------------------------
      1          8           0       -0.023162    2.942150    0.000000
      2          1           0       -0.021090    1.959551    0.000000
      3          1           0        0.905657    3.262776    0.000000
      4          8           0       -0.023162   -2.771738    0.000000
      5          1           0       -0.986477   -2.965465    0.000000
      6          1           0        0.472506   -3.620159    0.000000
 ---------------------------------------------------------------------

 SCF Done:  E(RHF) =  -152.108410942     A.U. after   10 cycles
 E2 =    -0.5257986287D+00 EUMP2 =    -0.15263420957073D+03
 CCSD(T)
 CCSD(T)= -0.15266140813D+03

 The electronic state is 1-A'.
 Alpha  occ. eigenvalues --  -20.56159 -20.55031  -1.33462  -1.32338  -0.70867
 Alpha  occ. eigenvalues --   -0.69744  -0.56954  -0.55811  -0.50581  -0.49462
 Alpha virt. eigenvalues --    0.13362   0.14867   0.19590   0.21090   0.53570
 Alpha virt. eigenvalues --    0.54864   0.56688   0.57775   0.66902   0.68624
 Alpha virt. eigenvalues --    0.78304   0.79396   0.79586   0.80559   0.82418

 Mulliken charges:
               1
     1  O   -0.514167
     2  H    0.259625
     3  H    0.254457
     4  O   -0.514718
     5  H    0.257286
     6  H    0.257517
 Sum of Mulliken charges =  -0.00000

 Dipole moment (field-independent basis, Debye):
    X=              0.7955    Y=             -2.9874    Z=              0.0000  Tot=              3.0915
 Quadrupole moment (field-independent basis, Debye-Ang):
   XX=             -9.3623   YY=             -6.7288   ZZ=            -14.7148
   XY=              7.2386   XZ=              0.0000   YZ=              0.0000

 Normal termination of Gaussian 16 at Sun Aug 28 04:26:32 2022.
