 Gaussian 16, Revision A.03,
 Gaussian 16:  ES64L-G16RevA.03 25-Dec-2016

 ------------------
 #p CCSD(T)/cc-pVTZ
 ------------------

 ------------
 H2O_H2O_4620
 ------------
 Symbolic Z-matrix:
 Charge =  0 Multiplicity = 1

                         Standard orientation:
 ---------------------------------------------------------------------
 Center     Atomic      Atomic             Coordinates (Angstroms)
 Number     Number       Type             X           Y           Z
 ---------------------------------------------------------------------
      1          8           0        0.026611    2.943693    0.000000
      2          1           0        0.024642    1.961093    0.000000
      3          1           0       -0.902241    3.264221   -0.000000
      4          8           0        0.026611   -2.770440    0.000000
      5          1           0        0.975220   -3.026657    0.000000
      6          1           0       -0.523401   -3.584682   -0.000000
 ---------------------------------------------------------------------

 SCF Done:  E(RHF) =  -152.108419849     A.U. after   10 cycles
 E2 =    -0.5257988743D+00 EUMP2 =    -0.15263421872276D+03
 CCSD(T)
 CCSD(T)= -0.15266141696D+03

 The electronic state is 1-A'.
 Alpha  occ. eigenvalues --  -20.56160 -20.55011  -1.33462  -1.32318  -0.70867
 Alpha  occ. eigenvalues --   -0.69723  -0.56955  -0.55791  -0.50581  -0.49442
 Alpha virt. eigenvalues --    0.13383   0.14876   0.19633   0.21060   0.53601
 Alpha virt. eigenvalues --    0.54859   0.56688   0.57782   0.66899   0.68642
 Alpha virt. eigenvalues --    0.78303   0.79415   0.79598   0.80484   0.82477

 Mulliken charges:
               1
     1  O   -0.514172
     2  H    0.259803
     3  H    0.254281
     4  O   -0.514746
     5  H    0.257453
     6  H    0.257381
 Sum of Mulliken charges =  -0.00000

 Dipole moment (field-independent basis, Debye):
    X=             -0.9137    Y=             -3.0375    Z=             -0.0000  Tot=              3.1719
 Quadrupole moment (field-independent basis, Debye-Ang):
   XX=             -9.2894   YY=             -6.5574   ZZ=            -14.7148
   XY=             -7.0045   XZ=              0.0000   YZ=             -0.0000

 Normal termination of Gaussian 16 at Sun Aug 28 04:25:20 2022.
