 Gaussian 16, Revision A.03,
 Gaussian 16:  ES64L-G16RevA.03 25-Dec-2016

 ------------------
 #p CCSD(T)/cc-pVTZ
 ------------------

 ------------
 H2O_H2O_2083
 ------------
 Symbolic Z-matrix:
 Charge =  0 Multiplicity = 1

                         Standard orientation:
 ---------------------------------------------------------------------
 Center     Atomic      Atomic             Coordinates (Angstroms)
 Number     Number       Type             X           Y           Z
 ---------------------------------------------------------------------
      1          8           0        0.070215    1.934876   -0.000000
      2          1           0        0.069171    0.952275   -0.000000
      3          1           0       -0.858939    2.254530   -0.000000
      4          8           0        0.070215   -1.764658    0.000000
      5          1           0        0.560612   -2.616138    0.000000
      6          1           0       -0.894283   -1.952407    0.000000
 ---------------------------------------------------------------------

 SCF Done:  E(RHF) =  -152.111174560     A.U. after   10 cycles
 E2 =    -0.5264406008D+00 EUMP2 =    -0.15263761516074D+03
 CCSD(T)
 CCSD(T)= -0.15266470110D+03

 The electronic state is 1-A'.
 Alpha  occ. eigenvalues --  -20.57275 -20.54021  -1.34538  -1.31363  -0.71952
 Alpha  occ. eigenvalues --   -0.68756  -0.58155  -0.54815  -0.51665  -0.48501
 Alpha virt. eigenvalues --    0.12014   0.16606   0.19400   0.25578   0.51883
 Alpha virt. eigenvalues --    0.55698   0.56061   0.58494   0.68916   0.72339
 Alpha virt. eigenvalues --    0.76475   0.78368   0.80443   0.83415   0.83681

 Mulliken charges:
               1
     1  O   -0.523341
     2  H    0.267817
     3  H    0.246432
     4  O   -0.505652
     5  H    0.260573
     6  H    0.254171
 Sum of Mulliken charges =  -0.00000

 Dipole moment (field-independent basis, Debye):
    X=             -2.3743    Y=             -3.1820    Z=              0.0000  Tot=              3.9702
 Quadrupole moment (field-independent basis, Debye-Ang):
   XX=             -9.6967   YY=             -8.0366   ZZ=            -14.7242
   XY=             -3.4283   XZ=              0.0000   YZ=              0.0000

 Normal termination of Gaussian 16 at Sun Aug 28 04:11:46 2022.
