 Gaussian 16, Revision A.03,
 Gaussian 16:  ES64L-G16RevA.03 25-Dec-2016

 ------------------
 #p CCSD(T)/cc-pVTZ
 ------------------

 ------------
 H2O_H2O_3169
 ------------
 Symbolic Z-matrix:
 Charge =  0 Multiplicity = 1

                         Standard orientation:
 ---------------------------------------------------------------------
 Center     Atomic      Atomic             Coordinates (Angstroms)
 Number     Number       Type             X           Y           Z
 ---------------------------------------------------------------------
      1          8           0        0.030187    2.366601   -0.000000
      2          1           0        0.027850    1.384003   -0.000000
      3          1           0       -0.898545    2.687478    0.000000
      4          8           0        0.030187   -2.190993   -0.000000
      5          1           0        0.959889   -2.509052   -0.000000
      6          1           0       -0.572191   -2.967295    0.000000
 ---------------------------------------------------------------------

 SCF Done:  E(RHF) =  -152.109702194     A.U. after   10 cycles
 E2 =    -0.5258909596D+00 EUMP2 =    -0.15263559315333D+03
 CCSD(T)
 CCSD(T)= -0.15266274346D+03

 The electronic state is 1-A'.
 Alpha  occ. eigenvalues --  -20.56563 -20.54553  -1.33848  -1.31872  -0.71249
 Alpha  occ. eigenvalues --   -0.69272  -0.57386  -0.55361  -0.50976  -0.49007
 Alpha virt. eigenvalues --    0.12543   0.15809   0.19426   0.22452   0.53350
 Alpha virt. eigenvalues --    0.55413   0.56459   0.58269   0.67729   0.69351
 Alpha virt. eigenvalues --    0.77925   0.78860   0.79824   0.79849   0.83151

 Mulliken charges:
               1
     1  O   -0.519064
     2  H    0.263487
     3  H    0.253342
     4  O   -0.515478
     5  H    0.259462
     6  H    0.258251
 Sum of Mulliken charges =  -0.00000

 Dipole moment (field-independent basis, Debye):
    X=             -1.0313    Y=             -3.1477    Z=             -0.0000  Tot=              3.3123
 Quadrupole moment (field-independent basis, Debye-Ang):
   XX=             -9.2294   YY=             -7.2545   ZZ=            -14.7193
   XY=             -5.5192   XZ=             -0.0000   YZ=             -0.0000

 CCSD(T)=-152.6627435\RMSD=6.883e-09\PG=CS [SG(H4O2)]\\@
 Normal termination of Gaussian 16 at Fri Aug 26 20:11:28 2022.
