 Gaussian 16, Revision A.03,
 Gaussian 16:  ES64L-G16RevA.03 25-Dec-2016

 ------------------
 #p CCSD(T)/cc-pVTZ
 ------------------

 ------------
 H2O_H2O_3381
 ------------
 Symbolic Z-matrix:
 Charge =  0 Multiplicity = 1

                         Standard orientation:
 ---------------------------------------------------------------------
 Center     Atomic      Atomic             Coordinates (Angstroms)
 Number     Number       Type             X           Y           Z
 ---------------------------------------------------------------------
      1          8           0        0.076756    2.449609    0.000000
      2          1           0        0.076176    1.467008    0.000000
      3          1           0       -0.852549    2.768824    0.000000
      4          8           0        0.076756   -2.286396   -0.000000
      5          1           0        0.452245   -3.194425   -0.000000
      6          1           0       -0.903968   -2.347109   -0.000000
 ---------------------------------------------------------------------

 SCF Done:  E(RHF) =  -152.108694272     A.U. after   10 cycles
 E2 =    -0.5259275702D+00 EUMP2 =    -0.15263462184263D+03
 CCSD(T)
 CCSD(T)= -0.15266179751D+03

 The electronic state is 1-A'.
 Alpha  occ. eigenvalues --  -20.56493 -20.54837  -1.33785  -1.32147  -0.71198
 Alpha  occ. eigenvalues --   -0.69535  -0.57281  -0.55615  -0.50903  -0.49269
 Alpha virt. eigenvalues --    0.12337   0.15491   0.19379   0.22093   0.53458
 Alpha virt. eigenvalues --    0.55084   0.56409   0.58161   0.67149   0.69233
 Alpha virt. eigenvalues --    0.78003   0.78662   0.79582   0.80520   0.82836

 Mulliken charges:
               1
     1  O   -0.513580
     2  H    0.261579
     3  H    0.250697
     4  O   -0.512690
     5  H    0.259920
     6  H    0.254074
 Sum of Mulliken charges =  -0.00000

 Dipole moment (field-independent basis, Debye):
    X=             -2.6210    Y=             -2.9094    Z=             -0.0000  Tot=              3.9158
 Quadrupole moment (field-independent basis, Debye-Ang):
   XX=             -9.9533   YY=             -7.6906   ZZ=            -14.7157
   XY=             -3.4524   XZ=             -0.0000   YZ=             -0.0000

 Normal termination of Gaussian 16 at Fri Aug 26 21:23:09 2022.
