 Gaussian 16, Revision A.03,
 Gaussian 16:  ES64L-G16RevA.03 25-Dec-2016

 ------------------
 #p CCSD(T)/cc-pVTZ
 ------------------

 -----------
 H2O_H2O_273
 -----------
 Symbolic Z-matrix:
 Charge =  0 Multiplicity = 1

                         Standard orientation:
 ---------------------------------------------------------------------
 Center     Atomic      Atomic             Coordinates (Angstroms)
 Number     Number       Type             X           Y           Z
 ---------------------------------------------------------------------
      1          8           0        0.016869   -1.203184    0.000000
      2          1           0        0.011094   -0.220599    0.000000
      3          1           0       -0.910736   -1.527307    0.000000
      4          8           0        0.016869    1.039893    0.000000
      5          1           0        0.996972    1.109919    0.000000
      6          1           0       -0.367229    1.944313    0.000000
 ---------------------------------------------------------------------

 SCF Done:  E(RHF) =  -152.075121295     A.U. after   11 cycles
 E2 =    -0.5342619097D+00 EUMP2 =    -0.15260938320518D+03
 CCSD(T)
 CCSD(T)= -0.15263533407D+03

 The electronic state is 1-A'.
 Alpha  occ. eigenvalues --  -20.60933 -20.47155  -1.40967  -1.26297  -0.79220
 Alpha  occ. eigenvalues --   -0.71283  -0.57808  -0.56715  -0.47457  -0.43136
 Alpha virt. eigenvalues --    0.11113   0.17542   0.20220   0.34025   0.47609
 Alpha virt. eigenvalues --    0.52408   0.59529   0.68745   0.71793   0.72261
 Alpha virt. eigenvalues --    0.76270   0.77535   0.78130   0.84324   0.85063

 Mulliken charges:
               1
     1  O   -0.647218
     2  H    0.287710
     3  H    0.232901
     4  O   -0.365283
     5  H    0.261232
     6  H    0.230658
 Sum of Mulliken charges =  -0.00000

 Dipole moment (field-independent basis, Debye):
    X=             -0.5306    Y=              4.3084    Z=              0.0000  Tot=              4.3409
 Quadrupole moment (field-independent basis, Debye-Ang):
   XX=             -9.4485   YY=             -9.7341   ZZ=            -14.6079
   XY=              3.0796   XZ=              0.0000   YZ=              0.0000

 Normal termination of Gaussian 16 at Fri Aug 26 17:05:17 2022.
