 Gaussian 16, Revision A.03,
 Gaussian 16:  ES64L-G16RevA.03 25-Dec-2016

 ------------------
 #p CCSD(T)/cc-pVTZ
 ------------------

 -----------
 H2O_H2O_814
 -----------
 Symbolic Z-matrix:
 Charge =  0 Multiplicity = 1

                         Standard orientation:
 ---------------------------------------------------------------------
 Center     Atomic      Atomic             Coordinates (Angstroms)
 Number     Number       Type             X           Y           Z
 ---------------------------------------------------------------------
      1          8           0        0.048688    1.431779   -0.000000
      2          1           0        0.045880    0.449182   -0.000000
      3          1           0       -0.879891    1.753100   -0.000000
      4          8           0        0.048688   -1.251504    0.000000
      5          1           0        0.826525   -1.851898    0.000000
      6          1           0       -0.771517   -1.792587    0.000000
 ---------------------------------------------------------------------

 SCF Done:  E(RHF) =  -152.111042605     A.U. after   10 cycles
 E2 =    -0.5295770054D+00 EUMP2 =    -0.15264061961077D+03
 CCSD(T)
 CCSD(T)= -0.15266733122D+03

 The electronic state is 1-A'.
 Alpha  occ. eigenvalues --  -20.59298 -20.50699  -1.37022  -1.28608  -0.74065
 Alpha  occ. eigenvalues --   -0.68796  -0.59596  -0.53989  -0.51359  -0.45674
 Alpha virt. eigenvalues --    0.11639   0.17917   0.19241   0.32823   0.47959
 Alpha virt. eigenvalues --    0.54345   0.58504   0.61587   0.69711   0.71857
 Alpha virt. eigenvalues --    0.72480   0.77840   0.82052   0.82872   0.84600

 Mulliken charges:
               1
     1  O   -0.583639
     2  H    0.307436
     3  H    0.235455
     4  O   -0.478674
     5  H    0.264046
     6  H    0.255376
 Sum of Mulliken charges =  -0.00000

 Dipole moment (field-independent basis, Debye):
    X=             -1.5902    Y=             -3.9547    Z=              0.0000  Tot=              4.2624
 Quadrupole moment (field-independent basis, Debye-Ang):
   XX=             -9.1768   YY=             -8.9935   ZZ=            -14.7131
   XY=             -3.2621   XZ=              0.0000   YZ=             -0.0000

 Normal termination of Gaussian 16 at Fri Aug 26 20:40:41 2022.
