 Gaussian 16, Revision A.03,
 Gaussian 16:  ES64L-G16RevA.03 25-Dec-2016

 ------------------
 #p CCSD(T)/cc-pVTZ
 ------------------

 ------------
 H2O_H2O_2178
 ------------
 Symbolic Z-matrix:
 Charge =  0 Multiplicity = 1

                         Standard orientation:
 ---------------------------------------------------------------------
 Center     Atomic      Atomic             Coordinates (Angstroms)
 Number     Number       Type             X           Y           Z
 ---------------------------------------------------------------------
      1          8           0        0.085605   -1.963555    0.000000
      2          1           0        0.085275   -0.980954    0.000000
      3          1           0       -0.843781   -2.282534    0.000000
      4          8           0        0.085605    1.813968    0.000000
      5          1           0        0.276978    2.777754    0.000000
      6          1           0       -0.888152    1.682433    0.000000
 ---------------------------------------------------------------------

 SCF Done:  E(RHF) =  -152.109667730     A.U. after   10 cycles
 E2 =    -0.5264692553D+00 EUMP2 =    -0.15263613698526D+03
 CCSD(T)
 CCSD(T)= -0.15266325753D+03

 The electronic state is 1-A'.
 Alpha  occ. eigenvalues --  -20.57167 -20.54561  -1.34450  -1.31880  -0.71913
 Alpha  occ. eigenvalues --   -0.69237  -0.57980  -0.55323  -0.51560  -0.49002
 Alpha virt. eigenvalues --    0.11688   0.16195   0.19781   0.24957   0.52554
 Alpha virt. eigenvalues --    0.55779   0.56555   0.57734   0.68586   0.72633
 Alpha virt. eigenvalues --    0.76685   0.79220   0.79993   0.81515   0.83337

 Mulliken charges:
               1
     1  O   -0.517104
     2  H    0.265458
     3  H    0.245794
     4  O   -0.503048
     5  H    0.259024
     6  H    0.249876
 Sum of Mulliken charges =   0.00000

 Dipole moment (field-independent basis, Debye):
    X=             -2.8945    Y=              2.7723    Z=              0.0000  Tot=              4.0079
 Quadrupole moment (field-independent basis, Debye-Ang):
   XX=            -10.4251   YY=             -8.5820   ZZ=            -14.7180
   XY=              2.6930   XZ=              0.0000   YZ=              0.0000

 Normal termination of Gaussian 16 at Sun Aug 28 05:08:36 2022.
