 Gaussian 16, Revision A.03,
 Gaussian 16:  ES64L-G16RevA.03 25-Dec-2016

 ------------------
 #p CCSD(T)/cc-pVTZ
 ------------------

 ------------
 H2O_H2O_1207
 ------------
 Symbolic Z-matrix:
 Charge =  0 Multiplicity = 1

                         Standard orientation:
 ---------------------------------------------------------------------
 Center     Atomic      Atomic             Coordinates (Angstroms)
 Number     Number       Type             X           Y           Z
 ---------------------------------------------------------------------
      1          8           0        0.073567    1.584050   -0.000000
      2          1           0        0.072469    0.601449   -0.000000
      3          1           0       -0.855569    1.903754   -0.000000
      4          8           0        0.073567   -1.417164    0.000000
      5          1           0        0.507176   -2.298917    0.000000
      6          1           0       -0.901152   -1.541375    0.000000
 ---------------------------------------------------------------------

 SCF Done:  E(RHF) =  -152.112173320     A.U. after   10 cycles
 E2 =    -0.5281193066D+00 EUMP2 =    -0.15264029262636D+03
 CCSD(T)
 CCSD(T)= -0.15266724626D+03

 The electronic state is 1-A'.
 Alpha  occ. eigenvalues --  -20.58393 -20.52795  -1.35801  -1.30306  -0.73281
 Alpha  occ. eigenvalues --   -0.68134  -0.59402  -0.53523  -0.52866  -0.47418
 Alpha virt. eigenvalues --    0.11721   0.17041   0.19593   0.30284   0.48708
 Alpha virt. eigenvalues --    0.54807   0.58087   0.58880   0.69713   0.73139
 Alpha virt. eigenvalues --    0.74183   0.76522   0.81805   0.82246   0.84222

 Mulliken charges:
               1
     1  O   -0.544353
     2  H    0.285617
     3  H    0.237668
     4  O   -0.481123
     5  H    0.251125
     6  H    0.251067
 Sum of Mulliken charges =  -0.00000

 Dipole moment (field-independent basis, Debye):
    X=             -2.4412    Y=             -3.3891    Z=              0.0000  Tot=              4.1767
 Quadrupole moment (field-independent basis, Debye-Ang):
   XX=             -9.8440   YY=             -8.6396   ZZ=            -14.7223
   XY=             -3.0404   XZ=              0.0000   YZ=             -0.0000

 Normal termination of Gaussian 16 at Fri Aug 26 23:07:36 2022.
