 Gaussian 16, Revision A.03,
 Gaussian 16:  ES64L-G16RevA.03 25-Dec-2016

 ------------------
 #p CCSD(T)/cc-pVTZ
 ------------------

 ------------
 H2O_H2O_3643
 ------------
 Symbolic Z-matrix:
 Charge =  0 Multiplicity = 1

                         Standard orientation:
 ---------------------------------------------------------------------
 Center     Atomic      Atomic             Coordinates (Angstroms)
 Number     Number       Type             X           Y           Z
 ---------------------------------------------------------------------
      1          8           0        0.033774    2.557114   -0.000000
      2          1           0        0.031739    1.574514   -0.000000
      3          1           0       -0.895057    2.877704   -0.000000
      4          8           0        0.033774   -2.379578    0.000000
      5          1           0        0.940799   -2.757482    0.000000
      6          1           0       -0.617862   -3.115021    0.000000
 ---------------------------------------------------------------------

 SCF Done:  E(RHF) =  -152.109120575     A.U. after   10 cycles
 E2 =    -0.5258345851D+00 EUMP2 =    -0.15263495516041D+03
 CCSD(T)
 CCSD(T)= -0.15266212733D+03

 The electronic state is 1-A'.
 Alpha  occ. eigenvalues --  -20.56389 -20.54720  -1.33682  -1.32033  -0.71084
 Alpha  occ. eigenvalues --   -0.69434  -0.57200  -0.55516  -0.50806  -0.49163
 Alpha virt. eigenvalues --    0.12833   0.15441   0.19536   0.21705   0.53405
 Alpha virt. eigenvalues --    0.55104   0.56541   0.57933   0.66851   0.69271
 Alpha virt. eigenvalues --    0.78094   0.78975   0.79677   0.79850   0.82986

 Mulliken charges:
               1
     1  O   -0.516759
     2  H    0.262314
     3  H    0.253467
     4  O   -0.516101
     5  H    0.259069
     6  H    0.258009
 Sum of Mulliken charges =  -0.00000

 Dipole moment (field-independent basis, Debye):
    X=             -1.1557    Y=             -3.1507    Z=              0.0000  Tot=              3.3560
 Quadrupole moment (field-independent basis, Debye-Ang):
   XX=             -9.1861   YY=             -6.8958   ZZ=            -14.7173
   XY=             -5.7490   XZ=              0.0000   YZ=             -0.0000

 Normal termination of Gaussian 16 at Fri Aug 26 22:51:05 2022.
