 Gaussian 16, Revision A.03,
 Gaussian 16:  ES64L-G16RevA.03 25-Dec-2016

 ------------------
 #p CCSD(T)/cc-pVTZ
 ------------------

 ------------
 H2O_H2O_3146
 ------------
 Symbolic Z-matrix:
 Charge =  0 Multiplicity = 1

                         Standard orientation:
 ---------------------------------------------------------------------
 Center     Atomic      Atomic             Coordinates (Angstroms)
 Number     Number       Type             X           Y           Z
 ---------------------------------------------------------------------
      1          8           0       -0.023209    2.353795    0.000000
      2          1           0       -0.020600    1.371197    0.000000
      3          1           0        0.905435    2.674928    0.000000
      4          8           0       -0.023209   -2.183408    0.000000
      5          1           0       -0.986417   -2.377662    0.000000
      6          1           0        0.472924   -3.031558    0.000000
 ---------------------------------------------------------------------

 SCF Done:  E(RHF) =  -152.109684408     A.U. after   10 cycles
 E2 =    -0.5258929503D+00 EUMP2 =    -0.15263557735830D+03
 CCSD(T)
 CCSD(T)= -0.15266272829D+03

 The electronic state is 1-A'.
 Alpha  occ. eigenvalues --  -20.56567 -20.54603  -1.33853  -1.31921  -0.71257
 Alpha  occ. eigenvalues --   -0.69325  -0.57390  -0.55411  -0.50981  -0.49057
 Alpha virt. eigenvalues --    0.12457   0.15812   0.19352   0.22611   0.53455
 Alpha virt. eigenvalues --    0.55470   0.56468   0.58229   0.67746   0.69347
 Alpha virt. eigenvalues --    0.77917   0.78790   0.79776   0.80196   0.83118

 Mulliken charges:
               1
     1  O   -0.519240
     2  H    0.263064
     3  H    0.253979
     4  O   -0.515490
     5  H    0.259064
     6  H    0.258623
 Sum of Mulliken charges =  -0.00000

 Dipole moment (field-independent basis, Debye):
    X=              0.7941    Y=             -3.0544    Z=              0.0000  Tot=              3.1559
 Quadrupole moment (field-independent basis, Debye-Ang):
   XX=             -9.3612   YY=             -7.4723   ZZ=            -14.7192
   XY=              5.8226   XZ=              0.0000   YZ=              0.0000

 CCSD(T)=-152.6627283\RMSD=6.881e-09\PG=CS [SG(H4O2)]\\@
 Normal termination of Gaussian 16 at Fri Aug 26 20:03:51 2022.
