 Gaussian 16, Revision A.03,
 Gaussian 16:  ES64L-G16RevA.03 25-Dec-2016

 ------------------
 #p CCSD(T)/cc-pVTZ
 ------------------

 ------------
 H2O_H2O_2951
 ------------
 Symbolic Z-matrix:
 Charge =  0 Multiplicity = 1

                         Standard orientation:
 ---------------------------------------------------------------------
 Center     Atomic      Atomic             Coordinates (Angstroms)
 Number     Number       Type             X           Y           Z
 ---------------------------------------------------------------------
      1          8           0        0.090685   -2.266776    0.000000
      2          1           0        0.090597   -1.284174    0.000000
      3          1           0       -0.838780   -2.585525    0.000000
      4          8           0        0.090685    2.128068    0.000000
      5          1           0        0.154862    3.108571    0.000000
      6          1           0       -0.857638    1.870790    0.000000
 ---------------------------------------------------------------------

 SCF Done:  E(RHF) =  -152.108283080     A.U. after   10 cycles
 E2 =    -0.5260852967D+00 EUMP2 =    -0.15263436837654D+03
 CCSD(T)
 CCSD(T)= -0.15266154596D+03

 The electronic state is 1-A'.
 Alpha  occ. eigenvalues --  -20.56675 -20.55058  -1.33968  -1.32361  -0.71402
 Alpha  occ. eigenvalues --   -0.69739  -0.57442  -0.55814  -0.51077  -0.49476
 Alpha virt. eigenvalues --    0.11605   0.15621   0.19429   0.23234   0.54445
 Alpha virt. eigenvalues --    0.54581   0.56460   0.58130   0.68145   0.69016
 Alpha virt. eigenvalues --    0.77801   0.78494   0.79404   0.80980   0.82696

 Mulliken charges:
               1
     1  O   -0.511435
     2  H    0.260737
     3  H    0.249096
     4  O   -0.508267
     5  H    0.259700
     6  H    0.250169
 Sum of Mulliken charges =  -0.00000

 Dipole moment (field-independent basis, Debye):
    X=             -3.0869    Y=              2.4927    Z=              0.0000  Tot=              3.9677
 Quadrupole moment (field-independent basis, Debye-Ang):
   XX=            -10.7138   YY=             -8.9281   ZZ=            -14.7135
   XY=              2.3627   XZ=              0.0000   YZ=              0.0000

 CCSD(T)=-152.661546\RMSD=7.197e-09\PG=CS [SG(H4O2)]\\@
 Normal termination of Gaussian 16 at Fri Aug 26 18:40:52 2022.
