 Gaussian 16, Revision A.03,
 Gaussian 16:  ES64L-G16RevA.03 25-Dec-2016

 ------------------
 #p CCSD(T)/cc-pVTZ
 ------------------

 ------------
 H2O_H2O_1376
 ------------
 Symbolic Z-matrix:
 Charge =  0 Multiplicity = 1

                         Standard orientation:
 ---------------------------------------------------------------------
 Center     Atomic      Atomic             Coordinates (Angstroms)
 Number     Number       Type             X           Y           Z
 ---------------------------------------------------------------------
      1          8           0        0.090687   -1.638540    0.000000
      2          1           0        0.090565   -0.655939    0.000000
      3          1           0       -0.838766   -1.957323    0.000000
      4          8           0        0.090687    1.499839    0.000000
      5          1           0        0.154831    2.480346    0.000000
      6          1           0       -0.857625    1.242529    0.000000
 ---------------------------------------------------------------------

 SCF Done:  E(RHF) =  -152.109193614     A.U. after   10 cycles
 E2 =    -0.5279603063D+00 EUMP2 =    -0.15263715391998D+03
 CCSD(T)
 CCSD(T)= -0.15266421954D+03

 The electronic state is 1-A'.
 Alpha  occ. eigenvalues --  -20.58042 -20.54124  -1.35441  -1.31511  -0.73246
 Alpha  occ. eigenvalues --   -0.68750  -0.58928  -0.54842  -0.52477  -0.48604
 Alpha virt. eigenvalues --    0.11514   0.16389   0.20406   0.28536   0.49408
 Alpha virt. eigenvalues --    0.54189   0.57792   0.58576   0.68052   0.73252
 Alpha virt. eigenvalues --    0.74377   0.77855   0.80803   0.81646   0.83358

 Mulliken charges:
               1
     1  O   -0.524812
     2  H    0.275289
     3  H    0.237942
     4  O   -0.475421
     5  H    0.246140
     6  H    0.240863
 Sum of Mulliken charges =  -0.00000

 Dipole moment (field-independent basis, Debye):
    X=             -3.0199    Y=              2.7452    Z=              0.0000  Tot=              4.0812
 Quadrupole moment (field-independent basis, Debye-Ang):
   XX=            -10.7539   YY=             -9.0183   ZZ=            -14.7097
   XY=              2.2792   XZ=              0.0000   YZ=              0.0000

 CCSD(T)=-152.6642195\RMSD=7.424e-09\PG=CS [SG(H4O2)]\\@
 Normal termination of Gaussian 16 at Sat Aug 27 00:12:31 2022.
