 Gaussian 16, Revision A.03,
 Gaussian 16:  ES64L-G16RevA.03 25-Dec-2016

 ------------------
 #p CCSD(T)/cc-pVTZ
 ------------------

 ------------
 H2O_H2O_3128
 ------------
 Symbolic Z-matrix:
 Charge =  0 Multiplicity = 1

                         Standard orientation:
 ---------------------------------------------------------------------
 Center     Atomic      Atomic             Coordinates (Angstroms)
 Number     Number       Type             X           Y           Z
 ---------------------------------------------------------------------
      1          8           0        0.085601   -2.342494    0.000000
      2          1           0        0.085326   -1.359893    0.000000
      3          1           0       -0.843803   -2.661421    0.000000
      4          8           0        0.085601    2.192897    0.000000
      5          1           0        0.277027    3.156672    0.000000
      6          1           0       -0.888165    2.061416    0.000000
 ---------------------------------------------------------------------

 SCF Done:  E(RHF) =  -152.108502844     A.U. after   10 cycles
 E2 =    -0.5260084032D+00 EUMP2 =    -0.15263451124695D+03
 CCSD(T)
 CCSD(T)= -0.15266168658D+03

 The electronic state is 1-A'.
 Alpha  occ. eigenvalues --  -20.56595 -20.54945  -1.33887  -1.32252  -0.71310
 Alpha  occ. eigenvalues --   -0.69635  -0.57372  -0.55712  -0.51001  -0.49370
 Alpha virt. eigenvalues --    0.11904   0.15580   0.19350   0.22704   0.53964
 Alpha virt. eigenvalues --    0.54864   0.56419   0.58216   0.67664   0.69115
 Alpha virt. eigenvalues --    0.77899   0.78574   0.79492   0.80954   0.82713

 Mulliken charges:
               1
     1  O   -0.512414
     2  H    0.261076
     3  H    0.249756
     4  O   -0.510309
     5  H    0.259808
     6  H    0.252084
 Sum of Mulliken charges =  -0.00000

 Dipole moment (field-independent basis, Debye):
    X=             -2.9181    Y=              2.6790    Z=              0.0000  Tot=              3.9614
 Quadrupole moment (field-independent basis, Debye-Ang):
   XX=            -10.4071   YY=             -8.3972   ZZ=            -14.7147
   XY=              2.7966   XZ=              0.0000   YZ=              0.0000

 Normal termination of Gaussian 16 at Fri Aug 26 19:55:30 2022.
