 Gaussian 16, Revision A.03,
 Gaussian 16:  ES64L-G16RevA.03 25-Dec-2016

 ------------------
 #p CCSD(T)/cc-pVTZ
 ------------------

 -----------
 H2O_H2O_208
 -----------
 Symbolic Z-matrix:
 Charge =  0 Multiplicity = 1

                         Standard orientation:
 ---------------------------------------------------------------------
 Center     Atomic      Atomic             Coordinates (Angstroms)
 Number     Number       Type             X           Y           Z
 ---------------------------------------------------------------------
      1          8           0        0.070276    1.186931   -0.000000
      2          1           0        0.068524    0.204331   -0.000000
      3          1           0       -0.858647    1.507255   -0.000000
      4          8           0        0.070276   -1.016815    0.000000
      5          1           0        0.560059   -1.868648    0.000000
      6          1           0       -0.894356   -1.203868   -0.000000
 ---------------------------------------------------------------------

 SCF Done:  E(RHF) =  -152.067994914     A.U. after   11 cycles
 E2 =    -0.5352784231D+00 EUMP2 =    -0.15260327333657D+03
 CCSD(T)
 CCSD(T)= -0.15262913117D+03

 The electronic state is 1-A'.
 Alpha  occ. eigenvalues --  -20.61351 -20.46719  -1.41668  -1.26047  -0.79176
 Alpha  occ. eigenvalues --   -0.73390  -0.57251  -0.56380  -0.47213  -0.42775
 Alpha virt. eigenvalues --    0.10670   0.16376   0.21002   0.32690   0.48717
 Alpha virt. eigenvalues --    0.52246   0.60506   0.64327   0.71558   0.72077
 Alpha virt. eigenvalues --    0.78084   0.78192   0.80824   0.84167   0.85189

 Mulliken charges:
               1
     1  O   -0.628907
     2  H    0.291993
     3  H    0.203795
     4  O   -0.344784
     5  H    0.236834
     6  H    0.241068
 Sum of Mulliken charges =  -0.00000

 Dipole moment (field-independent basis, Debye):
    X=             -2.1720    Y=             -4.5338    Z=              0.0000  Tot=              5.0272
 Quadrupole moment (field-independent basis, Debye-Ang):
   XX=             -9.6632   YY=             -9.8360   ZZ=            -14.5901
   XY=             -2.6741   XZ=              0.0000   YZ=             -0.0000

 Normal termination of Gaussian 16 at Fri Aug 26 16:36:48 2022.
