 Gaussian 16, Revision A.03,
 Gaussian 16:  ES64L-G16RevA.03 25-Dec-2016

 ------------------
 #p CCSD(T)/cc-pVTZ
 ------------------

 ------------
 H2O_H2O_4230
 ------------
 Symbolic Z-matrix:
 Charge =  0 Multiplicity = 1

                         Standard orientation:
 ---------------------------------------------------------------------
 Center     Atomic      Atomic             Coordinates (Angstroms)
 Number     Number       Type             X           Y           Z
 ---------------------------------------------------------------------
      1          8           0        0.079845    2.786407    0.000000
      2          1           0        0.079435    1.803805    0.000000
      3          1           0       -0.849514    3.105462    0.000000
      4          8           0        0.079845   -2.627332    0.000000
      5          1           0        0.395304   -3.557919    0.000000
      6          1           0       -0.902751   -2.623942    0.000000
 ---------------------------------------------------------------------

 SCF Done:  E(RHF) =  -152.108082994     A.U. after   10 cycles
 E2 =    -0.5258555400D+00 EUMP2 =    -0.15263393853394D+03
 CCSD(T)
 CCSD(T)= -0.15266114081D+03

 The electronic state is 1-A'.
 Alpha  occ. eigenvalues --  -20.56252 -20.55086  -1.33553  -1.32391  -0.70965
 Alpha  occ. eigenvalues --   -0.69786  -0.57030  -0.55852  -0.50668  -0.49508
 Alpha virt. eigenvalues --    0.12914   0.14945   0.19315   0.21392   0.53294
 Alpha virt. eigenvalues --    0.54943   0.56557   0.57807   0.66763   0.68782
 Alpha virt. eigenvalues --    0.78225   0.79265   0.79355   0.80811   0.82528

 Mulliken charges:
               1
     1  O   -0.511662
     2  H    0.259474
     3  H    0.251990
     4  O   -0.512690
     5  H    0.258904
     6  H    0.253984
 Sum of Mulliken charges =  -0.00000

 Dipole moment (field-independent basis, Debye):
    X=             -2.7358    Y=             -2.7991    Z=             -0.0000  Tot=              3.9140
 Quadrupole moment (field-independent basis, Debye-Ang):
   XX=            -10.0947   YY=             -7.5996   ZZ=            -14.7135
   XY=             -3.4053   XZ=             -0.0000   YZ=             -0.0000

 506026\MP4DQ=-152.643054\MP4SDQ=-152.6461052\CCSD=-152.645519\CCSD(T)=
 Normal termination of Gaussian 16 at Sun Aug 28 00:58:22 2022.
