 Gaussian 16, Revision A.03,
 Gaussian 16:  ES64L-G16RevA.03 25-Dec-2016

 ------------------
 #p CCSD(T)/cc-pVTZ
 ------------------

 ----------
 H2O_H2O_61
 ----------
 Symbolic Z-matrix:
 Charge =  0 Multiplicity = 1

                         Standard orientation:
 ---------------------------------------------------------------------
 Center     Atomic      Atomic             Coordinates (Angstroms)
 Number     Number       Type             X           Y           Z
 ---------------------------------------------------------------------
      1          8           0        0.059773    1.130988   -0.000000
      2          1           0        0.057061    0.148390   -0.000000
      3          1           0       -0.868837    1.452219   -0.000000
      4          8           0        0.059773   -0.953721    0.000000
      5          1           0        0.705605   -1.694266    0.000000
      6          1           0       -0.850196   -1.324482    0.000000
 ---------------------------------------------------------------------

 SCF Done:  E(RHF) =  -152.040040267     A.U. after   11 cycles
 E2 =    -0.5362254405D+00 EUMP2 =    -0.15257626570742D+03
 CCSD(T)
 CCSD(T)= -0.15260180801D+03

 The electronic state is 1-A'.
 Alpha  occ. eigenvalues --  -20.62085 -20.44315  -1.43879  -1.24586  -0.80304
 Alpha  occ. eigenvalues --   -0.76873  -0.58665  -0.54543  -0.44564  -0.41069
 Alpha virt. eigenvalues --    0.10307   0.16160   0.21352   0.32507   0.47917
 Alpha virt. eigenvalues --    0.51794   0.62070   0.63932   0.70590   0.71248
 Alpha virt. eigenvalues --    0.78764   0.79370   0.81654   0.83002   0.88622

 Mulliken charges:
               1
     1  O   -0.664291
     2  H    0.284639
     3  H    0.196639
     4  O   -0.302409
     5  H    0.241751
     6  H    0.243672
 Sum of Mulliken charges =   0.00000

 Dipole moment (field-independent basis, Debye):
    X=             -1.8034    Y=             -5.0139    Z=              0.0000  Tot=              5.3283
 Quadrupole moment (field-independent basis, Debye-Ang):
   XX=             -9.3205   YY=            -10.2065   ZZ=            -14.5497
   XY=             -2.6466   XZ=              0.0000   YZ=             -0.0000

 Normal termination of Gaussian 16 at Fri Aug 26 15:36:00 2022.
