 Gaussian 16, Revision A.03,
 Gaussian 16:  ES64L-G16RevA.03 25-Dec-2016

 ------------------
 #p CCSD(T)/cc-pVTZ
 ------------------

 ------------
 H2O_H2O_3824
 ------------
 Symbolic Z-matrix:
 Charge =  0 Multiplicity = 1

                         Standard orientation:
 ---------------------------------------------------------------------
 Center     Atomic      Atomic             Coordinates (Angstroms)
 Number     Number       Type             X           Y           Z
 ---------------------------------------------------------------------
      1          8           0       -0.013493    2.616999    0.000000
      2          1           0       -0.010837    1.634402    0.000000
      3          1           0        0.915135    2.938177    0.000000
      4          8           0       -0.013493   -2.457729    0.000000
      5          1           0       -0.996091   -2.460385    0.000000
      6          1           0        0.307685   -3.386357    0.000000
 ---------------------------------------------------------------------

 SCF Done:  E(RHF) =  -152.108817329     A.U. after   10 cycles
 E2 =    -0.5258198252D+00 EUMP2 =    -0.15263463715382D+03
 CCSD(T)
 CCSD(T)= -0.15266182084D+03

 The electronic state is 1-A'.
 Alpha  occ. eigenvalues --  -20.56326 -20.54948  -1.33626  -1.32259  -0.71034
 Alpha  occ. eigenvalues --   -0.69667  -0.57132  -0.55739  -0.50747  -0.49387
 Alpha virt. eigenvalues --    0.12680   0.15275   0.19206   0.21962   0.53203
 Alpha virt. eigenvalues --    0.55220   0.56600   0.57864   0.66718   0.69066
 Alpha virt. eigenvalues --    0.78148   0.78910   0.79463   0.80841   0.82774

 Mulliken charges:
               1
     1  O   -0.515936
     2  H    0.260328
     3  H    0.255064
     4  O   -0.515814
     5  H    0.257434
     6  H    0.258923
 Sum of Mulliken charges =  -0.00000

 Dipole moment (field-independent basis, Debye):
    X=              0.4646    Y=             -2.8151    Z=              0.0000  Tot=              2.8532
 Quadrupole moment (field-independent basis, Debye-Ang):
   XX=             -9.6478   YY=             -7.7052   ZZ=            -14.7161
   XY=              7.0847   XZ=              0.0000   YZ=              0.0000

 Normal termination of Gaussian 16 at Fri Aug 26 23:53:37 2022.
