 Gaussian 16, Revision A.03,
 Gaussian 16:  ES64L-G16RevA.03 25-Dec-2016

 ------------------
 #p CCSD(T)/cc-pVTZ
 ------------------

 -----------
 H2O_H2O_459
 -----------
 Symbolic Z-matrix:
 Charge =  0 Multiplicity = 1

                         Standard orientation:
 ---------------------------------------------------------------------
 Center     Atomic      Atomic             Coordinates (Angstroms)
 Number     Number       Type             X           Y           Z
 ---------------------------------------------------------------------
      1          8           0        0.066837    1.288209   -0.000000
      2          1           0        0.064987    0.305610   -0.000000
      3          1           0       -0.862055    1.608625   -0.000000
      4          8           0        0.066837   -1.115223    0.000000
      5          1           0        0.611203   -1.933252    0.000000
      6          1           0       -0.883522   -1.364872    0.000000
 ---------------------------------------------------------------------

 SCF Done:  E(RHF) =  -152.095772364     A.U. after   11 cycles
 E2 =    -0.5325212303D+00 EUMP2 =    -0.15262829359465D+03
 CCSD(T)
 CCSD(T)= -0.15265461247D+03

 The electronic state is 1-A'.
 Alpha  occ. eigenvalues --  -20.60362 -20.48912  -1.39067  -1.27422  -0.76266
 Alpha  occ. eigenvalues --   -0.71017  -0.58292  -0.55545  -0.49509  -0.44336
 Alpha virt. eigenvalues --    0.11111   0.16944   0.20281   0.33185   0.48177
 Alpha virt. eigenvalues --    0.53246   0.60437   0.63250   0.71975   0.72142
 Alpha virt. eigenvalues --    0.74378   0.78843   0.79720   0.83700   0.84058

 Mulliken charges:
               1
     1  O   -0.605657
     2  H    0.305648
     3  H    0.218527
     4  O   -0.407585
     5  H    0.244947
     6  H    0.244120
 Sum of Mulliken charges =  -0.00000

 Dipole moment (field-independent basis, Debye):
    X=             -2.1219    Y=             -4.1930    Z=              0.0000  Tot=              4.6994
 Quadrupole moment (field-independent basis, Debye-Ang):
   XX=             -9.5644   YY=             -9.4435   ZZ=            -14.6555
   XY=             -2.8649   XZ=              0.0000   YZ=             -0.0000

 Normal termination of Gaussian 16 at Fri Aug 26 18:24:38 2022.
