 Gaussian 16, Revision A.03,
 Gaussian 16:  ES64L-G16RevA.03 25-Dec-2016

 ------------------
 #p CCSD(T)/cc-pVTZ
 ------------------

 ------------
 H2O_H2O_1098
 ------------
 Symbolic Z-matrix:
 Charge =  0 Multiplicity = 1

                         Standard orientation:
 ---------------------------------------------------------------------
 Center     Atomic      Atomic             Coordinates (Angstroms)
 Number     Number       Type             X           Y           Z
 ---------------------------------------------------------------------
      1          8           0       -0.016760    1.532275    0.000000
      2          1           0       -0.012295    0.549684    0.000000
      3          1           0        0.911276    1.855162    0.000000
      4          8           0       -0.016760   -1.368940    0.000000
      5          1           0       -0.996955   -1.437659    0.000000
      6          1           0        0.366133   -2.273871    0.000000
 ---------------------------------------------------------------------

 SCF Done:  E(RHF) =  -152.112741206     A.U. after   10 cycles
 E2 =    -0.5282663791D+00 EUMP2 =    -0.15264100758467D+03
 CCSD(T)
 CCSD(T)= -0.15266791048D+03

 The electronic state is 1-A'.
 Alpha  occ. eigenvalues --  -20.58535 -20.52323  -1.36036  -1.29927  -0.73617
 Alpha  occ. eigenvalues --   -0.67908  -0.59754  -0.53078  -0.53016  -0.47058
 Alpha virt. eigenvalues --    0.12033   0.18064   0.18980   0.31447   0.49290
 Alpha virt. eigenvalues --    0.54632   0.55784   0.62828   0.68482   0.72770
 Alpha virt. eigenvalues --    0.74125   0.76604   0.81682   0.82367   0.84283

 Mulliken charges:
               1
     1  O   -0.564318
     2  H    0.286169
     3  H    0.250865
     4  O   -0.476827
     5  H    0.261980
     6  H    0.242131
 Sum of Mulliken charges =  -0.00000

 Dipole moment (field-independent basis, Debye):
    X=              0.5685    Y=             -3.3920    Z=              0.0000  Tot=              3.4393
 Quadrupole moment (field-independent basis, Debye-Ang):
   XX=             -9.5348   YY=             -8.7747   ZZ=            -14.7212
   XY=              4.0020   XZ=              0.0000   YZ=              0.0000

 Normal termination of Gaussian 16 at Fri Aug 26 22:26:58 2022.
