 Gaussian 16, Revision A.03,
 Gaussian 16:  ES64L-G16RevA.03 25-Dec-2016

 ------------------
 #p CCSD(T)/cc-pVTZ
 ------------------

 ------------
 H2O_H2O_3590
 ------------
 Symbolic Z-matrix:
 Charge =  0 Multiplicity = 1

                         Standard orientation:
 ---------------------------------------------------------------------
 Center     Atomic      Atomic             Coordinates (Angstroms)
 Number     Number       Type             X           Y           Z
 ---------------------------------------------------------------------
      1          8           0        0.044846    2.538731    0.000000
      2          1           0        0.043178    1.556131    0.000000
      3          1           0       -0.884105    2.858974   -0.000000
      4          8           0        0.044846   -2.358318    0.000000
      5          1           0        0.860922   -2.905607    0.000000
      6          1           0       -0.737524   -2.952795   -0.000000
 ---------------------------------------------------------------------

 SCF Done:  E(RHF) =  -152.109128983     A.U. after   10 cycles
 E2 =    -0.5258473820D+00 EUMP2 =    -0.15263497636465D+03
 CCSD(T)
 CCSD(T)= -0.15266214687D+03

 The electronic state is 1-A'.
 Alpha  occ. eigenvalues --  -20.56411 -20.54680  -1.33702  -1.31993  -0.71104
 Alpha  occ. eigenvalues --   -0.69391  -0.57220  -0.55475  -0.50826  -0.49123
 Alpha virt. eigenvalues --    0.12829   0.15474   0.19576   0.21701   0.53441
 Alpha virt. eigenvalues --    0.55053   0.56510   0.57970   0.66913   0.69306
 Alpha virt. eigenvalues --    0.78076   0.79153   0.79490   0.79716   0.83021

 Mulliken charges:
               1
     1  O   -0.516501
     2  H    0.262694
     3  H    0.252696
     4  O   -0.515727
     5  H    0.259524
     6  H    0.257314
 Sum of Mulliken charges =  -0.00000

 Dipole moment (field-independent basis, Debye):
    X=             -1.5334    Y=             -3.2056    Z=             -0.0000  Tot=              3.5535
 Quadrupole moment (field-independent basis, Debye-Ang):
   XX=             -9.1568   YY=             -6.8034   ZZ=            -14.7174
   XY=             -5.1834   XZ=              0.0000   YZ=             -0.0000

 Normal termination of Gaussian 16 at Fri Aug 26 22:33:34 2022.
