 Gaussian 16, Revision A.03,
 Gaussian 16:  ES64L-G16RevA.03 25-Dec-2016

 ------------------
 #p CCSD(T)/cc-pVTZ
 ------------------

 ------------
 H2O_H2O_4384
 ------------
 Symbolic Z-matrix:
 Charge =  0 Multiplicity = 1

                         Standard orientation:
 ---------------------------------------------------------------------
 Center     Atomic      Atomic             Coordinates (Angstroms)
 Number     Number       Type             X           Y           Z
 ---------------------------------------------------------------------
      1          8           0        0.066745    2.853872    0.000000
      2          1           0        0.065941    1.871271    0.000000
      3          1           0       -0.862488    3.173299   -0.000000
      4          8           0        0.066745   -2.680744    0.000000
      5          1           0        0.611981   -3.498193    0.000000
      6          1           0       -0.883348   -2.931405   -0.000000
 ---------------------------------------------------------------------

 SCF Done:  E(RHF) =  -152.108276771     A.U. after   10 cycles
 E2 =    -0.5258290343D+00 EUMP2 =    -0.15263410580561D+03
 CCSD(T)
 CCSD(T)= -0.15266130491D+03

 The electronic state is 1-A'.
 Alpha  occ. eigenvalues --  -20.56214 -20.54987  -1.33515  -1.32293  -0.70922
 Alpha  occ. eigenvalues --   -0.69691  -0.57001  -0.55760  -0.50632  -0.49414
 Alpha virt. eigenvalues --    0.13217   0.14933   0.19581   0.21119   0.53521
 Alpha virt. eigenvalues --    0.54884   0.56618   0.57789   0.66797   0.68786
 Alpha virt. eigenvalues --    0.78257   0.79431   0.79444   0.80375   0.82651

 Mulliken charges:
               1
     1  O   -0.512887
     2  H    0.260214
     3  H    0.252509
     4  O   -0.513806
     5  H    0.258707
     6  H    0.255262
 Sum of Mulliken charges =  -0.00000

 Dipole moment (field-independent basis, Debye):
    X=             -2.2880    Y=             -3.0424    Z=             -0.0000  Tot=              3.8067
 Quadrupole moment (field-independent basis, Debye-Ang):
   XX=             -9.5603   YY=             -6.7063   ZZ=            -14.7143
   XY=             -4.3913   XZ=              0.0000   YZ=             -0.0000

 Normal termination of Gaussian 16 at Sun Aug 28 02:24:28 2022.
