 Gaussian 16, Revision A.03,
 Gaussian 16:  ES64L-G16RevA.03 25-Dec-2016

 ------------------
 #p CCSD(T)/cc-pVTZ
 ------------------

 ----------
 H2O_H2O_15
 ----------
 Symbolic Z-matrix:
 Charge =  0 Multiplicity = 1

                         Standard orientation:
 ---------------------------------------------------------------------
 Center     Atomic      Atomic             Coordinates (Angstroms)
 Number     Number       Type             X           Y           Z
 ---------------------------------------------------------------------
      1          8           0        0.045059    1.112643   -0.000000
      2          1           0        0.041067    0.130050   -0.000000
      3          1           0       -0.883132    1.435083   -0.000000
      4          8           0        0.045059   -0.932443    0.000000
      5          1           0        0.859838   -1.481662    0.000000
      6          1           0       -0.738715   -1.525068    0.000000
 ---------------------------------------------------------------------

 SCF Done:  E(RHF) =  -152.027414427     A.U. after   11 cycles
 E2 =    -0.5361335600D+00 EUMP2 =    -0.15256354798735D+03
 CCSD(T)
 CCSD(T)= -0.15258900190D+03

 The electronic state is 1-A'.
 Alpha  occ. eigenvalues --  -20.62315 -20.43240  -1.44743  -1.23966  -0.80376
 Alpha  occ. eigenvalues --   -0.78503  -0.59194  -0.53972  -0.43322  -0.40323
 Alpha virt. eigenvalues --    0.10189   0.16256   0.21371   0.32812   0.46770
 Alpha virt. eigenvalues --    0.51685   0.62983   0.65142   0.70129   0.70593
 Alpha virt. eigenvalues --    0.78315   0.79282   0.81841   0.82539   0.89526

 Mulliken charges:
               1
     1  O   -0.685938
     2  H    0.277175
     3  H    0.199147
     4  O   -0.284535
     5  H    0.254053
     6  H    0.240098
 Sum of Mulliken charges =  -0.00000

 Dipole moment (field-independent basis, Debye):
    X=             -1.3456    Y=             -5.2128    Z=              0.0000  Tot=              5.3836
 Quadrupole moment (field-independent basis, Debye-Ang):
   XX=             -9.0921   YY=            -10.3581   ZZ=            -14.5371
   XY=             -2.6172   XZ=              0.0000   YZ=              0.0000

 Normal termination of Gaussian 16 at Fri Aug 26 15:17:14 2022.
