 Gaussian 16, Revision A.03,
 Gaussian 16:  ES64L-G16RevA.03 25-Dec-2016

 ------------------
 #p CCSD(T)/cc-pVTZ
 ------------------

 ------------
 H2O_H2O_2274
 ------------
 Symbolic Z-matrix:
 Charge =  0 Multiplicity = 1

                         Standard orientation:
 ---------------------------------------------------------------------
 Center     Atomic      Atomic             Coordinates (Angstroms)
 Number     Number       Type             X           Y           Z
 ---------------------------------------------------------------------
      1          8           0       -0.013563    1.998731    0.000000
      2          1           0       -0.010051    1.016136    0.000000
      3          1           0        0.914786    2.320717    0.000000
      4          8           0       -0.013563   -1.839484    0.000000
      5          1           0       -0.996158   -1.842995    0.000000
      6          1           0        0.308424   -2.767832    0.000000
 ---------------------------------------------------------------------

 SCF Done:  E(RHF) =  -152.111110197     A.U. after   10 cycles
 E2 =    -0.5261975733D+00 EUMP2 =    -0.15263730777058D+03
 CCSD(T)
 CCSD(T)= -0.15266440897D+03

 The electronic state is 1-A'.
 Alpha  occ. eigenvalues --  -20.57058 -20.54281  -1.34336  -1.31617  -0.71761
 Alpha  occ. eigenvalues --   -0.69030  -0.57944  -0.55097  -0.51465  -0.48765
 Alpha virt. eigenvalues --    0.12163   0.16575   0.19266   0.25236   0.53744
 Alpha virt. eigenvalues --    0.54939   0.56040   0.58717   0.68622   0.72018
 Alpha virt. eigenvalues --    0.76934   0.79250   0.80156   0.81869   0.83584

 Mulliken charges:
               1
     1  O   -0.526691
     2  H    0.265275
     3  H    0.254729
     4  O   -0.511087
     5  H    0.259490
     6  H    0.258283
 Sum of Mulliken charges =  -0.00000

 Dipole moment (field-independent basis, Debye):
    X=              0.4685    Y=             -2.9422    Z=              0.0000  Tot=              2.9792
 Quadrupole moment (field-independent basis, Debye-Ang):
   XX=             -9.6497   YY=             -8.2418   ZZ=            -14.7235
   XY=              5.3929   XZ=              0.0000   YZ=              0.0000

 Normal termination of Gaussian 16 at Sun Aug 28 05:55:33 2022.
