 Gaussian 16, Revision A.03,
 Gaussian 16:  ES64L-G16RevA.03 25-Dec-2016

 ------------------
 #p CCSD(T)/cc-pVTZ
 ------------------

 ------------
 H2O_H2O_1299
 ------------
 Symbolic Z-matrix:
 Charge =  0 Multiplicity = 1

                         Standard orientation:
 ---------------------------------------------------------------------
 Center     Atomic      Atomic             Coordinates (Angstroms)
 Number     Number       Type             X           Y           Z
 ---------------------------------------------------------------------
      1          8           0        0.013635   -1.609816    0.000000
      2          1           0        0.009231   -0.627225    0.000000
      3          1           0       -0.914420   -1.932646    0.000000
      4          8           0        0.013635    1.450594    0.000000
      5          1           0        0.996226    1.454998    0.000000
      6          1           0       -0.309195    2.378650    0.000000
 ---------------------------------------------------------------------

 SCF Done:  E(RHF) =  -152.112955544     A.U. after   10 cycles
 E2 =    -0.5276059988D+00 EUMP2 =    -0.15264056154303D+03
 CCSD(T)
 CCSD(T)= -0.15266753986D+03

 The electronic state is 1-A'.
 Alpha  occ. eigenvalues --  -20.58157 -20.52993  -1.35556  -1.30487  -0.73134
 Alpha  occ. eigenvalues --   -0.68102  -0.59366  -0.53730  -0.52636  -0.47632
 Alpha virt. eigenvalues --    0.12117   0.17721   0.19148   0.30168   0.50107
 Alpha virt. eigenvalues --    0.54633   0.55486   0.61630   0.68642   0.73339
 Alpha virt. eigenvalues --    0.74424   0.76744   0.81616   0.82263   0.84280

 Mulliken charges:
               1
     1  O   -0.552432
     2  H    0.279000
     3  H    0.253292
     4  O   -0.487691
     5  H    0.262223
     6  H    0.245607
 Sum of Mulliken charges =  -0.00000

 Dipole moment (field-independent basis, Debye):
    X=             -0.4696    Y=              3.2017    Z=              0.0000  Tot=              3.2359
 Quadrupole moment (field-independent basis, Debye-Ang):
   XX=             -9.6452   YY=             -8.6829   ZZ=            -14.7256
   XY=              4.3227   XZ=              0.0000   YZ=              0.0000

 Normal termination of Gaussian 16 at Fri Aug 26 23:41:30 2022.
