 Gaussian 16, Revision A.03,
 Gaussian 16:  ES64L-G16RevA.03 25-Dec-2016

 ------------------
 #p CCSD(T)/cc-pVTZ
 ------------------

 ------------
 H2O_H2O_4441
 ------------
 Symbolic Z-matrix:
 Charge =  0 Multiplicity = 1

                         Standard orientation:
 ---------------------------------------------------------------------
 Center     Atomic      Atomic             Coordinates (Angstroms)
 Number     Number       Type             X           Y           Z
 ---------------------------------------------------------------------
      1          8           0        0.041107    2.877527   -0.000000
      2          1           0        0.039530    1.894927   -0.000000
      3          1           0       -0.887873    3.197686    0.000000
      4          8           0        0.041107   -2.697572   -0.000000
      5          1           0        0.891275   -3.190238   -0.000000
      6          1           0       -0.700648   -3.342013    0.000000
 ---------------------------------------------------------------------

 SCF Done:  E(RHF) =  -152.108491710     A.U. after   10 cycles
 E2 =    -0.5258047884D+00 EUMP2 =    -0.15263429649865D+03
 CCSD(T)
 CCSD(T)= -0.15266149174D+03

 The electronic state is 1-A'.
 Alpha  occ. eigenvalues --  -20.56194 -20.54927  -1.33495  -1.32235  -0.70899
 Alpha  occ. eigenvalues --   -0.69637  -0.56992  -0.55708  -0.50615  -0.49359
 Alpha virt. eigenvalues --    0.13339   0.14970   0.19693   0.21080   0.53644
 Alpha virt. eigenvalues --    0.54862   0.56661   0.57805   0.66801   0.68801
 Alpha virt. eigenvalues --    0.78272   0.79495   0.79646   0.80081   0.82718

 Mulliken charges:
               1
     1  O   -0.514288
     2  H    0.260601
     3  H    0.253532
     4  O   -0.514966
     5  H    0.258215
     6  H    0.256906
 Sum of Mulliken charges =  -0.00000

 Dipole moment (field-independent basis, Debye):
    X=             -1.4097    Y=             -3.1606    Z=              0.0000  Tot=              3.4608
 Quadrupole moment (field-independent basis, Debye-Ang):
   XX=             -9.1494   YY=             -6.2792   ZZ=            -14.7151
   XY=             -5.9650   XZ=             -0.0000   YZ=              0.0000

 Normal termination of Gaussian 16 at Sun Aug 28 02:51:55 2022.
