 Gaussian 16, Revision A.03,
 Gaussian 16:  ES64L-G16RevA.03 25-Dec-2016

 ------------------
 #p CCSD(T)/cc-pVTZ
 ------------------

 ------------
 H2O_H2O_3488
 ------------
 Symbolic Z-matrix:
 Charge =  0 Multiplicity = 1

                         Standard orientation:
 ---------------------------------------------------------------------
 Center     Atomic      Atomic             Coordinates (Angstroms)
 Number     Number       Type             X           Y           Z
 ---------------------------------------------------------------------
      1          8           0        0.052290    2.498564    0.000000
      2          1           0        0.050857    1.515964    0.000000
      3          1           0       -0.876737    2.818585   -0.000000
      4          8           0        0.052290   -2.318664    0.000000
      5          1           0        0.790104   -2.967614    0.000000
      6          1           0       -0.800866   -2.806138   -0.000000
 ---------------------------------------------------------------------

 SCF Done:  E(RHF) =  -152.109161742     A.U. after   10 cycles
 E2 =    -0.5258663099D+00 EUMP2 =    -0.15263502805151D+03
 CCSD(T)
 CCSD(T)= -0.15266219564D+03

 The electronic state is 1-A'.
 Alpha  occ. eigenvalues --  -20.56449 -20.54655  -1.33738  -1.31969  -0.71141
 Alpha  occ. eigenvalues --   -0.69364  -0.57256  -0.55449  -0.50862  -0.49098
 Alpha virt. eigenvalues --    0.12746   0.15534   0.19555   0.21810   0.53409
 Alpha virt. eigenvalues --    0.55085   0.56470   0.58053   0.67048   0.69331
 Alpha virt. eigenvalues --    0.78042   0.79062   0.79502   0.79740   0.83041

 Mulliken charges:
               1
     1  O   -0.516357
     2  H    0.262905
     3  H    0.252118
     4  O   -0.515237
     5  H    0.259800
     6  H    0.256771
 Sum of Mulliken charges =  -0.00000

 Dipole moment (field-independent basis, Debye):
    X=             -1.7870    Y=             -3.2028    Z=             -0.0000  Tot=              3.6676
 Quadrupole moment (field-independent basis, Debye-Ang):
   XX=             -9.2257   YY=             -6.8920   ZZ=            -14.7175
   XY=             -4.7773   XZ=              0.0000   YZ=             -0.0000

 Normal termination of Gaussian 16 at Fri Aug 26 21:58:24 2022.
