 Gaussian 16, Revision A.03,
 Gaussian 16:  ES64L-G16RevA.03 25-Dec-2016

 ------------------
 #p CCSD(T)/cc-pVTZ
 ------------------

 ------------
 H2O_H2O_1068
 ------------
 Symbolic Z-matrix:
 Charge =  0 Multiplicity = 1

                         Standard orientation:
 ---------------------------------------------------------------------
 Center     Atomic      Atomic             Coordinates (Angstroms)
 Number     Number       Type             X           Y           Z
 ---------------------------------------------------------------------
      1          8           0        0.033905    1.529958   -0.000000
      2          1           0        0.030421    0.547363   -0.000000
      3          1           0       -0.894453    1.851918   -0.000000
      4          8           0        0.033905   -1.352522    0.000000
      5          1           0        0.940372   -1.731764    0.000000
      6          1           0       -0.618814   -2.087004    0.000000
 ---------------------------------------------------------------------

 SCF Done:  E(RHF) =  -152.113743645     A.U. after   10 cycles
 E2 =    -0.5283341071D+00 EUMP2 =    -0.15264207775169D+03
 CCSD(T)
 CCSD(T)= -0.15266894693D+03

 The electronic state is 1-A'.
 Alpha  occ. eigenvalues --  -20.58680 -20.51801  -1.36147  -1.29455  -0.73424
 Alpha  occ. eigenvalues --   -0.67972  -0.59736  -0.53215  -0.52511  -0.46579
 Alpha virt. eigenvalues --    0.11930   0.18378   0.18651   0.31671   0.48831
 Alpha virt. eigenvalues --    0.54692   0.56164   0.61991   0.68496   0.72206
 Alpha virt. eigenvalues --    0.72864   0.77354   0.82247   0.82618   0.84708

 Mulliken charges:
               1
     1  O   -0.566608
     2  H    0.293430
     3  H    0.244589
     4  O   -0.492479
     5  H    0.265854
     6  H    0.255214
 Sum of Mulliken charges =  -0.00000

 Dipole moment (field-independent basis, Debye):
    X=             -1.1251    Y=             -3.6998    Z=              0.0000  Tot=              3.8671
 Quadrupole moment (field-independent basis, Debye-Ang):
   XX=             -9.1794   YY=             -8.7061   ZZ=            -14.7280
   XY=             -3.6217   XZ=              0.0000   YZ=             -0.0000

 Normal termination of Gaussian 16 at Fri Aug 26 22:15:51 2022.
