 Gaussian 16, Revision A.03,
 Gaussian 16:  ES64L-G16RevA.03 25-Dec-2016

 ------------------
 #p CCSD(T)/cc-pVTZ
 ------------------

 ------------
 H2O_H2O_1431
 ------------
 Symbolic Z-matrix:
 Charge =  0 Multiplicity = 1

                         Standard orientation:
 ---------------------------------------------------------------------
 Center     Atomic      Atomic             Coordinates (Angstroms)
 Number     Number       Type             X           Y           Z
 ---------------------------------------------------------------------
      1          8           0        0.076779    1.671777    0.000000
      2          1           0        0.075915    0.689176    0.000000
      3          1           0       -0.852433    1.991260    0.000000
      4          8           0        0.076779   -1.508608   -0.000000
      5          1           0        0.452007   -2.416744   -0.000000
      6          1           0       -0.903962   -1.569037   -0.000000
 ---------------------------------------------------------------------

 SCF Done:  E(RHF) =  -152.111901267     A.U. after   10 cycles
 E2 =    -0.5274974676D+00 EUMP2 =    -0.15263939873421D+03
 CCSD(T)
 CCSD(T)= -0.15266641584D+03

 The electronic state is 1-A'.
 Alpha  occ. eigenvalues --  -20.58017 -20.53402  -1.35351  -1.30823  -0.72844
 Alpha  occ. eigenvalues --   -0.68349  -0.59014  -0.54149  -0.52443  -0.47946
 Alpha virt. eigenvalues --    0.11760   0.16856   0.19639   0.28811   0.49404
 Alpha virt. eigenvalues --    0.55059   0.57444   0.58511   0.69538   0.73927
 Alpha virt. eigenvalues --    0.74278   0.76863   0.81267   0.82576   0.84042

 Mulliken charges:
               1
     1  O   -0.533895
     2  H    0.277851
     3  H    0.240296
     4  O   -0.490027
     5  H    0.254151
     6  H    0.251625
 Sum of Mulliken charges =  -0.00000

 Dipole moment (field-independent basis, Debye):
    X=             -2.5643    Y=             -3.2155    Z=             -0.0000  Tot=              4.1128
 Quadrupole moment (field-independent basis, Debye-Ang):
   XX=             -9.9846   YY=             -8.5368   ZZ=            -14.7244
   XY=             -2.9973   XZ=             -0.0000   YZ=             -0.0000

 Normal termination of Gaussian 16 at Sat Aug 27 00:32:38 2022.
