 Gaussian 16, Revision A.03,
 Gaussian 16:  ES64L-G16RevA.03 25-Dec-2016

 ------------------
 #p CCSD(T)/cc-pVTZ
 ------------------

 ------------
 H2O_H2O_2464
 ------------
 Symbolic Z-matrix:
 Charge =  0 Multiplicity = 1

                         Standard orientation:
 ---------------------------------------------------------------------
 Center     Atomic      Atomic             Coordinates (Angstroms)
 Number     Number       Type             X           Y           Z
 ---------------------------------------------------------------------
      1          8           0        0.048603    2.089971    0.000000
      2          1           0        0.046720    1.107371    0.000000
      3          1           0       -0.880278    2.410418    0.000000
      4          8           0        0.048603   -1.909604   -0.000000
      5          1           0        0.827006   -2.509266   -0.000000
      6          1           0       -0.771092   -2.451458   -0.000000
 ---------------------------------------------------------------------

 SCF Done:  E(RHF) =  -152.110991872     A.U. after   10 cycles
 E2 =    -0.5261150877D+00 EUMP2 =    -0.15263710696017D+03
 CCSD(T)
 CCSD(T)= -0.15266421119D+03

 The electronic state is 1-A'.
 Alpha  occ. eigenvalues --  -20.56973 -20.54094  -1.34233  -1.31428  -0.71628
 Alpha  occ. eigenvalues --   -0.68824  -0.57834  -0.54913  -0.51370  -0.48572
 Alpha virt. eigenvalues --    0.12328   0.16476   0.19317   0.24264   0.52584
 Alpha virt. eigenvalues --    0.55566   0.56299   0.59010   0.69034   0.70864
 Alpha virt. eigenvalues --    0.77317   0.78592   0.80273   0.81105   0.83682

 Mulliken charges:
               1
     1  O   -0.523486
     2  H    0.266822
     3  H    0.250215
     4  O   -0.510813
     5  H    0.260614
     6  H    0.256648
 Sum of Mulliken charges =  -0.00000

 Dipole moment (field-independent basis, Debye):
    X=             -1.6509    Y=             -3.3128    Z=             -0.0000  Tot=              3.7014
 Quadrupole moment (field-independent basis, Debye-Ang):
   XX=             -9.1843   YY=             -7.5389   ZZ=            -14.7234
   XY=             -4.3183   XZ=             -0.0000   YZ=              0.0000

 Normal termination of Gaussian 16 at Sun Aug 28 07:32:19 2022.
