 Gaussian 16, Revision A.03,
 Gaussian 16:  ES64L-G16RevA.03 25-Dec-2016

 ------------------
 #p CCSD(T)/cc-pVTZ
 ------------------

 ------------
 H2O_H2O_3725
 ------------
 Symbolic Z-matrix:
 Charge =  0 Multiplicity = 1

                         Standard orientation:
 ---------------------------------------------------------------------
 Center     Atomic      Atomic             Coordinates (Angstroms)
 Number     Number       Type             X           Y           Z
 ---------------------------------------------------------------------
      1          8           0        0.092949   -2.572689    0.000000
      2          1           0        0.092949   -1.590088    0.000000
      3          1           0       -0.836544   -2.891356    0.000000
      4          8           0        0.092949    2.439903    0.000000
      5          1           0        0.092949    3.422504    0.000000
      6          1           0       -0.836544    2.121235    0.000000
 ---------------------------------------------------------------------

 SCF Done:  E(RHF) =  -152.107755830     A.U. after   10 cycles
 E2 =    -0.5259351069D+00 EUMP2 =    -0.15263369093675D+03
 CCSD(T)
 CCSD(T)= -0.15266089646D+03

 The electronic state is 1-A'.
 Alpha  occ. eigenvalues --  -20.56389 -20.55271  -1.33688  -1.32572  -0.71110
 Alpha  occ. eigenvalues --   -0.69963  -0.57150  -0.56023  -0.50798  -0.49684
 Alpha virt. eigenvalues --    0.11938   0.15146   0.18902   0.22560   0.53239
 Alpha virt. eigenvalues --    0.54916   0.56477   0.57892   0.66838   0.68775
 Alpha virt. eigenvalues --    0.78105   0.78935   0.79189   0.81423   0.82368

 Mulliken charges:
               1
     1  O   -0.509536
     2  H    0.258127
     3  H    0.251049
     4  O   -0.510259
     5  H    0.259294
     6  H    0.251325
 Sum of Mulliken charges =  -0.00000

 Dipole moment (field-independent basis, Debye):
    X=             -3.1785    Y=              2.3492    Z=              0.0000  Tot=              3.9524
 Quadrupole moment (field-independent basis, Debye-Ang):
   XX=            -10.8498   YY=             -9.2569   ZZ=            -14.7120
   XY=              2.1532   XZ=              0.0000   YZ=              0.0000

 Normal termination of Gaussian 16 at Fri Aug 26 23:19:32 2022.
