 Gaussian 16, Revision A.03,
 Gaussian 16:  ES64L-G16RevA.03 25-Dec-2016

 ------------------
 #p CCSD(T)/cc-pVTZ
 ------------------

 ------------
 H2O_H2O_3539
 ------------
 Symbolic Z-matrix:
 Charge =  0 Multiplicity = 1

                         Standard orientation:
 ---------------------------------------------------------------------
 Center     Atomic      Atomic             Coordinates (Angstroms)
 Number     Number       Type             X           Y           Z
 ---------------------------------------------------------------------
      1          8           0        0.048572    2.518780   -0.000000
      2          1           0        0.047021    1.536179   -0.000000
      3          1           0       -0.880417    2.838913   -0.000000
      4          8           0        0.048572   -2.338380    0.000000
      5          1           0        0.827178   -2.937780    0.000000
      6          1           0       -0.770940   -2.880511    0.000000
 ---------------------------------------------------------------------

 SCF Done:  E(RHF) =  -152.109149645     A.U. after   10 cycles
 E2 =    -0.5258562993D+00 EUMP2 =    -0.15263500594422D+03
 CCSD(T)
 CCSD(T)= -0.15266217491D+03

 The electronic state is 1-A'.
 Alpha  occ. eigenvalues --  -20.56429 -20.54664  -1.33720  -1.31978  -0.71122
 Alpha  occ. eigenvalues --   -0.69375  -0.57238  -0.55460  -0.50844  -0.49108
 Alpha virt. eigenvalues --    0.12791   0.15505   0.19568   0.21752   0.53427
 Alpha virt. eigenvalues --    0.55066   0.56490   0.58009   0.66977   0.69321
 Alpha virt. eigenvalues --    0.78059   0.79134   0.79457   0.79731   0.83034

 Mulliken charges:
               1
     1  O   -0.516451
     2  H    0.262821
     3  H    0.252408
     4  O   -0.515507
     5  H    0.259673
     6  H    0.257055
 Sum of Mulliken charges =  -0.00000

 Dipole moment (field-independent basis, Debye):
    X=             -1.6604    Y=             -3.2085    Z=              0.0000  Tot=              3.6127
 Quadrupole moment (field-independent basis, Debye-Ang):
   XX=             -9.1824   YY=             -6.8374   ZZ=            -14.7175
   XY=             -4.9785   XZ=              0.0000   YZ=             -0.0000

 Normal termination of Gaussian 16 at Fri Aug 26 22:16:38 2022.
