 Gaussian 16, Revision A.03,
 Gaussian 16:  ES64L-G16RevA.03 25-Dec-2016

 ------------------
 #p CCSD(T)/cc-pVTZ
 ------------------

 ------------
 H2O_H2O_3127
 ------------
 Symbolic Z-matrix:
 Charge =  0 Multiplicity = 1

                         Standard orientation:
 ---------------------------------------------------------------------
 Center     Atomic      Atomic             Coordinates (Angstroms)
 Number     Number       Type             X           Y           Z
 ---------------------------------------------------------------------
      1          8           0        0.088232   -2.339627    0.000000
      2          1           0        0.088055   -1.357026    0.000000
      3          1           0       -0.841204   -2.658461    0.000000
      4          8           0        0.088232    2.195308    0.000000
      5          1           0        0.216311    3.169526    0.000000
      6          1           0       -0.874869    2.000518    0.000000
 ---------------------------------------------------------------------

 SCF Done:  E(RHF) =  -152.108338210     A.U. after   10 cycles
 E2 =    -0.5260207671D+00 EUMP2 =    -0.15263435897666D+03
 CCSD(T)
 CCSD(T)= -0.15266153869D+03

 The electronic state is 1-A'.
 Alpha  occ. eigenvalues --  -20.56596 -20.55019  -1.33889  -1.32324  -0.71315
 Alpha  occ. eigenvalues --   -0.69707  -0.57367  -0.55781  -0.51001  -0.49440
 Alpha virt. eigenvalues --    0.11791   0.15549   0.19327   0.22835   0.54058
 Alpha virt. eigenvalues --    0.54767   0.56438   0.58164   0.67667   0.69040
 Alpha virt. eigenvalues --    0.77898   0.78529   0.79427   0.81063   0.82653

 Mulliken charges:
               1
     1  O   -0.511693
     2  H    0.260588
     3  H    0.249689
     4  O   -0.509745
     5  H    0.259770
     6  H    0.251391
 Sum of Mulliken charges =  -0.00000

 Dipole moment (field-independent basis, Debye):
    X=             -3.0074    Y=              2.5835    Z=              0.0000  Tot=              3.9647
 Quadrupole moment (field-independent basis, Debye-Ang):
   XX=            -10.5604   YY=             -8.6478   ZZ=            -14.7140
   XY=              2.5852   XZ=              0.0000   YZ=              0.0000

 Normal termination of Gaussian 16 at Fri Aug 26 19:55:10 2022.
