 Gaussian 16, Revision A.03,
 Gaussian 16:  ES64L-G16RevA.03 25-Dec-2016

 ------------------
 #p CCSD(T)/cc-pVTZ
 ------------------

 ------------
 H2O_H2O_1754
 ------------
 Symbolic Z-matrix:
 Charge =  0 Multiplicity = 1

                         Standard orientation:
 ---------------------------------------------------------------------
 Center     Atomic      Atomic             Coordinates (Angstroms)
 Number     Number       Type             X           Y           Z
 ---------------------------------------------------------------------
      1          8           0        0.082813   -1.796701    0.000000
      2          1           0        0.082312   -0.814099    0.000000
      3          1           0       -0.846517   -2.115841    0.000000
      4          8           0        0.082813    1.642203    0.000000
      5          1           0        0.336646    2.591452    0.000000
      6          1           0       -0.897451    1.574466    0.000000
 ---------------------------------------------------------------------

 SCF Done:  E(RHF) =  -152.110710764     A.U. after   10 cycles
 E2 =    -0.5269322826D+00 EUMP2 =    -0.15263764304646D+03
 CCSD(T)
 CCSD(T)= -0.15266472109D+03

 The electronic state is 1-A'.
 Alpha  occ. eigenvalues --  -20.57582 -20.54105  -1.34878  -1.31456  -0.72378
 Alpha  occ. eigenvalues --   -0.68826  -0.58473  -0.54861  -0.51980  -0.48579
 Alpha virt. eigenvalues --    0.11720   0.16514   0.19808   0.26820   0.50743
 Alpha virt. eigenvalues --    0.55402   0.56969   0.57954   0.68900   0.74139
 Alpha virt. eigenvalues --    0.75221   0.77958   0.80560   0.82912   0.83567

 Mulliken charges:
               1
     1  O   -0.523241
     2  H    0.270132
     3  H    0.242954
     4  O   -0.497425
     5  H    0.257281
     6  H    0.250298
 Sum of Mulliken charges =  -0.00000

 Dipole moment (field-independent basis, Debye):
    X=             -2.7836    Y=              2.9467    Z=              0.0000  Tot=              4.0536
 Quadrupole moment (field-independent basis, Debye-Ang):
   XX=            -10.2811   YY=             -8.5585   ZZ=            -14.7214
   XY=              2.7967   XZ=              0.0000   YZ=              0.0000

 Normal termination of Gaussian 16 at Sun Aug 28 01:18:59 2022.
