 Gaussian 16, Revision A.03,
 Gaussian 16:  ES64L-G16RevA.03 25-Dec-2016

 ------------------
 #p CCSD(T)/cc-pVTZ
 ------------------

 ------------
 H2O_H2O_3848
 ------------
 Symbolic Z-matrix:
 Charge =  0 Multiplicity = 1

                         Standard orientation:
 ---------------------------------------------------------------------
 Center     Atomic      Atomic             Coordinates (Angstroms)
 Number     Number       Type             X           Y           Z
 ---------------------------------------------------------------------
      1          8           0       -0.016600    2.629214    0.000000
      2          1           0       -0.014058    1.646616    0.000000
      3          1           0        0.912065    2.950285    0.000000
      4          8           0       -0.016600   -2.465814    0.000000
      5          1           0       -0.996928   -2.532615    0.000000
      6          1           0        0.364521   -3.371491    0.000000
 ---------------------------------------------------------------------

 SCF Done:  E(RHF) =  -152.108840560     A.U. after   10 cycles
 E2 =    -0.5258174099D+00 EUMP2 =    -0.15263465797000D+03
 CCSD(T)
 CCSD(T)= -0.15266184101D+03

 The electronic state is 1-A'.
 Alpha  occ. eigenvalues --  -20.56321 -20.54915  -1.33621  -1.32226  -0.71027
 Alpha  occ. eigenvalues --   -0.69633  -0.57127  -0.55706  -0.50742  -0.49354
 Alpha virt. eigenvalues --    0.12766   0.15270   0.19294   0.21819   0.53239
 Alpha virt. eigenvalues --    0.55184   0.56599   0.57865   0.66709   0.69080
 Alpha virt. eigenvalues --    0.78153   0.78929   0.79495   0.80675   0.82801

 Mulliken charges:
               1
     1  O   -0.515989
     2  H    0.260633
     3  H    0.254811
     4  O   -0.515926
     5  H    0.257712
     6  H    0.258759
 Sum of Mulliken charges =  -0.00000

 Dipole moment (field-independent basis, Debye):
    X=              0.5704    Y=             -2.8878    Z=              0.0000  Tot=              2.9436
 Quadrupole moment (field-independent basis, Debye-Ang):
   XX=             -9.5429   YY=             -7.4788   ZZ=            -14.7162
   XY=              6.9021   XZ=              0.0000   YZ=              0.0000

 Normal termination of Gaussian 16 at Sat Aug 27 00:04:06 2022.
