 Gaussian 16, Revision A.03,
 Gaussian 16:  ES64L-G16RevA.03 25-Dec-2016

 ------------------
 #p CCSD(T)/cc-pVTZ
 ------------------

 ------------
 H2O_H2O_3805
 ------------
 Symbolic Z-matrix:
 Charge =  0 Multiplicity = 1

                         Standard orientation:
 ---------------------------------------------------------------------
 Center     Atomic      Atomic             Coordinates (Angstroms)
 Number     Number       Type             X           Y           Z
 ---------------------------------------------------------------------
      1          8           0        0.079848    2.616881   -0.000000
      2          1           0        0.079409    1.634280   -0.000000
      3          1           0       -0.849503    2.935962   -0.000000
      4          8           0        0.079848   -2.457811    0.000000
      5          1           0        0.395280   -3.388408    0.000000
      6          1           0       -0.902748   -2.454394    0.000000
 ---------------------------------------------------------------------

 SCF Done:  E(RHF) =  -152.108283702     A.U. after   10 cycles
 E2 =    -0.5258832080D+00 EUMP2 =    -0.15263416691011D+03
 CCSD(T)
 CCSD(T)= -0.15266135971D+03

 The electronic state is 1-A'.
 Alpha  occ. eigenvalues --  -20.56357 -20.54999  -1.33655  -1.32305  -0.71068
 Alpha  occ. eigenvalues --   -0.69698  -0.57137  -0.55768  -0.50770  -0.49424
 Alpha virt. eigenvalues --    0.12565   0.15191   0.19291   0.21725   0.53233
 Alpha virt. eigenvalues --    0.55040   0.56486   0.57939   0.66740   0.69033
 Alpha virt. eigenvalues --    0.78130   0.78864   0.79434   0.80779   0.82678

 Mulliken charges:
               1
     1  O   -0.512180
     2  H    0.260247
     3  H    0.251398
     4  O   -0.512830
     5  H    0.259513
     6  H    0.253852
 Sum of Mulliken charges =  -0.00000

 Dipole moment (field-independent basis, Debye):
    X=             -2.7317    Y=             -2.8139    Z=              0.0000  Tot=              3.9218
 Quadrupole moment (field-independent basis, Debye-Ang):
   XX=            -10.0967   YY=             -7.7439   ZZ=            -14.7142
   XY=             -3.3268   XZ=              0.0000   YZ=             -0.0000

 Normal termination of Gaussian 16 at Fri Aug 26 23:46:26 2022.
