 Gaussian 16, Revision A.03,
 Gaussian 16:  ES64L-G16RevA.03 25-Dec-2016

 ------------------
 #p CCSD(T)/cc-pVTZ
 ------------------

 ------------
 H2O_H2O_2581
 ------------
 Symbolic Z-matrix:
 Charge =  0 Multiplicity = 1

                         Standard orientation:
 ---------------------------------------------------------------------
 Center     Atomic      Atomic             Coordinates (Angstroms)
 Number     Number       Type             X           Y           Z
 ---------------------------------------------------------------------
      1          8           0        0.076763    2.130501    0.000000
      2          1           0        0.076093    1.147899    0.000000
      3          1           0       -0.852512    2.449801    0.000000
      4          8           0        0.076763   -1.967302   -0.000000
      5          1           0        0.452169   -2.875364   -0.000000
      6          1           0       -0.903966   -2.027924   -0.000000
 ---------------------------------------------------------------------

 SCF Done:  E(RHF) =  -152.109708389     A.U. after   10 cycles
 E2 =    -0.5261553758D+00 EUMP2 =    -0.15263586376494D+03
 CCSD(T)
 CCSD(T)= -0.15266299616D+03

 The electronic state is 1-A'.
 Alpha  occ. eigenvalues --  -20.56887 -20.54514  -1.34163  -1.31832  -0.71584
 Alpha  occ. eigenvalues --   -0.69210  -0.57695  -0.55299  -0.51285  -0.48960
 Alpha virt. eigenvalues --    0.11994   0.16087   0.19479   0.23706   0.53560
 Alpha virt. eigenvalues --    0.55451   0.56243   0.58487   0.68780   0.70232
 Alpha virt. eigenvalues --    0.77472   0.79121   0.79911   0.80669   0.83144

 Mulliken charges:
               1
     1  O   -0.517396
     2  H    0.264697
     3  H    0.248270
     4  O   -0.508442
     5  H    0.259613
     6  H    0.253259
 Sum of Mulliken charges =  -0.00000

 Dipole moment (field-independent basis, Debye):
    X=             -2.6078    Y=             -2.9761    Z=             -0.0000  Tot=              3.9570
 Quadrupole moment (field-independent basis, Debye-Ang):
   XX=             -9.9621   YY=             -8.0070   ZZ=            -14.7186
   XY=             -3.2706   XZ=             -0.0000   YZ=             -0.0000

 Normal termination of Gaussian 16 at Fri Aug 26 15:46:30 2022.
