 Gaussian 16, Revision A.03,
 Gaussian 16:  ES64L-G16RevA.03 25-Dec-2016

 ------------------
 #p CCSD(T)/cc-pVTZ
 ------------------

 ------------
 H2O_H2O_3330
 ------------
 Symbolic Z-matrix:
 Charge =  0 Multiplicity = 1

                         Standard orientation:
 ---------------------------------------------------------------------
 Center     Atomic      Atomic             Coordinates (Angstroms)
 Number     Number       Type             X           Y           Z
 ---------------------------------------------------------------------
      1          8           0        0.079851    2.427412    0.000000
      2          1           0        0.079377    1.444810    0.000000
      3          1           0       -0.849489    2.746526    0.000000
      4          8           0        0.079851   -2.268347   -0.000000
      5          1           0        0.395249   -3.198955   -0.000000
      6          1           0       -0.902745   -2.264895   -0.000000
 ---------------------------------------------------------------------

 SCF Done:  E(RHF) =  -152.108617880     A.U. after   10 cycles
 E2 =    -0.5259451484D+00 EUMP2 =    -0.15263456302874D+03
 CCSD(T)
 CCSD(T)= -0.15266173955D+03

 The electronic state is 1-A'.
 Alpha  occ. eigenvalues --  -20.56513 -20.54875  -1.33805  -1.32184  -0.71221
 Alpha  occ. eigenvalues --   -0.69571  -0.57297  -0.55649  -0.50922  -0.49305
 Alpha virt. eigenvalues --    0.12218   0.15502   0.19348   0.22231   0.53540
 Alpha virt. eigenvalues --    0.55053   0.56407   0.58180   0.67230   0.69202
 Alpha virt. eigenvalues --    0.77984   0.78631   0.79548   0.80689   0.82791

 Mulliken charges:
               1
     1  O   -0.513133
     2  H    0.261329
     3  H    0.250466
     4  O   -0.512085
     5  H    0.259896
     6  H    0.253528
 Sum of Mulliken charges =  -0.00000

 Dipole moment (field-independent basis, Debye):
    X=             -2.7257    Y=             -2.8377    Z=             -0.0000  Tot=              3.9347
 Quadrupole moment (field-independent basis, Debye-Ang):
   XX=            -10.1003   YY=             -7.9020   ZZ=            -14.7153
   XY=             -3.2392   XZ=             -0.0000   YZ=             -0.0000

 Normal termination of Gaussian 16 at Fri Aug 26 21:06:18 2022.
