 Gaussian 16, Revision A.03,
 Gaussian 16:  ES64L-G16RevA.03 25-Dec-2016

 ------------------
 #p CCSD(T)/cc-pVTZ
 ------------------

 ------------
 H2O_H2O_2234
 ------------
 Symbolic Z-matrix:
 Charge =  0 Multiplicity = 1

                         Standard orientation:
 ---------------------------------------------------------------------
 Center     Atomic      Atomic             Coordinates (Angstroms)
 Number     Number       Type             X           Y           Z
 ---------------------------------------------------------------------
      1          8           0        0.066776    1.996262   -0.000000
      2          1           0        0.065612    1.013661   -0.000000
      3          1           0       -0.862338    2.316030   -0.000000
      4          8           0        0.066776   -1.823183    0.000000
      5          1           0        0.611712   -2.640832    0.000000
      6          1           0       -0.883408   -2.073495    0.000000
 ---------------------------------------------------------------------

 SCF Done:  E(RHF) =  -152.110988616     A.U. after   10 cycles
 E2 =    -0.5263053941D+00 EUMP2 =    -0.15263729401045D+03
 CCSD(T)
 CCSD(T)= -0.15266438944D+03

 The electronic state is 1-A'.
 Alpha  occ. eigenvalues --  -20.57147 -20.54085  -1.34409  -1.31421  -0.71816
 Alpha  occ. eigenvalues --   -0.68810  -0.58012  -0.54885  -0.51539  -0.48560
 Alpha virt. eigenvalues --    0.12100   0.16533   0.19362   0.24995   0.52346
 Alpha virt. eigenvalues --    0.55751   0.55990   0.58684   0.68875   0.71763
 Alpha virt. eigenvalues --    0.76875   0.78496   0.80340   0.82992   0.83523

 Mulliken charges:
               1
     1  O   -0.522673
     2  H    0.267242
     3  H    0.247526
     4  O   -0.507241
     5  H    0.260424
     6  H    0.254722
 Sum of Mulliken charges =  -0.00000

 Dipole moment (field-independent basis, Debye):
    X=             -2.2623    Y=             -3.2102    Z=              0.0000  Tot=              3.9273
 Quadrupole moment (field-independent basis, Debye-Ang):
   XX=             -9.5729   YY=             -7.8792   ZZ=            -14.7234
   XY=             -3.6078   XZ=              0.0000   YZ=              0.0000

 Normal termination of Gaussian 16 at Sun Aug 28 05:35:57 2022.
