 Gaussian 16, Revision A.03,
 Gaussian 16:  ES64L-G16RevA.03 25-Dec-2016

 ------------------
 #p CCSD(T)/cc-pVTZ
 ------------------

 ------------
 H2O_H2O_2222
 ------------
 Symbolic Z-matrix:
 Charge =  0 Multiplicity = 1

                         Standard orientation:
 ---------------------------------------------------------------------
 Center     Atomic      Atomic             Coordinates (Angstroms)
 Number     Number       Type             X           Y           Z
 ---------------------------------------------------------------------
      1          8           0       -0.019906    1.983042    0.000000
      2          1           0       -0.016641    1.000446    0.000000
      3          1           0        0.908523    2.304795    0.000000
      4          8           0       -0.019906   -1.815959    0.000000
      5          1           0       -0.993670   -1.947451    0.000000
      6          1           0        0.420279   -2.694448    0.000000
 ---------------------------------------------------------------------

 SCF Done:  E(RHF) =  -152.111503629     A.U. after   10 cycles
 E2 =    -0.5262237382D+00 EUMP2 =    -0.15263772736673D+03
 CCSD(T)
 CCSD(T)= -0.15266481699D+03

 The electronic state is 1-A'.
 Alpha  occ. eigenvalues --  -20.57117 -20.54098  -1.34386  -1.31440  -0.71797
 Alpha  occ. eigenvalues --   -0.68856  -0.58019  -0.54919  -0.51520  -0.48591
 Alpha virt. eigenvalues --    0.12228   0.16700   0.19235   0.25345   0.53225
 Alpha virt. eigenvalues --    0.55016   0.56157   0.58716   0.68822   0.72059
 Alpha virt. eigenvalues --    0.76827   0.78849   0.80320   0.82855   0.83573

 Mulliken charges:
               1
     1  O   -0.527765
     2  H    0.266404
     3  H    0.253546
     4  O   -0.510734
     5  H    0.260456
     6  H    0.258094
 Sum of Mulliken charges =   0.00000

 Dipole moment (field-independent basis, Debye):
    X=              0.6802    Y=             -3.0991    Z=              0.0000  Tot=              3.1729
 Quadrupole moment (field-independent basis, Debye-Ang):
   XX=             -9.4479   YY=             -8.0399   ZZ=            -14.7252
   XY=              5.0611   XZ=              0.0000   YZ=              0.0000

 Normal termination of Gaussian 16 at Sun Aug 28 05:31:40 2022.
