 Gaussian 16, Revision A.03,
 Gaussian 16:  ES64L-G16RevA.03 25-Dec-2016

 ------------------
 #p CCSD(T)/cc-pVTZ
 ------------------

 ------------
 H2O_H2O_2192
 ------------
 Symbolic Z-matrix:
 Charge =  0 Multiplicity = 1

                         Standard orientation:
 ---------------------------------------------------------------------
 Center     Atomic      Atomic             Coordinates (Angstroms)
 Number     Number       Type             X           Y           Z
 ---------------------------------------------------------------------
      1          8           0        0.037484    1.979503    0.000000
      2          1           0        0.034991    0.996905    0.000000
      3          1           0       -0.891198    2.300526    0.000000
      4          8           0        0.037484   -1.800570    0.000000
      5          1           0        0.917647   -2.237398    0.000000
      6          1           0       -0.661179   -2.491494    0.000000
 ---------------------------------------------------------------------

 SCF Done:  E(RHF) =  -152.111850431     A.U. after   10 cycles
 E2 =    -0.5262488891D+00 EUMP2 =    -0.15263809932043D+03
 CCSD(T)
 CCSD(T)= -0.15266517933D+03

 The electronic state is 1-A'.
 Alpha  occ. eigenvalues --  -20.57177 -20.53869  -1.34432  -1.31217  -0.71820
 Alpha  occ. eigenvalues --   -0.68633  -0.58088  -0.54694  -0.51572  -0.48369
 Alpha virt. eigenvalues --    0.12287   0.16810   0.19211   0.25405   0.52276
 Alpha virt. eigenvalues --    0.55191   0.56453   0.58874   0.69063   0.71987
 Alpha virt. eigenvalues --    0.76777   0.78094   0.80515   0.83475   0.83557

 Mulliken charges:
               1
     1  O   -0.527848
     2  H    0.268022
     3  H    0.250767
     4  O   -0.509749
     5  H    0.261279
     6  H    0.257529
 Sum of Mulliken charges =  -0.00000

 Dipole moment (field-independent basis, Debye):
    X=             -1.2710    Y=             -3.3301    Z=              0.0000  Tot=              3.5644
 Quadrupole moment (field-independent basis, Debye-Ang):
   XX=             -9.1601   YY=             -7.7604   ZZ=            -14.7267
   XY=             -4.4575   XZ=              0.0000   YZ=              0.0000

 Normal termination of Gaussian 16 at Sun Aug 28 05:15:29 2022.
