 Gaussian 16, Revision A.03,
 Gaussian 16:  ES64L-G16RevA.03 25-Dec-2016

 ------------------
 #p CCSD(T)/cc-pVTZ
 ------------------

 ------------
 H2O_H2O_1760
 ------------
 Symbolic Z-matrix:
 Charge =  0 Multiplicity = 1

                         Standard orientation:
 ---------------------------------------------------------------------
 Center     Atomic      Atomic             Coordinates (Angstroms)
 Number     Number       Type             X           Y           Z
 ---------------------------------------------------------------------
      1          8           0        0.063267    1.808092   -0.000000
      2          1           0        0.061802    0.825491   -0.000000
      3          1           0       -0.865749    2.128144   -0.000000
      4          8           0        0.063267   -1.632629    0.000000
      5          1           0        0.660274   -2.413071    0.000000
      6          1           0       -0.868607   -1.944263    0.000000
 ---------------------------------------------------------------------

 SCF Done:  E(RHF) =  -152.112491493     A.U. after   10 cycles
 E2 =    -0.5267638412D+00 EUMP2 =    -0.15263925533379D+03
 CCSD(T)
 CCSD(T)= -0.15266630061D+03

 The electronic state is 1-A'.
 Alpha  occ. eigenvalues --  -20.57616 -20.53524  -1.34880  -1.30904  -0.72272
 Alpha  occ. eigenvalues --   -0.68367  -0.58594  -0.54317  -0.52010  -0.48048
 Alpha virt. eigenvalues --    0.12023   0.17026   0.19254   0.27304   0.50556
 Alpha virt. eigenvalues --    0.55202   0.56321   0.58826   0.69218   0.72707
 Alpha virt. eigenvalues --    0.75365   0.77280   0.80963   0.83205   0.84243

 Mulliken charges:
               1
     1  O   -0.530490
     2  H    0.271859
     3  H    0.245207
     4  O   -0.504757
     5  H    0.262443
     6  H    0.255738
 Sum of Mulliken charges =  -0.00000

 Dipole moment (field-independent basis, Debye):
    X=             -2.1298    Y=             -3.3563    Z=              0.0000  Tot=              3.9751
 Quadrupole moment (field-independent basis, Debye-Ang):
   XX=             -9.4703   YY=             -8.1296   ZZ=            -14.7299
   XY=             -3.5332   XZ=              0.0000   YZ=             -0.0000

 Normal termination of Gaussian 16 at Sun Aug 28 01:22:23 2022.
