 Gaussian 16, Revision A.03,
 Gaussian 16:  ES64L-G16RevA.03 25-Dec-2016

 ------------------
 #p CCSD(T)/cc-pVTZ
 ------------------

 ------------
 H2O_H2O_1614
 ------------
 Symbolic Z-matrix:
 Charge =  0 Multiplicity = 1

                         Standard orientation:
 ---------------------------------------------------------------------
 Center     Atomic      Atomic             Coordinates (Angstroms)
 Number     Number       Type             X           Y           Z
 ---------------------------------------------------------------------
      1          8           0        0.048638    1.750907    0.000000
      2          1           0        0.046370    0.768308    0.000000
      3          1           0       -0.880117    2.071718    0.000000
      4          8           0        0.048638   -1.570578    0.000000
      5          1           0        0.826806   -2.170544    0.000000
      6          1           0       -0.771269   -2.112112    0.000000
 ---------------------------------------------------------------------

 SCF Done:  E(RHF) =  -152.113545649     A.U. after   10 cycles
 E2 =    -0.5269292867D+00 EUMP2 =    -0.15264047493545D+03
 CCSD(T)
 CCSD(T)= -0.15266749117D+03

 The electronic state is 1-A'.
 Alpha  occ. eigenvalues --  -20.57803 -20.53129  -1.35070  -1.30546  -0.72423
 Alpha  occ. eigenvalues --   -0.68111  -0.58865  -0.53927  -0.52206  -0.47698
 Alpha virt. eigenvalues --    0.12092   0.17440   0.19033   0.28340   0.50282
 Alpha virt. eigenvalues --    0.54703   0.56237   0.59344   0.69064   0.72137
 Alpha virt. eigenvalues --    0.74789   0.76841   0.81320   0.83137   0.84723

 Mulliken charges:
               1
     1  O   -0.537992
     2  H    0.275301
     3  H    0.246432
     4  O   -0.506753
     5  H    0.264575
     6  H    0.258437
 Sum of Mulliken charges =  -0.00000

 Dipole moment (field-independent basis, Debye):
    X=             -1.6340    Y=             -3.4970    Z=              0.0000  Tot=              3.8600
 Quadrupole moment (field-independent basis, Debye-Ang):
   XX=             -9.1886   YY=             -8.1708   ZZ=            -14.7342
   XY=             -3.7899   XZ=              0.0000   YZ=              0.0000

 Normal termination of Gaussian 16 at Sat Aug 27 23:54:28 2022.
