 Gaussian 16, Revision A.03,
 Gaussian 16:  ES64L-G16RevA.03 25-Dec-2016

 ------------------
 #p CCSD(T)/cc-pVTZ
 ------------------

 ------------
 H2O_H2O_1279
 ------------
 Symbolic Z-matrix:
 Charge =  0 Multiplicity = 1

                         Standard orientation:
 ---------------------------------------------------------------------
 Center     Atomic      Atomic             Coordinates (Angstroms)
 Number     Number       Type             X           Y           Z
 ---------------------------------------------------------------------
      1          8           0        0.082818   -1.607228    0.000000
      2          1           0        0.082255   -0.624627    0.000000
      3          1           0       -0.846492   -1.926427    0.000000
      4          8           0        0.082818    1.452742    0.000000
      5          1           0        0.336590    2.402007    0.000000
      6          1           0       -0.897442    1.384942    0.000000
 ---------------------------------------------------------------------

 SCF Done:  E(RHF) =  -152.110832615     A.U. after   10 cycles
 E2 =    -0.5280466397D+00 EUMP2 =    -0.15263887925445D+03
 CCSD(T)
 CCSD(T)= -0.15266588297D+03

 The electronic state is 1-A'.
 Alpha  occ. eigenvalues --  -20.58231 -20.53415  -1.35637  -1.30863  -0.73280
 Alpha  occ. eigenvalues --   -0.68371  -0.59198  -0.54140  -0.52688  -0.47967
 Alpha virt. eigenvalues --    0.11629   0.16689   0.19956   0.29477   0.49034
 Alpha virt. eigenvalues --    0.54639   0.58203   0.58505   0.69057   0.73201
 Alpha virt. eigenvalues --    0.74685   0.77136   0.81362   0.81969   0.83761

 Mulliken charges:
               1
     1  O   -0.535001
     2  H    0.280437
     3  H    0.237417
     4  O   -0.474754
     5  H    0.245274
     6  H    0.246626
 Sum of Mulliken charges =  -0.00000

 Dipole moment (field-independent basis, Debye):
    X=             -2.7524    Y=              3.1015    Z=              0.0000  Tot=              4.1468
 Quadrupole moment (field-independent basis, Debye-Ang):
   XX=            -10.2920   YY=             -8.7523   ZZ=            -14.7162
   XY=              2.7138   XZ=              0.0000   YZ=              0.0000

 Normal termination of Gaussian 16 at Fri Aug 26 23:34:10 2022.
