 Gaussian 16, Revision A.03,
 Gaussian 16:  ES64L-G16RevA.03 25-Dec-2016

 ------------------
 #p CCSD(T)/cc-pVTZ
 ------------------

 ------------
 H2O_H2O_1206
 ------------
 Symbolic Z-matrix:
 Charge =  0 Multiplicity = 1

                         Standard orientation:
 ---------------------------------------------------------------------
 Center     Atomic      Atomic             Coordinates (Angstroms)
 Number     Number       Type             X           Y           Z
 ---------------------------------------------------------------------
      1          8           0        0.076784    1.582025   -0.000000
      2          1           0        0.075868    0.599424   -0.000000
      3          1           0       -0.852412    1.901558   -0.000000
      4          8           0        0.076784   -1.418865    0.000000
      5          1           0        0.451963   -2.327020    0.000000
      6          1           0       -0.903961   -1.479243    0.000000
 ---------------------------------------------------------------------

 SCF Done:  E(RHF) =  -152.111708073     A.U. after   10 cycles
 E2 =    -0.5281753805D+00 EUMP2 =    -0.15263988345327D+03
 CCSD(T)
 CCSD(T)= -0.15266684538D+03

 The electronic state is 1-A'.
 Alpha  occ. eigenvalues --  -20.58382 -20.52935  -1.35801  -1.30435  -0.73340
 Alpha  occ. eigenvalues --   -0.68185  -0.59377  -0.53660  -0.52857  -0.47543
 Alpha virt. eigenvalues --    0.11684   0.16922   0.19714   0.30170   0.48739
 Alpha virt. eigenvalues --    0.54744   0.58301   0.58731   0.69568   0.73085
 Alpha virt. eigenvalues --    0.74486   0.76657   0.81709   0.82117   0.84065

 Mulliken charges:
               1
     1  O   -0.542335
     2  H    0.284643
     3  H    0.237140
     4  O   -0.476738
     5  H    0.247914
     6  H    0.249376
 Sum of Mulliken charges =  -0.00000

 Dipole moment (field-independent basis, Debye):
    X=             -2.5472    Y=             -3.3129    Z=              0.0000  Tot=              4.1789
 Quadrupole moment (field-independent basis, Debye-Ang):
   XX=             -9.9879   YY=             -8.6796   ZZ=            -14.7196
   XY=             -2.9373   XZ=              0.0000   YZ=             -0.0000

 Normal termination of Gaussian 16 at Fri Aug 26 23:07:16 2022.
