 Gaussian 16, Revision A.03,
 Gaussian 16:  ES64L-G16RevA.03 25-Dec-2016

 ------------------
 #p CCSD(T)/cc-pVTZ
 ------------------

 ------------
 H2O_H2O_2536
 ------------
 Symbolic Z-matrix:
 Charge =  0 Multiplicity = 1

                         Standard orientation:
 ---------------------------------------------------------------------
 Center     Atomic      Atomic             Coordinates (Angstroms)
 Number     Number       Type             X           Y           Z
 ---------------------------------------------------------------------
      1          8           0        0.059654    2.118288    0.000000
      2          1           0        0.058261    1.135687    0.000000
      3          1           0       -0.869386    2.438272    0.000000
      4          8           0        0.059654   -1.940860   -0.000000
      5          1           0        0.706480   -2.680537   -0.000000
      6          1           0       -0.849816   -2.312842   -0.000000
 ---------------------------------------------------------------------

 SCF Done:  E(RHF) =  -152.110553873     A.U. after   10 cycles
 E2 =    -0.5261110015D+00 EUMP2 =    -0.15263666487491D+03
 CCSD(T)
 CCSD(T)= -0.15266377911D+03

 The electronic state is 1-A'.
 Alpha  occ. eigenvalues --  -20.56925 -20.54216  -1.34190  -1.31545  -0.71591
 Alpha  occ. eigenvalues --   -0.68933  -0.57766  -0.55025  -0.51322  -0.48683
 Alpha virt. eigenvalues --    0.12267   0.16329   0.19364   0.23942   0.52842
 Alpha virt. eigenvalues --    0.55681   0.56117   0.58945   0.68975   0.70457
 Alpha virt. eigenvalues --    0.77419   0.78795   0.80163   0.80717   0.83535

 Mulliken charges:
               1
     1  O   -0.521269
     2  H    0.266235
     3  H    0.249383
     4  O   -0.510359
     5  H    0.260293
     6  H    0.255718
 Sum of Mulliken charges =  -0.00000

 Dipole moment (field-independent basis, Debye):
    X=             -2.0269    Y=             -3.2475    Z=             -0.0000  Tot=              3.8282
 Quadrupole moment (field-independent basis, Debye-Ang):
   XX=             -9.3675   YY=             -7.5761   ZZ=            -14.7218
   XY=             -3.9895   XZ=             -0.0000   YZ=             -0.0000

 Normal termination of Gaussian 16 at Fri Aug 26 15:26:23 2022.
