 Gaussian 16, Revision A.03,
 Gaussian 16:  ES64L-G16RevA.03 25-Dec-2016

 ------------------
 #p CCSD(T)/cc-pVTZ
 ------------------

 -----------
 H2O_H2O_640
 -----------
 Symbolic Z-matrix:
 Charge =  0 Multiplicity = 1

                         Standard orientation:
 ---------------------------------------------------------------------
 Center     Atomic      Atomic             Coordinates (Angstroms)
 Number     Number       Type             X           Y           Z
 ---------------------------------------------------------------------
      1          8           0        0.044987    1.361975    0.000000
      2          1           0        0.041778    0.379379    0.000000
      3          1           0       -0.883460    1.683676    0.000000
      4          8           0        0.044987   -1.181704   -0.000000
      5          1           0        0.860203   -1.730274   -0.000000
      6          1           0       -0.738316   -1.774952   -0.000000
 ---------------------------------------------------------------------

 SCF Done:  E(RHF) =  -152.106556276     A.U. after   11 cycles
 E2 =    -0.5306427663D+00 EUMP2 =    -0.15263719904193D+03
 CCSD(T)
 CCSD(T)= -0.15266373819D+03

 The electronic state is 1-A'.
 Alpha  occ. eigenvalues --  -20.59790 -20.49659  -1.37858  -1.27860  -0.74685
 Alpha  occ. eigenvalues --   -0.69960  -0.59124  -0.54679  -0.50265  -0.44866
 Alpha virt. eigenvalues --    0.11458   0.17833   0.19504   0.33384   0.47588
 Alpha virt. eigenvalues --    0.53970   0.59794   0.63155   0.69732   0.72355
 Alpha virt. eigenvalues --    0.72745   0.78319   0.81629   0.82756   0.84276

 Mulliken charges:
               1
     1  O   -0.601886
     2  H    0.312852
     3  H    0.231777
     4  O   -0.458104
     5  H    0.262725
     6  H    0.252635
 Sum of Mulliken charges =  -0.00000

 Dipole moment (field-independent basis, Debye):
    X=             -1.4533    Y=             -4.1398    Z=             -0.0000  Tot=              4.3875
 Quadrupole moment (field-independent basis, Debye-Ang):
   XX=             -9.1399   YY=             -9.2341   ZZ=            -14.6947
   XY=             -3.1603   XZ=             -0.0000   YZ=             -0.0000

 Normal termination of Gaussian 16 at Fri Aug 26 19:34:16 2022.
