 Gaussian 16, Revision A.03,
 Gaussian 16:  ES64L-G16RevA.03 25-Dec-2016

 ------------------
 #p CCSD(T)/cc-pVTZ
 ------------------

 -----------
 H2O_H2O_173
 -----------
 Symbolic Z-matrix:
 Charge =  0 Multiplicity = 1

                         Standard orientation:
 ---------------------------------------------------------------------
 Center     Atomic      Atomic             Coordinates (Angstroms)
 Number     Number       Type             X           Y           Z
 ---------------------------------------------------------------------
      1          8           0        0.016886   -1.163293    0.000000
      2          1           0        0.010899   -0.180709    0.000000
      3          1           0       -0.910648   -1.487617    0.000000
      4          8           0        0.016886    1.000009    0.000000
      5          1           0        0.996974    1.070248    0.000000
      6          1           0       -0.367408    1.904346    0.000000
 ---------------------------------------------------------------------

 SCF Done:  E(RHF) =  -152.058879124     A.U. after   11 cycles
 E2 =    -0.5353607422D+00 EUMP2 =    -0.15259423986585D+03
 CCSD(T)
 CCSD(T)= -0.15261996932D+03

 The electronic state is 1-A'.
 Alpha  occ. eigenvalues --  -20.61348 -20.46016  -1.42304  -1.25592  -0.80654
 Alpha  occ. eigenvalues --   -0.72343  -0.57519  -0.56908  -0.46208  -0.42340
 Alpha virt. eigenvalues --    0.10905   0.17285   0.20525   0.33816   0.47612
 Alpha virt. eigenvalues --    0.51994   0.59895   0.69009   0.71389   0.72159
 Alpha virt. eigenvalues --    0.76386   0.77066   0.79691   0.85279   0.85467

 Mulliken charges:
               1
     1  O   -0.662673
     2  H    0.281405
     3  H    0.228419
     4  O   -0.340766
     5  H    0.263581
     6  H    0.230035
 Sum of Mulliken charges =  -0.00000

 Dipole moment (field-independent basis, Debye):
    X=             -0.5187    Y=              4.4937    Z=              0.0000  Tot=              4.5236
 Quadrupole moment (field-independent basis, Debye-Ang):
   XX=             -9.4261   YY=             -9.9074   ZZ=            -14.5775
   XY=              2.9618   XZ=              0.0000   YZ=              0.0000

 Normal termination of Gaussian 16 at Fri Aug 26 16:22:17 2022.
