 Gaussian 16, Revision A.03,
 Gaussian 16:  ES64L-G16RevA.03 25-Dec-2016

 ------------------
 #p CCSD(T)/cc-pVTZ
 ------------------

 ------------
 H2O_H2O_1435
 ------------
 Symbolic Z-matrix:
 Charge =  0 Multiplicity = 1

                         Standard orientation:
 ---------------------------------------------------------------------
 Center     Atomic      Atomic             Coordinates (Angstroms)
 Number     Number       Type             X           Y           Z
 ---------------------------------------------------------------------
      1          8           0        0.063278    1.678449   -0.000000
      2          1           0        0.061693    0.695849   -0.000000
      3          1           0       -0.865699    1.998614   -0.000000
      4          8           0        0.063278   -1.503002    0.000000
      5          1           0        0.660190   -2.283516    0.000000
      6          1           0       -0.868634   -1.814523    0.000000
 ---------------------------------------------------------------------

 SCF Done:  E(RHF) =  -152.113245229     A.U. after   10 cycles
 E2 =    -0.5273624091D+00 EUMP2 =    -0.15264060763826D+03
 CCSD(T)
 CCSD(T)= -0.15266760261D+03

 The electronic state is 1-A'.
 Alpha  occ. eigenvalues --  -20.58045 -20.52989  -1.35352  -1.30438  -0.72727
 Alpha  occ. eigenvalues --   -0.68097  -0.59108  -0.53756  -0.52467  -0.47575
 Alpha virt. eigenvalues --    0.11918   0.17286   0.19237   0.29190   0.49373
 Alpha virt. eigenvalues --    0.55009   0.56681   0.59106   0.69637   0.72701
 Alpha virt. eigenvalues --    0.74042   0.76641   0.81530   0.82867   0.84579

 Mulliken charges:
               1
     1  O   -0.539606
     2  H    0.279505
     3  H    0.242355
     4  O   -0.500333
     5  H    0.262067
     6  H    0.256013
 Sum of Mulliken charges =  -0.00000

 Dipole moment (field-independent basis, Debye):
    X=             -2.1155    Y=             -3.4619    Z=              0.0000  Tot=              4.0571
 Quadrupole moment (field-independent basis, Debye-Ang):
   XX=             -9.4732   YY=             -8.3732   ZZ=            -14.7316
   XY=             -3.3931   XZ=              0.0000   YZ=             -0.0000

 Normal termination of Gaussian 16 at Sat Aug 27 00:34:03 2022.
