 Gaussian 16, Revision A.03,
 Gaussian 16:  ES64L-G16RevA.03 25-Dec-2016

 ------------------
 #p CCSD(T)/cc-pVTZ
 ------------------

 ------------
 H2O_H2O_4019
 ------------
 Symbolic Z-matrix:
 Charge =  0 Multiplicity = 1

                         Standard orientation:
 ---------------------------------------------------------------------
 Center     Atomic      Atomic             Coordinates (Angstroms)
 Number     Number       Type             X           Y           Z
 ---------------------------------------------------------------------
      1          8           0        0.030160    2.705656    0.000000
      2          1           0        0.028125    1.723056    0.000000
      3          1           0       -0.898671    3.026246   -0.000000
      4          8           0        0.030160   -2.530029    0.000000
      5          1           0        0.959960   -2.847802    0.000000
      6          1           0       -0.571980   -3.306517   -0.000000
 ---------------------------------------------------------------------

 SCF Done:  E(RHF) =  -152.108786263     A.U. after   10 cycles
 E2 =    -0.5258100924D+00 EUMP2 =    -0.15263459635556D+03
 CCSD(T)
 CCSD(T)= -0.15266178164D+03

 The electronic state is 1-A'.
 Alpha  occ. eigenvalues --  -20.56282 -20.54852  -1.33581  -1.32162  -0.70984
 Alpha  occ. eigenvalues --   -0.69565  -0.57088  -0.55641  -0.50702  -0.49290
 Alpha virt. eigenvalues --    0.13056   0.15191   0.19565   0.21392   0.53455
 Alpha virt. eigenvalues --    0.54996   0.56608   0.57837   0.66678   0.69056
 Alpha virt. eigenvalues --    0.78190   0.79190   0.79559   0.80124   0.82849

 Mulliken charges:
               1
     1  O   -0.515604
     2  H    0.261265
     3  H    0.253912
     4  O   -0.515904
     5  H    0.258405
     6  H    0.257927
 Sum of Mulliken charges =  -0.00000

 Dipole moment (field-independent basis, Debye):
    X=             -1.0336    Y=             -3.0985    Z=             -0.0000  Tot=              3.2664
 Quadrupole moment (field-independent basis, Debye-Ang):
   XX=             -9.2299   YY=             -6.7658   ZZ=            -14.7161
   XY=             -6.2545   XZ=             -0.0000   YZ=             -0.0000

 Normal termination of Gaussian 16 at Sat Aug 27 01:02:34 2022.
