 Gaussian 16, Revision A.03,
 Gaussian 16:  ES64L-G16RevA.03 25-Dec-2016

 ------------------
 #p CCSD(T)/cc-pVTZ
 ------------------

 ------------
 H2O_H2O_2344
 ------------
 Symbolic Z-matrix:
 Charge =  0 Multiplicity = 1

                         Standard orientation:
 ---------------------------------------------------------------------
 Center     Atomic      Atomic             Coordinates (Angstroms)
 Number     Number       Type             X           Y           Z
 ---------------------------------------------------------------------
      1          8           0        0.030223    2.037517   -0.000000
      2          1           0        0.027490    1.054919   -0.000000
      3          1           0       -0.898381    2.358766   -0.000000
      4          8           0        0.030223   -1.861933    0.000000
      5          1           0        0.959796   -2.180365    0.000000
      6          1           0       -0.572469   -2.637993    0.000000
 ---------------------------------------------------------------------

 SCF Done:  E(RHF) =  -152.111388742     A.U. after   10 cycles
 E2 =    -0.5261510924D+00 EUMP2 =    -0.15263753983429D+03
 CCSD(T)
 CCSD(T)= -0.15266463391D+03

 The electronic state is 1-A'.
 Alpha  occ. eigenvalues --  -20.57043 -20.54054  -1.34305  -1.31393  -0.71701
 Alpha  occ. eigenvalues --   -0.68802  -0.57929  -0.54879  -0.51443  -0.48543
 Alpha virt. eigenvalues --    0.12304   0.16625   0.19251   0.24801   0.52850
 Alpha virt. eigenvalues --    0.55351   0.56413   0.58738   0.69002   0.71424
 Alpha virt. eigenvalues --    0.77106   0.78610   0.80324   0.82174   0.83644

 Mulliken charges:
               1
     1  O   -0.526289
     2  H    0.266864
     3  H    0.252135
     4  O   -0.511081
     5  H    0.260697
     6  H    0.257674
 Sum of Mulliken charges =  -0.00000

 Dipole moment (field-independent basis, Debye):
    X=             -1.0276    Y=             -3.2409    Z=              0.0000  Tot=              3.3999
 Quadrupole moment (field-independent basis, Debye-Ang):
   XX=             -9.2299   YY=             -7.7439   ZZ=            -14.7248
   XY=             -4.8043   XZ=              0.0000   YZ=             -0.0000

 Normal termination of Gaussian 16 at Sun Aug 28 06:27:13 2022.
