 Gaussian 16, Revision A.03,
 Gaussian 16:  ES64L-G16RevA.03 25-Dec-2016

 ------------------
 #p CCSD(T)/cc-pVTZ
 ------------------

 ------------
 H2O_H2O_4509
 ------------
 Symbolic Z-matrix:
 Charge =  0 Multiplicity = 1

                         Standard orientation:
 ---------------------------------------------------------------------
 Center     Atomic      Atomic             Coordinates (Angstroms)
 Number     Number       Type             X           Y           Z
 ---------------------------------------------------------------------
      1          8           0        0.066743    2.903733    0.000000
      2          1           0        0.065954    1.921132    0.000000
      3          1           0       -0.862493    3.223146   -0.000000
      4          8           0        0.066743   -2.730603    0.000000
      5          1           0        0.611991   -3.548044    0.000000
      6          1           0       -0.883346   -2.981276   -0.000000
 ---------------------------------------------------------------------

 SCF Done:  E(RHF) =  -152.108222085     A.U. after   10 cycles
 E2 =    -0.5258266447D+00 EUMP2 =    -0.15263404872946D+03
 CCSD(T)
 CCSD(T)= -0.15266124985D+03

 The electronic state is 1-A'.
 Alpha  occ. eigenvalues --  -20.56191 -20.55012  -1.33492  -1.32319  -0.70899
 Alpha  occ. eigenvalues --   -0.69717  -0.56976  -0.55784  -0.50609  -0.49439
 Alpha virt. eigenvalues --    0.13289   0.14875   0.19600   0.21058   0.53560
 Alpha virt. eigenvalues --    0.54860   0.56637   0.57773   0.66859   0.68705
 Alpha virt. eigenvalues --    0.78279   0.79421   0.79517   0.80431   0.82568

 Mulliken charges:
               1
     1  O   -0.512694
     2  H    0.259956
     3  H    0.252622
     4  O   -0.513603
     5  H    0.258507
     6  H    0.255212
 Sum of Mulliken charges =  -0.00000

 Dipole moment (field-independent basis, Debye):
    X=             -2.2888    Y=             -3.0389    Z=              0.0000  Tot=              3.8044
 Quadrupole moment (field-independent basis, Debye-Ang):
   XX=             -9.5601   YY=             -6.6378   ZZ=            -14.7141
   XY=             -4.4368   XZ=              0.0000   YZ=              0.0000

 Normal termination of Gaussian 16 at Sun Aug 28 03:27:16 2022.
