 Gaussian 16, Revision A.03,
 Gaussian 16:  ES64L-G16RevA.03 25-Dec-2016

 ------------------
 #p CCSD(T)/cc-pVTZ
 ------------------

 ------------
 H2O_H2O_4321
 ------------
 Symbolic Z-matrix:
 Charge =  0 Multiplicity = 1

                         Standard orientation:
 ---------------------------------------------------------------------
 Center     Atomic      Atomic             Coordinates (Angstroms)
 Number     Number       Type             X           Y           Z
 ---------------------------------------------------------------------
      1          8           0       -0.023170    2.822485    0.000000
      2          1           0       -0.021008    1.839886    0.000000
      3          1           0        0.905619    3.143196    0.000000
      4          8           0       -0.023170   -2.652077    0.000000
      5          1           0       -0.986467   -2.845893    0.000000
      6          1           0        0.472577   -3.500452    0.000000
 ---------------------------------------------------------------------

 SCF Done:  E(RHF) =  -152.108566413     A.U. after   10 cycles
 E2 =    -0.5258006893D+00 EUMP2 =    -0.15263436710271D+03
 CCSD(T)
 CCSD(T)= -0.15266156054D+03

 The electronic state is 1-A'.
 Alpha  occ. eigenvalues --  -20.56214 -20.54969  -1.33515  -1.32277  -0.70920
 Alpha  occ. eigenvalues --   -0.69683  -0.57014  -0.55753  -0.50635  -0.49403
 Alpha virt. eigenvalues --    0.13192   0.15010   0.19525   0.21268   0.53462
 Alpha virt. eigenvalues --    0.54950   0.56652   0.57808   0.66755   0.68817
 Alpha virt. eigenvalues --    0.78253   0.79372   0.79451   0.80471   0.82680

 Mulliken charges:
               1
     1  O   -0.514832
     2  H    0.260224
     3  H    0.254416
     4  O   -0.515354
     5  H    0.257639
     6  H    0.257907
 Sum of Mulliken charges =  -0.00000

 Dipole moment (field-independent basis, Debye):
    X=              0.7953    Y=             -2.9953    Z=              0.0000  Tot=              3.0991
 Quadrupole moment (field-independent basis, Debye-Ang):
   XX=             -9.3619   YY=             -6.8823   ZZ=            -14.7153
   XY=              6.9507   XZ=              0.0000   YZ=              0.0000

 51029\MP4DQ=-152.6434859\MP4SDQ=-152.646532\CCSD=-152.6459475\CCSD(T)=
 Normal termination of Gaussian 16 at Sun Aug 28 01:51:22 2022.
