 Gaussian 16, Revision A.03,
 Gaussian 16:  ES64L-G16RevA.03 25-Dec-2016

 ------------------
 #p CCSD(T)/cc-pVTZ
 ------------------

 ------------
 H2O_H2O_2441
 ------------
 Symbolic Z-matrix:
 Charge =  0 Multiplicity = 1

                         Standard orientation:
 ---------------------------------------------------------------------
 Center     Atomic      Atomic             Coordinates (Angstroms)
 Number     Number       Type             X           Y           Z
 ---------------------------------------------------------------------
      1          8           0        0.041165    2.079747    0.000000
      2          1           0        0.038955    1.097149    0.000000
      3          1           0       -0.887609    2.400504    0.000000
      4          8           0        0.041165   -1.899846   -0.000000
      5          1           0        0.891016   -2.393059   -0.000000
      6          1           0       -0.701005   -2.543809   -0.000000
 ---------------------------------------------------------------------

 SCF Done:  E(RHF) =  -152.111141544     A.U. after   10 cycles
 E2 =    -0.5261126440D+00 EUMP2 =    -0.15263725418832D+03
 CCSD(T)
 CCSD(T)= -0.15266435527D+03

 The electronic state is 1-A'.
 Alpha  occ. eigenvalues --  -20.56985 -20.54072  -1.34245  -1.31408  -0.71638
 Alpha  occ. eigenvalues --   -0.68808  -0.57854  -0.54894  -0.51382  -0.48554
 Alpha virt. eigenvalues --    0.12342   0.16524   0.19296   0.24385   0.52624
 Alpha virt. eigenvalues --    0.55501   0.56395   0.58941   0.69050   0.70992
 Alpha virt. eigenvalues --    0.77281   0.78578   0.80293   0.81315   0.83682

 Mulliken charges:
               1
     1  O   -0.524497
     2  H    0.266876
     3  H    0.250969
     4  O   -0.511158
     5  H    0.260681
     6  H    0.257129
 Sum of Mulliken charges =  -0.00000

 Dipole moment (field-independent basis, Debye):
    X=             -1.3985    Y=             -3.3076    Z=             -0.0000  Tot=              3.5911
 Quadrupole moment (field-independent basis, Debye-Ang):
   XX=             -9.1499   YY=             -7.5663   ZZ=            -14.7240
   XY=             -4.5337   XZ=             -0.0000   YZ=              0.0000

 Normal termination of Gaussian 16 at Sun Aug 28 07:18:43 2022.
