 Gaussian 16, Revision A.03,
 Gaussian 16:  ES64L-G16RevA.03 25-Dec-2016

 ------------------
 #p CCSD(T)/cc-pVTZ
 ------------------

 ------------
 H2O_H2O_1742
 ------------
 Symbolic Z-matrix:
 Charge =  0 Multiplicity = 1

                         Standard orientation:
 ---------------------------------------------------------------------
 Center     Atomic      Atomic             Coordinates (Angstroms)
 Number     Number       Type             X           Y           Z
 ---------------------------------------------------------------------
      1          8           0        0.037508    1.799999   -0.000000
      2          1           0        0.034753    0.817401   -0.000000
      3          1           0       -0.891089    2.121269   -0.000000
      4          8           0        0.037508   -1.621086    0.000000
      5          1           0        0.917554   -2.058148    0.000000
      6          1           0       -0.661339   -2.311824    0.000000
 ---------------------------------------------------------------------

 SCF Done:  E(RHF) =  -152.113285042     A.U. after   10 cycles
 E2 =    -0.5266968284D+00 EUMP2 =    -0.15263998187004D+03
 CCSD(T)
 CCSD(T)= -0.15266701454D+03

 The electronic state is 1-A'.
 Alpha  occ. eigenvalues --  -20.57631 -20.53335  -1.34891  -1.30730  -0.72260
 Alpha  occ. eigenvalues --   -0.68235  -0.58667  -0.54146  -0.52030  -0.47886
 Alpha virt. eigenvalues --    0.12181   0.17368   0.19039   0.27638   0.51054
 Alpha virt. eigenvalues --    0.54518   0.56242   0.59334   0.69042   0.72432
 Alpha virt. eigenvalues --    0.75294   0.77129   0.81105   0.83254   0.84623

 Mulliken charges:
               1
     1  O   -0.536198
     2  H    0.272457
     3  H    0.249169
     4  O   -0.507904
     5  H    0.263625
     6  H    0.258852
 Sum of Mulliken charges =   0.00000

 Dipole moment (field-independent basis, Debye):
    X=             -1.2647    Y=             -3.4315    Z=              0.0000  Tot=              3.6572
 Quadrupole moment (field-independent basis, Debye-Ang):
   XX=             -9.1613   YY=             -8.0889   ZZ=            -14.7331
   XY=             -4.1082   XZ=              0.0000   YZ=             -0.0000

 Normal termination of Gaussian 16 at Sun Aug 28 01:09:27 2022.
