 Gaussian 16, Revision A.03,
 Gaussian 16:  ES64L-G16RevA.03 25-Dec-2016

 ------------------
 #p CCSD(T)/cc-pVTZ
 ------------------

 -----------
 H2O_H2O_435
 -----------
 Symbolic Z-matrix:
 Charge =  0 Multiplicity = 1

                         Standard orientation:
 ---------------------------------------------------------------------
 Center     Atomic      Atomic             Coordinates (Angstroms)
 Number     Number       Type             X           Y           Z
 ---------------------------------------------------------------------
      1          8           0        0.063325    1.279538   -0.000000
      2          1           0        0.061210    0.296939   -0.000000
      3          1           0       -0.865479    1.600205    0.000000
      4          8           0        0.063325   -1.104159   -0.000000
      5          1           0        0.659816   -1.884996   -0.000000
      6          1           0       -0.868754   -1.415177    0.000000
 ---------------------------------------------------------------------

 SCF Done:  E(RHF) =  -152.094577097     A.U. after   11 cycles
 E2 =    -0.5326210411D+00 EUMP2 =    -0.15262719813824D+03
 CCSD(T)
 CCSD(T)= -0.15265347084D+03

 The electronic state is 1-A'.
 Alpha  occ. eigenvalues --  -20.60467 -20.48549  -1.39256  -1.27159  -0.76212
 Alpha  occ. eigenvalues --   -0.71554  -0.58065  -0.55704  -0.49128  -0.44054
 Alpha virt. eigenvalues --    0.11081   0.17008   0.20271   0.33259   0.48015
 Alpha virt. eigenvalues --    0.53235   0.60942   0.63186   0.71818   0.72140
 Alpha virt. eigenvalues --    0.74762   0.79015   0.79950   0.83374   0.84048

 Mulliken charges:
               1
     1  O   -0.611697
     2  H    0.307642
     3  H    0.218377
     4  O   -0.407731
     5  H    0.247929
     6  H    0.245479
 Sum of Mulliken charges =  -0.00000

 Dipole moment (field-independent basis, Debye):
    X=             -2.0052    Y=             -4.2852    Z=              0.0000  Tot=              4.7312
 Quadrupole moment (field-independent basis, Debye-Ang):
   XX=             -9.4510   YY=             -9.4982   ZZ=            -14.6538
   XY=             -2.8901   XZ=              0.0000   YZ=              0.0000

 Normal termination of Gaussian 16 at Fri Aug 26 18:14:47 2022.
