 Gaussian 16, Revision A.03,
 Gaussian 16:  ES64L-G16RevA.03 25-Dec-2016

 ------------------
 #p CCSD(T)/cc-pVTZ
 ------------------

 ------------
 H2O_H2O_4634
 ------------
 Symbolic Z-matrix:
 Charge =  0 Multiplicity = 1

                         Standard orientation:
 ---------------------------------------------------------------------
 Center     Atomic      Atomic             Coordinates (Angstroms)
 Number     Number       Type             X           Y           Z
 ---------------------------------------------------------------------
      1          8           0        0.066742    2.953594   -0.000000
      2          1           0        0.065967    1.970993   -0.000000
      3          1           0       -0.862499    3.272993   -0.000000
      4          8           0        0.066742   -2.780461    0.000000
      5          1           0        0.612001   -3.597895    0.000000
      6          1           0       -0.883343   -3.031149    0.000000
 ---------------------------------------------------------------------

 SCF Done:  E(RHF) =  -152.108172955     A.U. after   10 cycles
 E2 =    -0.5258250748D+00 EUMP2 =    -0.15263399803012D+03
 CCSD(T)
 CCSD(T)= -0.15266120087D+03

 The electronic state is 1-A'.
 Alpha  occ. eigenvalues --  -20.56169 -20.55037  -1.33471  -1.32342  -0.70878
 Alpha  occ. eigenvalues --   -0.69741  -0.56953  -0.55807  -0.50587  -0.49462
 Alpha virt. eigenvalues --    0.13354   0.14822   0.19619   0.21002   0.53596
 Alpha virt. eigenvalues --    0.54836   0.56656   0.57757   0.66925   0.68628
 Alpha virt. eigenvalues --    0.78299   0.79399   0.79590   0.80488   0.82447

 Mulliken charges:
               1
     1  O   -0.512513
     2  H    0.259705
     3  H    0.252727
     4  O   -0.513392
     5  H    0.258312
     6  H    0.255161
 Sum of Mulliken charges =  -0.00000

 Dipole moment (field-independent basis, Debye):
    X=             -2.2895    Y=             -3.0358    Z=              0.0000  Tot=              3.8023
 Quadrupole moment (field-independent basis, Debye-Ang):
   XX=             -9.5599   YY=             -6.5689   ZZ=            -14.7140
   XY=             -4.4823   XZ=              0.0000   YZ=             -0.0000

 Normal termination of Gaussian 16 at Sun Aug 28 04:31:58 2022.
