 Gaussian 16, Revision A.03,
 Gaussian 16:  ES64L-G16RevA.03 25-Dec-2016

 ------------------
 #p CCSD(T)/cc-pVTZ
 ------------------

 ------------
 H2O_H2O_3847
 ------------
 Symbolic Z-matrix:
 Charge =  0 Multiplicity = 1

                         Standard orientation:
 ---------------------------------------------------------------------
 Center     Atomic      Atomic             Coordinates (Angstroms)
 Number     Number       Type             X           Y           Z
 ---------------------------------------------------------------------
      1          8           0       -0.019835    2.631232    0.000000
      2          1           0       -0.017401    1.648633    0.000000
      3          1           0        0.908865    2.952200    0.000000
      4          8           0       -0.019835   -2.464116    0.000000
      5          1           0       -0.993709   -2.594784    0.000000
      6          1           0        0.419608   -3.342976    0.000000
 ---------------------------------------------------------------------

 SCF Done:  E(RHF) =  -152.108874879     A.U. after   10 cycles
 E2 =    -0.5258169729D+00 EUMP2 =    -0.15263469185178D+03
 CCSD(T)
 CCSD(T)= -0.15266187374D+03

 The electronic state is 1-A'.
 Alpha  occ. eigenvalues --  -20.56323 -20.54880  -1.33621  -1.32191  -0.71026
 Alpha  occ. eigenvalues --   -0.69597  -0.57130  -0.55672  -0.50743  -0.49319
 Alpha virt. eigenvalues --    0.12823   0.15280   0.19370   0.21723   0.53281
 Alpha virt. eigenvalues --    0.55155   0.56595   0.57868   0.66709   0.69104
 Alpha virt. eigenvalues --    0.78152   0.78938   0.79528   0.80512   0.82833

 Mulliken charges:
               1
     1  O   -0.516082
     2  H    0.260949
     3  H    0.254561
     4  O   -0.516021
     5  H    0.257984
     6  H    0.258609
 Sum of Mulliken charges =  -0.00000

 Dipole moment (field-independent basis, Debye):
    X=              0.6807    Y=             -2.9541    Z=              0.0000  Tot=              3.0315
 Quadrupole moment (field-independent basis, Debye-Ang):
   XX=             -9.4468   YY=             -7.2875   ZZ=            -14.7163
   XY=              6.6964   XZ=              0.0000   YZ=              0.0000

 CCSD(T)=-152.6618737\RMSD=7.060e-09\PG=CS [SG(H4O2)]\\@
 Normal termination of Gaussian 16 at Sat Aug 27 00:03:45 2022.
