 Gaussian 16, Revision A.03,
 Gaussian 16:  ES64L-G16RevA.03 25-Dec-2016

 ------------------
 #p CCSD(T)/cc-pVTZ
 ------------------

 -----------
 H2O_H2O_758
 -----------
 Symbolic Z-matrix:
 Charge =  0 Multiplicity = 1

                         Standard orientation:
 ---------------------------------------------------------------------
 Center     Atomic      Atomic             Coordinates (Angstroms)
 Number     Number       Type             X           Y           Z
 ---------------------------------------------------------------------
      1          8           0        0.070251    1.406334   -0.000000
      2          1           0        0.068790    0.423734   -0.000000
      3          1           0       -0.858767    1.726383   -0.000000
      4          8           0        0.070251   -1.236177    0.000000
      5          1           0        0.560286   -2.087864    0.000000
      6          1           0       -0.894327   -1.423514   -0.000000
 ---------------------------------------------------------------------

 SCF Done:  E(RHF) =  -152.107998541     A.U. after   10 cycles
 E2 =    -0.5302544752D+00 EUMP2 =    -0.15263825301589D+03
 CCSD(T)
 CCSD(T)= -0.15266494680D+03

 The electronic state is 1-A'.
 Alpha  occ. eigenvalues --  -20.59402 -20.51015  -1.37263  -1.28916  -0.74695
 Alpha  occ. eigenvalues --   -0.68759  -0.59540  -0.54139  -0.51679  -0.45955
 Alpha virt. eigenvalues --    0.11459   0.17124   0.19843   0.32630   0.48101
 Alpha virt. eigenvalues --    0.54021   0.59491   0.61006   0.70173   0.72293
 Alpha virt. eigenvalues --    0.73798   0.77430   0.80855   0.83235   0.84161

 Mulliken charges:
               1
     1  O   -0.575274
     2  H    0.302552
     3  H    0.228578
     4  O   -0.449208
     5  H    0.247032
     6  H    0.246321
 Sum of Mulliken charges =  -0.00000

 Dipole moment (field-independent basis, Debye):
    X=             -2.2831    Y=             -3.7772    Z=             -0.0000  Tot=              4.4136
 Quadrupole moment (field-independent basis, Debye-Ang):
   XX=             -9.7044   YY=             -9.0415   ZZ=            -14.6964
   XY=             -2.9564   XZ=              0.0000   YZ=             -0.0000

 Normal termination of Gaussian 16 at Fri Aug 26 20:19:40 2022.
