 Gaussian 16, Revision A.03,
 Gaussian 16:  ES64L-G16RevA.03 25-Dec-2016

 ------------------
 #p CCSD(T)/cc-pVTZ
 ------------------

 ------------
 H2O_H2O_1681
 ------------
 Symbolic Z-matrix:
 Charge =  0 Multiplicity = 1

                         Standard orientation:
 ---------------------------------------------------------------------
 Center     Atomic      Atomic             Coordinates (Angstroms)
 Number     Number       Type             X           Y           Z
 ---------------------------------------------------------------------
      1          8           0        0.076775    1.771500   -0.000000
      2          1           0        0.075962    0.788899   -0.000000
      3          1           0       -0.852454    2.090935    0.000000
      4          8           0        0.076775   -1.608323   -0.000000
      5          1           0        0.452049   -2.516441   -0.000000
      6          1           0       -0.903963   -1.668804    0.000000
 ---------------------------------------------------------------------

 SCF Done:  E(RHF) =  -152.111568142     A.U. after   10 cycles
 E2 =    -0.5269815100D+00 EUMP2 =    -0.15263854965165D+03
 CCSD(T)
 CCSD(T)= -0.15266560468D+03

 The electronic state is 1-A'.
 Alpha  occ. eigenvalues --  -20.57684 -20.53777  -1.34974  -1.31149  -0.72435
 Alpha  occ. eigenvalues --   -0.68573  -0.58626  -0.54543  -0.52084  -0.48279
 Alpha virt. eigenvalues --    0.11822   0.16735   0.19590   0.27385   0.50315
 Alpha virt. eigenvalues --    0.55344   0.56794   0.58330   0.69294   0.73798
 Alpha virt. eigenvalues --    0.74980   0.77557   0.80836   0.82968   0.83861

 Mulliken charges:
               1
     1  O   -0.527316
     2  H    0.272027
     3  H    0.242909
     4  O   -0.498681
     5  H    0.258519
     6  H    0.252542
 Sum of Mulliken charges =  -0.00000

 Dipole moment (field-independent basis, Debye):
    X=             -2.5787    Y=             -3.1357    Z=             -0.0000  Tot=              4.0599
 Quadrupole moment (field-independent basis, Debye-Ang):
   XX=             -9.9797   YY=             -8.4015   ZZ=            -14.7252
   XY=             -3.0600   XZ=             -0.0000   YZ=             -0.0000

 Normal termination of Gaussian 16 at Sun Aug 28 00:32:15 2022.
