 Gaussian 16, Revision A.03,
 Gaussian 16:  ES64L-G16RevA.03 25-Dec-2016

 ------------------
 #p CCSD(T)/cc-pVTZ
 ------------------

 ------------
 H2O_H2O_3583
 ------------
 Symbolic Z-matrix:
 Charge =  0 Multiplicity = 1

                         Standard orientation:
 ---------------------------------------------------------------------
 Center     Atomic      Atomic             Coordinates (Angstroms)
 Number     Number       Type             X           Y           Z
 ---------------------------------------------------------------------
      1          8           0        0.070193    2.533210   -0.000000
      2          1           0        0.069404    1.550609   -0.000000
      3          1           0       -0.859044    2.852622    0.000000
      4          8           0        0.070193   -2.362956   -0.000000
      5          1           0        0.560811   -3.214308   -0.000000
      6          1           0       -0.894257   -2.550955    0.000000
 ---------------------------------------------------------------------

 SCF Done:  E(RHF) =  -152.108719924     A.U. after   10 cycles
 E2 =    -0.5258845481D+00 EUMP2 =    -0.15263460447193D+03
 CCSD(T)
 CCSD(T)= -0.15266178339D+03

 The electronic state is 1-A'.
 Alpha  occ. eigenvalues --  -20.56421 -20.54812  -1.33714  -1.32122  -0.71123
 Alpha  occ. eigenvalues --   -0.69514  -0.57214  -0.55593  -0.50834  -0.49246
 Alpha virt. eigenvalues --    0.12615   0.15392   0.19455   0.21753   0.53357
 Alpha virt. eigenvalues --    0.55067   0.56457   0.58027   0.66890   0.69233
 Alpha virt. eigenvalues --    0.78070   0.78782   0.79602   0.80232   0.82876

 Mulliken charges:
               1
     1  O   -0.514077
     2  H    0.261730
     3  H    0.251360
     4  O   -0.513877
     5  H    0.259826
     6  H    0.255039
 Sum of Mulliken charges =  -0.00000

 Dipole moment (field-independent basis, Debye):
    X=             -2.3994    Y=             -3.0242    Z=              0.0000  Tot=              3.8604
 Quadrupole moment (field-independent basis, Debye-Ang):
   XX=             -9.6820   YY=             -7.2727   ZZ=            -14.7158
   XY=             -3.9050   XZ=             -0.0000   YZ=              0.0000

 Normal termination of Gaussian 16 at Fri Aug 26 22:31:18 2022.
