 Gaussian 16, Revision A.03,
 Gaussian 16:  ES64L-G16RevA.03 25-Dec-2016

 ------------------
 #p CCSD(T)/cc-pVTZ
 ------------------

 -----------
 H2O_H2O_607
 -----------
 Symbolic Z-matrix:
 Charge =  0 Multiplicity = 1

                         Standard orientation:
 ---------------------------------------------------------------------
 Center     Atomic      Atomic             Coordinates (Angstroms)
 Number     Number       Type             X           Y           Z
 ---------------------------------------------------------------------
      1          8           0        0.073585    1.344708   -0.000000
      2          1           0        0.072279    0.362107   -0.000000
      3          1           0       -0.855484    1.664610   -0.000000
      4          8           0        0.073585   -1.177853    0.000000
      5          1           0        0.507006   -2.059699    0.000000
      6          1           0       -0.901161   -1.301858    0.000000
 ---------------------------------------------------------------------

 SCF Done:  E(RHF) =  -152.102520047     A.U. after   11 cycles
 E2 =    -0.5314711597D+00 EUMP2 =    -0.15263399120673D+03
 CCSD(T)
 CCSD(T)= -0.15266053721D+03

 The electronic state is 1-A'.
 Alpha  occ. eigenvalues --  -20.59824 -20.50340  -1.38058  -1.28455  -0.75674
 Alpha  occ. eigenvalues --   -0.69350  -0.59182  -0.54746  -0.50989  -0.45444
 Alpha virt. eigenvalues --    0.11287   0.16906   0.20161   0.32903   0.48248
 Alpha virt. eigenvalues --    0.53497   0.59494   0.62636   0.70972   0.72138
 Alpha virt. eigenvalues --    0.73925   0.78064   0.79851   0.83746   0.83992

 Mulliken charges:
               1
     1  O   -0.584396
     2  H    0.301992
     3  H    0.222841
     4  O   -0.423132
     5  H    0.240826
     6  H    0.241868
 Sum of Mulliken charges =  -0.00000

 Dipole moment (field-independent basis, Debye):
    X=             -2.3672    Y=             -3.8622    Z=              0.0000  Tot=              4.5300
 Quadrupole moment (field-independent basis, Debye-Ang):
   XX=             -9.8336   YY=             -9.2182   ZZ=            -14.6740
   XY=             -2.8221   XZ=              0.0000   YZ=              0.0000

 Normal termination of Gaussian 16 at Fri Aug 26 19:21:49 2022.
