 Gaussian 16, Revision A.03,
 Gaussian 16:  ES64L-G16RevA.03 25-Dec-2016

 ------------------
 #p CCSD(T)/cc-pVTZ
 ------------------

 ------------
 H2O_H2O_4740
 ------------
 Symbolic Z-matrix:
 Charge =  0 Multiplicity = 1

                         Standard orientation:
 ---------------------------------------------------------------------
 Center     Atomic      Atomic             Coordinates (Angstroms)
 Number     Number       Type             X           Y           Z
 ---------------------------------------------------------------------
      1          8           0        0.044822    2.997451    0.000000
      2          1           0        0.043417    2.014851    0.000000
      3          1           0       -0.884215    3.317445    0.000000
      4          8           0        0.044822   -2.817015    0.000000
      5          1           0        0.861044   -3.364086    0.000000
      6          1           0       -0.737390   -3.411700    0.000000
 ---------------------------------------------------------------------

 SCF Done:  E(RHF) =  -152.108330143     A.U. after   10 cycles
 E2 =    -0.5258057118D+00 EUMP2 =    -0.15263413585487D+03
 CCSD(T)
 CCSD(T)= -0.15266133605D+03

 The electronic state is 1-A'.
 Alpha  occ. eigenvalues --  -20.56145 -20.54990  -1.33446  -1.32296  -0.70851
 Alpha  occ. eigenvalues --   -0.69698  -0.56936  -0.55766  -0.50565  -0.49419
 Alpha virt. eigenvalues --    0.13470   0.14842   0.19729   0.20956   0.53701
 Alpha virt. eigenvalues --    0.54825   0.56697   0.57785   0.66961   0.68617
 Alpha virt. eigenvalues --    0.78320   0.79439   0.79729   0.80341   0.82464

 Mulliken charges:
               1
     1  O   -0.513564
     2  H    0.259971
     3  H    0.253526
     4  O   -0.514242
     5  H    0.257882
     6  H    0.256426
 Sum of Mulliken charges =  -0.00000

 Dipole moment (field-independent basis, Debye):
    X=             -1.5381    Y=             -3.1613    Z=              0.0000  Tot=              3.5156
 Quadrupole moment (field-independent basis, Debye-Ang):
   XX=             -9.1570   YY=             -6.0576   ZZ=            -14.7145
   XY=             -5.9470   XZ=             -0.0000   YZ=              0.0000

 Normal termination of Gaussian 16 at Sun Aug 28 05:30:29 2022.
