 Gaussian 16, Revision A.03,
 Gaussian 16:  ES64L-G16RevA.03 25-Dec-2016

 ------------------
 #p CCSD(T)/cc-pVTZ
 ------------------

 ------------
 H2O_H2O_1953
 ------------
 Symbolic Z-matrix:
 Charge =  0 Multiplicity = 1

                         Standard orientation:
 ---------------------------------------------------------------------
 Center     Atomic      Atomic             Coordinates (Angstroms)
 Number     Number       Type             X           Y           Z
 ---------------------------------------------------------------------
      1          8           0        0.085606   -1.873807    0.000000
      2          1           0        0.085260   -0.891205    0.000000
      3          1           0       -0.843774   -2.192801    0.000000
      4          8           0        0.085606    1.724222    0.000000
      5          1           0        0.276963    2.688012    0.000000
      6          1           0       -0.888149    1.592670    0.000000
 ---------------------------------------------------------------------

 SCF Done:  E(RHF) =  -152.110024991     A.U. after   10 cycles
 E2 =    -0.5266962477D+00 EUMP2 =    -0.15263672123837D+03
 CCSD(T)
 CCSD(T)= -0.15266382516D+03

 The electronic state is 1-A'.
 Alpha  occ. eigenvalues --  -20.57367 -20.54410  -1.34656  -1.31739  -0.72146
 Alpha  occ. eigenvalues --   -0.69088  -0.58207  -0.55166  -0.51760  -0.48860
 Alpha virt. eigenvalues --    0.11672   0.16326   0.19867   0.25831   0.51642
 Alpha virt. eigenvalues --    0.55617   0.56802   0.57703   0.68622   0.73684
 Alpha virt. eigenvalues --    0.75971   0.78597   0.80220   0.82993   0.83094

 Mulliken charges:
               1
     1  O   -0.519163
     2  H    0.267277
     3  H    0.244322
     4  O   -0.500177
     5  H    0.258362
     6  H    0.249379
 Sum of Mulliken charges =  -0.00000

 Dipole moment (field-independent basis, Debye):
    X=             -2.8859    Y=              2.8094    Z=              0.0000  Tot=              4.0275
 Quadrupole moment (field-independent basis, Debye-Ang):
   XX=            -10.4311   YY=             -8.6306   ZZ=            -14.7190
   XY=              2.6665   XZ=              0.0000   YZ=              0.0000

 Normal termination of Gaussian 16 at Sun Aug 28 03:07:40 2022.
