 Gaussian 16, Revision A.03,
 Gaussian 16:  ES64L-G16RevA.03 25-Dec-2016

 ------------------
 #p CCSD(T)/cc-pVTZ
 ------------------

 ------------
 H2O_H2O_3628
 ------------
 Symbolic Z-matrix:
 Charge =  0 Multiplicity = 1

                         Standard orientation:
 ---------------------------------------------------------------------
 Center     Atomic      Atomic             Coordinates (Angstroms)
 Number     Number       Type             X           Y           Z
 ---------------------------------------------------------------------
      1          8           0        0.085599   -2.541934    0.000000
      2          1           0        0.085346   -1.559333    0.000000
      3          1           0       -0.843812   -2.860840    0.000000
      4          8           0        0.085599    2.392334    0.000000
      5          1           0        0.277047    3.356104    0.000000
      6          1           0       -0.888170    2.260874    0.000000
 ---------------------------------------------------------------------

 SCF Done:  E(RHF) =  -152.108166098     A.U. after   10 cycles
 E2 =    -0.5259185809D+00 EUMP2 =    -0.15263408467853D+03
 CCSD(T)
 CCSD(T)= -0.15266127788D+03

 The electronic state is 1-A'.
 Alpha  occ. eigenvalues --  -20.56412 -20.55065  -1.33710  -1.32371  -0.71127
 Alpha  occ. eigenvalues --   -0.69761  -0.57186  -0.55830  -0.50823  -0.49487
 Alpha virt. eigenvalues --    0.12226   0.15262   0.19171   0.22118   0.53284
 Alpha virt. eigenvalues --    0.55024   0.56458   0.58000   0.66850   0.69015
 Alpha virt. eigenvalues --    0.78081   0.78744   0.79375   0.81086   0.82597

 Mulliken charges:
               1
     1  O   -0.511354
     2  H    0.259757
     3  H    0.250944
     4  O   -0.511722
     5  H    0.259605
     6  H    0.252771
 Sum of Mulliken charges =  -0.00000

 Dipole moment (field-independent basis, Debye):
    X=             -2.9260    Y=              2.6526    Z=              0.0000  Tot=              3.9494
 Quadrupole moment (field-independent basis, Debye-Ang):
   XX=            -10.4019   YY=             -8.3006   ZZ=            -14.7136
   XY=              2.8494   XZ=              0.0000   YZ=              0.0000

 Normal termination of Gaussian 16 at Fri Aug 26 22:46:07 2022.
