 Gaussian 16, Revision A.03,
 Gaussian 16:  ES64L-G16RevA.03 25-Dec-2016

 ------------------
 #p CCSD(T)/cc-pVTZ
 ------------------

 -----------
 H2O_H2O_276
 -----------
 Symbolic Z-matrix:
 Charge =  0 Multiplicity = 1

                         Standard orientation:
 ---------------------------------------------------------------------
 Center     Atomic      Atomic             Coordinates (Angstroms)
 Number     Number       Type             X           Y           Z
 ---------------------------------------------------------------------
      1          8           0        0.090691   -1.199771    0.000000
      2          1           0        0.090521   -0.217170    0.000000
      3          1           0       -0.838747   -1.518599    0.000000
      4          8           0        0.090691    1.061079    0.000000
      5          1           0        0.154786    2.041588    0.000000
      6          1           0       -0.857609    0.803721    0.000000
 ---------------------------------------------------------------------

 SCF Done:  E(RHF) =  -152.066015433     A.U. after   11 cycles
 E2 =    -0.5362425409D+00 EUMP2 =    -0.15260225797430D+03
 CCSD(T)
 CCSD(T)= -0.15262832759D+03

 The electronic state is 1-A'.
 Alpha  occ. eigenvalues --  -20.60802 -20.49376  -1.41213  -1.28039  -0.80815
 Alpha  occ. eigenvalues --   -0.69129  -0.58289  -0.56512  -0.50128  -0.44924
 Alpha virt. eigenvalues --    0.10974   0.16143   0.21430   0.32151   0.49124
 Alpha virt. eigenvalues --    0.51158   0.59491   0.66535   0.71375   0.72760
 Alpha virt. eigenvalues --    0.75989   0.76089   0.79317   0.82946   0.85055

 Mulliken charges:
               1
     1  O   -0.581377
     2  H    0.271725
     3  H    0.200590
     4  O   -0.350105
     5  H    0.226797
     6  H    0.232370
 Sum of Mulliken charges =  -0.00000

 Dipole moment (field-independent basis, Debye):
    X=             -2.8642    Y=              3.6907    Z=              0.0000  Tot=              4.6718
 Quadrupole moment (field-independent basis, Debye-Ang):
   XX=            -10.6960   YY=             -9.6978   ZZ=            -14.5764
   XY=              2.0909   XZ=              0.0000   YZ=              0.0000

 Normal termination of Gaussian 16 at Fri Aug 26 17:06:31 2022.
