 Gaussian 16, Revision A.03,
 Gaussian 16:  ES64L-G16RevA.03 25-Dec-2016

 ------------------
 #p CCSD(T)/cc-pVTZ
 ------------------

 ------------
 H2O_H2O_3969
 ------------
 Symbolic Z-matrix:
 Charge =  0 Multiplicity = 1

                         Standard orientation:
 ---------------------------------------------------------------------
 Center     Atomic      Atomic             Coordinates (Angstroms)
 Number     Number       Type             X           Y           Z
 ---------------------------------------------------------------------
      1          8           0        0.030162    2.685711    0.000000
      2          1           0        0.028111    1.703112    0.000000
      3          1           0       -0.898664    3.006317    0.000000
      4          8           0        0.030162   -2.510085   -0.000000
      5          1           0        0.959955   -2.827874   -0.000000
      6          1           0       -0.571991   -3.286564   -0.000000
 ---------------------------------------------------------------------

 SCF Done:  E(RHF) =  -152.108825038     A.U. after   10 cycles
 E2 =    -0.5258122310D+00 EUMP2 =    -0.15263463726948D+03
 CCSD(T)
 CCSD(T)= -0.15266182108D+03

 The electronic state is 1-A'.
 Alpha  occ. eigenvalues --  -20.56294 -20.54838  -1.33593  -1.32149  -0.70996
 Alpha  occ. eigenvalues --   -0.69552  -0.57101  -0.55628  -0.50714  -0.49276
 Alpha virt. eigenvalues --    0.13023   0.15222   0.19557   0.21431   0.53442
 Alpha virt. eigenvalues --    0.55011   0.56600   0.57844   0.66681   0.69087
 Alpha virt. eigenvalues --    0.78179   0.79148   0.79571   0.80105   0.82865

 Mulliken charges:
               1
     1  O   -0.515749
     2  H    0.261379
     3  H    0.253890
     4  O   -0.515968
     5  H    0.258473
     6  H    0.257976
 Sum of Mulliken charges =  -0.00000

 Dipole moment (field-independent basis, Debye):
    X=             -1.0335    Y=             -3.1006    Z=             -0.0000  Tot=              3.2683
 Quadrupole moment (field-independent basis, Debye-Ang):
   XX=             -9.2299   YY=             -6.7946   ZZ=            -14.7162
   XY=             -6.2113   XZ=             -0.0000   YZ=              0.0000

 Normal termination of Gaussian 16 at Sat Aug 27 00:44:59 2022.
