 Gaussian 16, Revision A.03,
 Gaussian 16:  ES64L-G16RevA.03 25-Dec-2016

 ------------------
 #p CCSD(T)/cc-pVTZ
 ------------------

 ------------
 H2O_H2O_3685
 ------------
 Symbolic Z-matrix:
 Charge =  0 Multiplicity = 1

                         Standard orientation:
 ---------------------------------------------------------------------
 Center     Atomic      Atomic             Coordinates (Angstroms)
 Number     Number       Type             X           Y           Z
 ---------------------------------------------------------------------
      1          8           0        0.063227    2.575959    0.000000
      2          1           0        0.062213    1.593358    0.000000
      3          1           0       -0.865937    2.895584   -0.000000
      4          8           0        0.063227   -2.400438    0.000000
      5          1           0        0.660593   -3.180605    0.000000
      6          1           0       -0.868504   -2.712502   -0.000000
 ---------------------------------------------------------------------

 SCF Done:  E(RHF) =  -152.108788159     A.U. after   10 cycles
 E2 =    -0.5258614921D+00 EUMP2 =    -0.15263464965155D+03
 CCSD(T)
 CCSD(T)= -0.15266182889D+03

 The electronic state is 1-A'.
 Alpha  occ. eigenvalues --  -20.56386 -20.54781  -1.33680  -1.32092  -0.71086
 Alpha  occ. eigenvalues --   -0.69486  -0.57184  -0.55565  -0.50801  -0.49217
 Alpha virt. eigenvalues --    0.12785   0.15355   0.19532   0.21595   0.53403
 Alpha virt. eigenvalues --    0.55019   0.56494   0.57954   0.66804   0.69232
 Alpha virt. eigenvalues --    0.78100   0.78939   0.79630   0.79963   0.82915

 Mulliken charges:
               1
     1  O   -0.514666
     2  H    0.261974
     3  H    0.251829
     4  O   -0.514630
     5  H    0.259707
     6  H    0.255787
 Sum of Mulliken charges =   0.00000

 Dipole moment (field-independent basis, Debye):
    X=             -2.1623    Y=             -3.1129    Z=             -0.0000  Tot=              3.7902
 Quadrupole moment (field-independent basis, Debye-Ang):
   XX=             -9.4554   YY=             -6.9709   ZZ=            -14.7161
   XY=             -4.3310   XZ=              0.0000   YZ=             -0.0000

 Normal termination of Gaussian 16 at Fri Aug 26 23:06:18 2022.
