 Gaussian 16, Revision A.03,
 Gaussian 16:  ES64L-G16RevA.03 25-Dec-2016

 ------------------
 #p CCSD(T)/cc-pVTZ
 ------------------

 -----------
 H2O_H2O_867
 -----------
 Symbolic Z-matrix:
 Charge =  0 Multiplicity = 1

                         Standard orientation:
 ---------------------------------------------------------------------
 Center     Atomic      Atomic             Coordinates (Angstroms)
 Number     Number       Type             X           Y           Z
 ---------------------------------------------------------------------
      1          8           0        0.037572    1.450956   -0.000000
      2          1           0        0.034112    0.468361   -0.000000
      3          1           0       -0.890793    1.772894   -0.000000
      4          8           0        0.037572   -1.272097    0.000000
      5          1           0        0.917305   -1.709791    0.000000
      6          1           0       -0.661771   -1.962333    0.000000
 ---------------------------------------------------------------------

 SCF Done:  E(RHF) =  -152.111964917     A.U. after   10 cycles
 E2 =    -0.5292417206D+00 EUMP2 =    -0.15264120663753D+03
 CCSD(T)
 CCSD(T)= -0.15266795734D+03

 The electronic state is 1-A'.
 Alpha  occ. eigenvalues --  -20.59145 -20.50943  -1.36806  -1.28791  -0.73949
 Alpha  occ. eigenvalues --   -0.68470  -0.59737  -0.53800  -0.51604  -0.45878
 Alpha virt. eigenvalues --    0.11756   0.18273   0.18923   0.32696   0.48156
 Alpha virt. eigenvalues --    0.54488   0.57352   0.62806   0.68729   0.72106
 Alpha virt. eigenvalues --    0.72530   0.77743   0.81951   0.82990   0.84565

 Mulliken charges:
               1
     1  O   -0.581916
     2  H    0.303355
     3  H    0.240078
     4  O   -0.481435
     5  H    0.265352
     6  H    0.254566
 Sum of Mulliken charges =  -0.00000

 Dipole moment (field-independent basis, Debye):
    X=             -1.2340    Y=             -3.8820    Z=              0.0000  Tot=              4.0734
 Quadrupole moment (field-independent basis, Debye-Ang):
   XX=             -9.1469   YY=             -8.9313   ZZ=            -14.7172
   XY=             -3.4053   XZ=              0.0000   YZ=             -0.0000

 Normal termination of Gaussian 16 at Fri Aug 26 21:00:02 2022.
