 Gaussian 16, Revision A.03,
 Gaussian 16:  ES64L-G16RevA.03 25-Dec-2016

 ------------------
 #p CCSD(T)/cc-pVTZ
 ------------------

 -----------
 H2O_H2O_661
 -----------
 Symbolic Z-matrix:
 Charge =  0 Multiplicity = 1

                         Standard orientation:
 ---------------------------------------------------------------------
 Center     Atomic      Atomic             Coordinates (Angstroms)
 Number     Number       Type             X           Y           Z
 ---------------------------------------------------------------------
      1          8           0        0.059727    1.370345   -0.000000
      2          1           0        0.057521    0.387746   -0.000000
      3          1           0       -0.869048    1.691097   -0.000000
      4          8           0        0.059727   -1.193016    0.000000
      5          1           0        0.705942   -1.933227    0.000000
      6          1           0       -0.850049   -1.564246    0.000000
 ---------------------------------------------------------------------

 SCF Done:  E(RHF) =  -152.106571587     A.U. after   11 cycles
 E2 =    -0.5306833057D+00 EUMP2 =    -0.15263725489286D+03
 CCSD(T)
 CCSD(T)= -0.15266383004D+03

 The electronic state is 1-A'.
 Alpha  occ. eigenvalues --  -20.59717 -20.50059  -1.37743  -1.28173  -0.74778
 Alpha  occ. eigenvalues --   -0.69635  -0.59196  -0.54567  -0.50693  -0.45183
 Alpha virt. eigenvalues --    0.11410   0.17425   0.19728   0.33126   0.47882
 Alpha virt. eigenvalues --    0.53944   0.60756   0.60928   0.70701   0.72328
 Alpha virt. eigenvalues --    0.72888   0.77988   0.81193   0.83161   0.84308

 Mulliken charges:
               1
     1  O   -0.592260
     2  H    0.310532
     3  H    0.228118
     4  O   -0.452818
     5  H    0.256085
     6  H    0.250343
 Sum of Mulliken charges =  -0.00000

 Dipole moment (field-independent basis, Debye):
    X=             -1.9287    Y=             -4.0400    Z=              0.0000  Tot=              4.4768
 Quadrupole moment (field-independent basis, Debye-Ang):
   XX=             -9.3655   YY=             -9.1799   ZZ=            -14.6930
   XY=             -3.0618   XZ=              0.0000   YZ=              0.0000

 Normal termination of Gaussian 16 at Fri Aug 26 19:41:45 2022.
