 Gaussian 16, Revision A.03,
 Gaussian 16:  ES64L-G16RevA.03 25-Dec-2016

 ------------------
 #p CCSD(T)/cc-pVTZ
 ------------------

 ------------
 H2O_H2O_4817
 ------------
 Symbolic Z-matrix:
 Charge =  0 Multiplicity = 1

                         Standard orientation:
 ---------------------------------------------------------------------
 Center     Atomic      Atomic             Coordinates (Angstroms)
 Number     Number       Type             X           Y           Z
 ---------------------------------------------------------------------
      1          8           0        0.037403    3.026588   -0.000000
      2          1           0        0.035799    2.043988   -0.000000
      3          1           0       -0.891569    3.346771   -0.000000
      4          8           0        0.037403   -2.847588    0.000000
      5          1           0        0.917961   -3.283619    0.000000
      6          1           0       -0.660635   -3.539143    0.000000
 ---------------------------------------------------------------------

 SCF Done:  E(RHF) =  -152.108326592     A.U. after   10 cycles
 E2 =    -0.5258023738D+00 EUMP2 =    -0.15263412896586D+03
 CCSD(T)
 CCSD(T)= -0.15266132965D+03

 The electronic state is 1-A'.
 Alpha  occ. eigenvalues --  -20.56131 -20.55011  -1.33433  -1.32318  -0.70838
 Alpha  occ. eigenvalues --   -0.69721  -0.56923  -0.55788  -0.50552  -0.49441
 Alpha virt. eigenvalues --    0.13496   0.14815   0.19728   0.20939   0.53702
 Alpha virt. eigenvalues --    0.54817   0.56710   0.57777   0.67001   0.68566
 Alpha virt. eigenvalues --    0.78332   0.79418   0.79725   0.80445   0.82346

 Mulliken charges:
               1
     1  O   -0.513641
     2  H    0.259740
     3  H    0.253849
     4  O   -0.514249
     5  H    0.257598
     6  H    0.256703
 Sum of Mulliken charges =  -0.00000

 Dipole moment (field-independent basis, Debye):
    X=             -1.2840    Y=             -3.1342    Z=              0.0000  Tot=              3.3870
 Quadrupole moment (field-independent basis, Debye-Ang):
   XX=             -9.1598   YY=             -6.0929   ZZ=            -14.7145
   XY=             -6.4695   XZ=              0.0000   YZ=             -0.0000

 Normal termination of Gaussian 16 at Sun Aug 28 06:07:41 2022.
