 Gaussian 16, Revision A.03,
 Gaussian 16:  ES64L-G16RevA.03 25-Dec-2016

 ------------------
 #p CCSD(T)/cc-pVTZ
 ------------------

 ------------
 H2O_H2O_3313
 ------------
 Symbolic Z-matrix:
 Charge =  0 Multiplicity = 1

                         Standard orientation:
 ---------------------------------------------------------------------
 Center     Atomic      Atomic             Coordinates (Angstroms)
 Number     Number       Type             X           Y           Z
 ---------------------------------------------------------------------
      1          8           0        0.052294    2.428758    0.000000
      2          1           0        0.050819    1.446158    0.000000
      3          1           0       -0.876719    2.748820    0.000000
      4          8           0        0.052294   -2.248862   -0.000000
      5          1           0        0.790080   -2.897845   -0.000000
      6          1           0       -0.800882   -2.736300   -0.000000
 ---------------------------------------------------------------------

 SCF Done:  E(RHF) =  -152.109370985     A.U. after   10 cycles
 E2 =    -0.5258892127D+00 EUMP2 =    -0.15263526019772D+03
 CCSD(T)
 CCSD(T)= -0.15266241962D+03

 The electronic state is 1-A'.
 Alpha  occ. eigenvalues --  -20.56515 -20.54585  -1.33800  -1.31901  -0.71203
 Alpha  occ. eigenvalues --   -0.69295  -0.57326  -0.55384  -0.50926  -0.49032
 Alpha virt. eigenvalues --    0.12644   0.15670   0.19523   0.22065   0.53347
 Alpha virt. eigenvalues --    0.55194   0.56423   0.58211   0.67378   0.69356
 Alpha virt. eigenvalues --    0.77980   0.79027   0.79429   0.79802   0.83106

 Mulliken charges:
               1
     1  O   -0.517079
     2  H    0.263409
     3  H    0.251850
     4  O   -0.514912
     5  H    0.259968
     6  H    0.256764
 Sum of Mulliken charges =  -0.00000

 Dipole moment (field-independent basis, Debye):
    X=             -1.7857    Y=             -3.2148    Z=             -0.0000  Tot=              3.6774
 Quadrupole moment (field-independent basis, Debye-Ang):
   XX=             -9.2260   YY=             -7.0029   ZZ=            -14.7182
   XY=             -4.6789   XZ=             -0.0000   YZ=              0.0000

 Normal termination of Gaussian 16 at Fri Aug 26 20:59:12 2022.
