 Gaussian 16, Revision A.03,
 Gaussian 16:  ES64L-G16RevA.03 25-Dec-2016

 ------------------
 #p CCSD(T)/cc-pVTZ
 ------------------

 ------------
 H2O_H2O_1959
 ------------
 Symbolic Z-matrix:
 Charge =  0 Multiplicity = 1

                         Standard orientation:
 ---------------------------------------------------------------------
 Center     Atomic      Atomic             Coordinates (Angstroms)
 Number     Number       Type             X           Y           Z
 ---------------------------------------------------------------------
      1          8           0        0.066783    1.886566   -0.000000
      2          1           0        0.065548    0.903965   -0.000000
      3          1           0       -0.862309    2.206401   -0.000000
      4          8           0        0.066783   -1.713496    0.000000
      5          1           0        0.611659   -2.531185    0.000000
      6          1           0       -0.883420   -1.963740    0.000000
 ---------------------------------------------------------------------

 SCF Done:  E(RHF) =  -152.111718169     A.U. after   10 cycles
 E2 =    -0.5265403365D+00 EUMP2 =    -0.15263825850599D+03
 CCSD(T)
 CCSD(T)= -0.15266532913D+03

 The electronic state is 1-A'.
 Alpha  occ. eigenvalues --  -20.57397 -20.53829  -1.34658  -1.31183  -0.72064
 Alpha  occ. eigenvalues --   -0.68594  -0.58313  -0.54625  -0.51787  -0.48324
 Alpha virt. eigenvalues --    0.12034   0.16779   0.19334   0.26213   0.51349
 Alpha virt. eigenvalues --    0.55478   0.56178   0.58633   0.69025   0.72569
 Alpha virt. eigenvalues --    0.76091   0.77942   0.80642   0.83344   0.83920

 Mulliken charges:
               1
     1  O   -0.525948
     2  H    0.269106
     3  H    0.246074
     4  O   -0.505403
     5  H    0.261326
     6  H    0.254845
 Sum of Mulliken charges =  -0.00000

 Dipole moment (field-independent basis, Debye):
    X=             -2.2549    Y=             -3.2619    Z=              0.0000  Tot=              3.9654
 Quadrupole moment (field-independent basis, Debye-Ang):
   XX=             -9.5769   YY=             -8.0442   ZZ=            -14.7265
   XY=             -3.5064   XZ=              0.0000   YZ=             -0.0000

 Normal termination of Gaussian 16 at Sun Aug 28 03:10:29 2022.
