 Gaussian 16, Revision A.03,
 Gaussian 16:  ES64L-G16RevA.03 25-Dec-2016

 ------------------
 #p CCSD(T)/cc-pVTZ
 ------------------

 ----------
 H2O_H2O_46
 ----------
 Symbolic Z-matrix:
 Charge =  0 Multiplicity = 1

                         Standard orientation:
 ---------------------------------------------------------------------
 Center     Atomic      Atomic             Coordinates (Angstroms)
 Number     Number       Type             X           Y           Z
 ---------------------------------------------------------------------
      1          8           0       -0.023480    1.117210    0.000000
      2          1           0       -0.017745    0.134626    0.000000
      3          1           0        0.904138    1.441296    0.000000
      4          8           0       -0.023480   -0.946972    0.000000
      5          1           0       -0.986066   -1.144290    0.000000
      6          1           0        0.475349   -1.793540    0.000000
 ---------------------------------------------------------------------

 SCF Done:  E(RHF) =  -152.031867088     A.U. after   11 cycles
 E2 =    -0.5363380860D+00 EUMP2 =    -0.15256820517383D+03
 CCSD(T)
 CCSD(T)= -0.15259366971D+03

 The electronic state is 1-A'.
 Alpha  occ. eigenvalues --  -20.61993 -20.44016  -1.44332  -1.24402  -0.82029
 Alpha  occ. eigenvalues --   -0.75119  -0.58772  -0.55107  -0.44034  -0.40920
 Alpha virt. eigenvalues --    0.10481   0.16762   0.21025   0.33335   0.47135
 Alpha virt. eigenvalues --    0.51648   0.60686   0.68871   0.70431   0.70997
 Alpha virt. eigenvalues --    0.76382   0.77495   0.81169   0.84684   0.88373

 Mulliken charges:
               1
     1  O   -0.687051
     2  H    0.272984
     3  H    0.216134
     4  O   -0.298640
     5  H    0.265914
     6  H    0.230660
 Sum of Mulliken charges =  -0.00000

 Dipole moment (field-independent basis, Debye):
    X=              0.7015    Y=             -4.9201    Z=              0.0000  Tot=              4.9699
 Quadrupole moment (field-independent basis, Debye-Ang):
   XX=             -9.2387   YY=            -10.1991   ZZ=            -14.5383
   XY=              2.7233   XZ=              0.0000   YZ=              0.0000

 Normal termination of Gaussian 16 at Fri Aug 26 15:30:03 2022.
