 Gaussian 16, Revision A.03,
 Gaussian 16:  ES64L-G16RevA.03 25-Dec-2016

 ------------------
 #p CCSD(T)/cc-pVTZ
 ------------------

 ------------
 H2O_H2O_4265
 ------------
 Symbolic Z-matrix:
 Charge =  0 Multiplicity = 1

                         Standard orientation:
 ---------------------------------------------------------------------
 Center     Atomic      Atomic             Coordinates (Angstroms)
 Number     Number       Type             X           Y           Z
 ---------------------------------------------------------------------
      1          8           0        0.044830    2.807980    0.000000
      2          1           0        0.043328    1.825380    0.000000
      3          1           0       -0.884174    3.128067    0.000000
      4          8           0        0.044830   -2.627553    0.000000
      5          1           0        0.860998   -3.174705    0.000000
      6          1           0       -0.737440   -3.222161    0.000000
 ---------------------------------------------------------------------

 SCF Done:  E(RHF) =  -152.108574719     A.U. after   10 cycles
 E2 =    -0.5258100233D+00 EUMP2 =    -0.15263438474227D+03
 CCSD(T)
 CCSD(T)= -0.15266157671D+03

 The electronic state is 1-A'.
 Alpha  occ. eigenvalues --  -20.56230 -20.54883  -1.33530  -1.32192  -0.70934
 Alpha  occ. eigenvalues --   -0.69593  -0.57030  -0.55666  -0.50650  -0.49317
 Alpha virt. eigenvalues --    0.13247   0.15054   0.19676   0.21158   0.53617
 Alpha virt. eigenvalues --    0.54877   0.56632   0.57812   0.66725   0.68923
 Alpha virt. eigenvalues --    0.78239   0.79535   0.79632   0.79849   0.82798

 Mulliken charges:
               1
     1  O   -0.514544
     2  H    0.261035
     3  H    0.253262
     4  O   -0.515200
     5  H    0.258578
     6  H    0.256869
 Sum of Mulliken charges =  -0.00000

 Dipole moment (field-independent basis, Debye):
    X=             -1.5365    Y=             -3.1747    Z=              0.0000  Tot=              3.5270
 Quadrupole moment (field-independent basis, Debye-Ang):
   XX=             -9.1568   YY=             -6.3683   ZZ=            -14.7154
   XY=             -5.6317   XZ=             -0.0000   YZ=             -0.0000

 Normal termination of Gaussian 16 at Sun Aug 28 01:21:04 2022.
