 Gaussian 16, Revision A.03,
 Gaussian 16:  ES64L-G16RevA.03 25-Dec-2016

 ------------------
 #p CCSD(T)/cc-pVTZ
 ------------------

 ------------
 H2O_H2O_2958
 ------------
 Symbolic Z-matrix:
 Charge =  0 Multiplicity = 1

                         Standard orientation:
 ---------------------------------------------------------------------
 Center     Atomic      Atomic             Coordinates (Angstroms)
 Number     Number       Type             X           Y           Z
 ---------------------------------------------------------------------
      1          8           0        0.070201    2.283905   -0.000000
      2          1           0        0.069322    1.301304   -0.000000
      3          1           0       -0.859007    2.603402   -0.000000
      4          8           0        0.070201   -2.113664    0.000000
      5          1           0        0.560741   -2.965061    0.000000
      6          1           0       -0.894266   -2.301574    0.000000
 ---------------------------------------------------------------------

 SCF Done:  E(RHF) =  -152.109421731     A.U. after   10 cycles
 E2 =    -0.5259973578D+00 EUMP2 =    -0.15263541908863D+03
 CCSD(T)
 CCSD(T)= -0.15266256843D+03

 The electronic state is 1-A'.
 Alpha  occ. eigenvalues --  -20.56676 -20.54579  -1.33958  -1.31895  -0.71368
 Alpha  occ. eigenvalues --   -0.69280  -0.57480  -0.55370  -0.51081  -0.49023
 Alpha virt. eigenvalues --    0.12261   0.15862   0.19436   0.22745   0.53540
 Alpha virt. eigenvalues --    0.55292   0.56285   0.58557   0.68253   0.69329
 Alpha virt. eigenvalues --    0.77806   0.78920   0.79818   0.80039   0.83083

 Mulliken charges:
               1
     1  O   -0.516503
     2  H    0.263701
     3  H    0.249948
     4  O   -0.511941
     5  H    0.260049
     6  H    0.254747
 Sum of Mulliken charges =  -0.00000

 Dipole moment (field-independent basis, Debye):
    X=             -2.3918    Y=             -3.0681    Z=              0.0000  Tot=              3.8902
 Quadrupole moment (field-independent basis, Debye-Ang):
   XX=             -9.6860   YY=             -7.5823   ZZ=            -14.7181
   XY=             -3.7069   XZ=              0.0000   YZ=              0.0000

 Normal termination of Gaussian 16 at Fri Aug 26 18:44:56 2022.
