 Gaussian 16, Revision A.03,
 Gaussian 16:  ES64L-G16RevA.03 25-Dec-2016

 ------------------
 #p CCSD(T)/cc-pVTZ
 ------------------

 ------------
 H2O_H2O_3360
 ------------
 Symbolic Z-matrix:
 Charge =  0 Multiplicity = 1

                         Standard orientation:
 ---------------------------------------------------------------------
 Center     Atomic      Atomic             Coordinates (Angstroms)
 Number     Number       Type             X           Y           Z
 ---------------------------------------------------------------------
      1          8           0        0.063232    2.446320   -0.000000
      2          1           0        0.062163    1.463719   -0.000000
      3          1           0       -0.865914    2.765998   -0.000000
      4          8           0        0.063232   -2.270806    0.000000
      5          1           0        0.660553   -3.051008    0.000000
      6          1           0       -0.868517   -2.582817    0.000000
 ---------------------------------------------------------------------

 SCF Done:  E(RHF) =  -152.109110759     A.U. after   10 cycles
 E2 =    -0.5259001534D+00 EUMP2 =    -0.15263501091278D+03
 CCSD(T)
 CCSD(T)= -0.15266217671D+03

 The electronic state is 1-A'.
 Alpha  occ. eigenvalues --  -20.56499 -20.54668  -1.33787  -1.31982  -0.71193
 Alpha  occ. eigenvalues --   -0.69373  -0.57301  -0.55459  -0.50910  -0.49109
 Alpha virt. eigenvalues --    0.12576   0.15590   0.19494   0.21993   0.53393
 Alpha virt. eigenvalues --    0.55140   0.56411   0.58184   0.67242   0.69330
 Alpha virt. eigenvalues --    0.77996   0.78836   0.79731   0.79827   0.83018

 Mulliken charges:
               1
     1  O   -0.515703
     2  H    0.262825
     3  H    0.251287
     4  O   -0.514184
     5  H    0.260014
     6  H    0.255762
 Sum of Mulliken charges =   0.00000

 Dipole moment (field-independent basis, Debye):
    X=             -2.1594    Y=             -3.1324    Z=              0.0000  Tot=              3.8046
 Quadrupole moment (field-independent basis, Debye-Ang):
   XX=             -9.4565   YY=             -7.1562   ZZ=            -14.7173
   XY=             -4.1970   XZ=              0.0000   YZ=             -0.0000

 Normal termination of Gaussian 16 at Fri Aug 26 21:16:15 2022.
