 Gaussian 16, Revision A.03,
 Gaussian 16:  ES64L-G16RevA.03 25-Dec-2016

 ------------------
 #p CCSD(T)/cc-pVTZ
 ------------------

 ------------
 H2O_H2O_4799
 ------------
 Symbolic Z-matrix:
 Charge =  0 Multiplicity = 1

                         Standard orientation:
 ---------------------------------------------------------------------
 Center     Atomic      Atomic             Coordinates (Angstroms)
 Number     Number       Type             X           Y           Z
 ---------------------------------------------------------------------
      1          8           0       -0.013465    3.005908    0.000000
      2          1           0       -0.011161    2.023310    0.000000
      3          1           0        0.915279    3.326753    0.000000
      4          8           0       -0.013465   -2.846628    0.000000
      5          1           0       -0.996063   -2.848931    0.000000
      6          1           0        0.307380   -3.775372    0.000000
 ---------------------------------------------------------------------

 SCF Done:  E(RHF) =  -152.108283449     A.U. after   10 cycles
 E2 =    -0.5258007314D+00 EUMP2 =    -0.15263408418070D+03
 CCSD(T)
 CCSD(T)= -0.15266128654D+03

 The electronic state is 1-A'.
 Alpha  occ. eigenvalues --  -20.56132 -20.55142  -1.33435  -1.32448  -0.70842
 Alpha  occ. eigenvalues --   -0.69855  -0.56921  -0.55918  -0.50553  -0.49570
 Alpha virt. eigenvalues --    0.13363   0.14757   0.19452   0.21127   0.53539
 Alpha virt. eigenvalues --    0.54812   0.56701   0.57714   0.67002   0.68458
 Alpha virt. eigenvalues --    0.78330   0.79291   0.79693   0.80785   0.81970

 Mulliken charges:
               1
     1  O   -0.513664
     2  H    0.258639
     3  H    0.254982
     4  O   -0.514109
     5  H    0.256533
     6  H    0.257619
 Sum of Mulliken charges =  -0.00000

 Dipole moment (field-independent basis, Debye):
    X=              0.4637    Y=             -2.7877    Z=              0.0000  Tot=              2.8260
 Quadrupole moment (field-independent basis, Debye-Ang):
   XX=             -9.6489   YY=             -7.3638   ZZ=            -14.7143
   XY=              8.1488   XZ=              0.0000   YZ=              0.0000

 Normal termination of Gaussian 16 at Sun Aug 28 05:57:57 2022.
