 Gaussian 16, Revision A.03,
 Gaussian 16:  ES64L-G16RevA.03 25-Dec-2016

 ------------------
 #p CCSD(T)/cc-pVTZ
 ------------------

 ------------
 H2O_H2O_1377
 ------------
 Symbolic Z-matrix:
 Charge =  0 Multiplicity = 1

                         Standard orientation:
 ---------------------------------------------------------------------
 Center     Atomic      Atomic             Coordinates (Angstroms)
 Number     Number       Type             X           Y           Z
 ---------------------------------------------------------------------
      1          8           0        0.088237   -1.641585    0.000000
      2          1           0        0.087982   -0.658984    0.000000
      3          1           0       -0.841173   -1.960493    0.000000
      4          8           0        0.088237    1.497279    0.000000
      5          1           0        0.216239    2.471508    0.000000
      6          1           0       -0.874848    1.302412    0.000000
 ---------------------------------------------------------------------

 SCF Done:  E(RHF) =  -152.109842200     A.U. after   10 cycles
 E2 =    -0.5278774706D+00 EUMP2 =    -0.15263771967022D+03
 CCSD(T)
 CCSD(T)= -0.15266477045D+03

 The electronic state is 1-A'.
 Alpha  occ. eigenvalues --  -20.58052 -20.53939  -1.35440  -1.31336  -0.73168
 Alpha  occ. eigenvalues --   -0.68652  -0.58965  -0.54662  -0.52488  -0.48436
 Alpha virt. eigenvalues --    0.11560   0.16475   0.20231   0.28650   0.49425
 Alpha virt. eigenvalues --    0.54449   0.57881   0.58413   0.68363   0.73396
 Alpha virt. eigenvalues --    0.74595   0.77606   0.80941   0.81849   0.83488

 Mulliken charges:
               1
     1  O   -0.527337
     2  H    0.276196
     3  H    0.238211
     4  O   -0.477003
     5  H    0.246394
     6  H    0.243539
 Sum of Mulliken charges =   0.00000

 Dipole moment (field-independent basis, Debye):
    X=             -2.9391    Y=              2.8569    Z=              0.0000  Tot=              4.0989
 Quadrupole moment (field-independent basis, Debye-Ang):
   XX=            -10.6018   YY=             -8.8979   ZZ=            -14.7128
   XY=              2.4397   XZ=              0.0000   YZ=              0.0000

 CCSD(T)=-152.6647705\RMSD=7.371e-09\PG=CS [SG(H4O2)]\\@
 Normal termination of Gaussian 16 at Sat Aug 27 00:12:52 2022.
