 Gaussian 16, Revision A.03,
 Gaussian 16:  ES64L-G16RevA.03 25-Dec-2016

 ------------------
 #p CCSD(T)/cc-pVTZ
 ------------------

 ------------
 H2O_H2O_2116
 ------------
 Symbolic Z-matrix:
 Charge =  0 Multiplicity = 1

                         Standard orientation:
 ---------------------------------------------------------------------
 Center     Atomic      Atomic             Coordinates (Angstroms)
 Number     Number       Type             X           Y           Z
 ---------------------------------------------------------------------
      1          8           0        0.041179    1.950106    0.000000
      2          1           0        0.038815    0.967508    0.000000
      3          1           0       -0.887544    2.271008    0.000000
      4          8           0        0.041179   -1.770217   -0.000000
      5          1           0        0.890954   -2.263564   -0.000000
      6          1           0       -0.701092   -2.414064   -0.000000
 ---------------------------------------------------------------------

 SCF Done:  E(RHF) =  -152.112065027     A.U. after   10 cycles
 E2 =    -0.5263097301D+00 EUMP2 =    -0.15263837475727D+03
 CCSD(T)
 CCSD(T)= -0.15266544788D+03

 The electronic state is 1-A'.
 Alpha  occ. eigenvalues --  -20.57248 -20.53783  -1.34500  -1.31136  -0.71885
 Alpha  occ. eigenvalues --   -0.68556  -0.58173  -0.54606  -0.51641  -0.48288
 Alpha virt. eigenvalues --    0.12265   0.16894   0.19189   0.25736   0.51994
 Alpha virt. eigenvalues --    0.55118   0.56450   0.58933   0.69074   0.72175
 Alpha virt. eigenvalues --    0.76581   0.77844   0.80608   0.83510   0.83987

 Mulliken charges:
               1
     1  O   -0.528616
     2  H    0.268626
     3  H    0.250020
     4  O   -0.509084
     5  H    0.261594
     6  H    0.257460
 Sum of Mulliken charges =  -0.00000

 Dipole moment (field-independent basis, Debye):
    X=             -1.3947    Y=             -3.3626    Z=             -0.0000  Tot=              3.6403
 Quadrupole moment (field-independent basis, Debye-Ang):
   XX=             -9.1511   YY=             -7.7925   ZZ=            -14.7277
   XY=             -4.2996   XZ=             -0.0000   YZ=              0.0000

 Normal termination of Gaussian 16 at Sun Aug 28 04:30:32 2022.
