 Gaussian 16, Revision A.03,
 Gaussian 16:  ES64L-G16RevA.03 25-Dec-2016

 ------------------
 #p CCSD(T)/cc-pVTZ
 ------------------

 ------------
 H2O_H2O_4978
 ------------
 Symbolic Z-matrix:
 Charge =  0 Multiplicity = 1

                         Standard orientation:
 ---------------------------------------------------------------------
 Center     Atomic      Atomic             Coordinates (Angstroms)
 Number     Number       Type             X           Y           Z
 ---------------------------------------------------------------------
      1          8           0        0.085596   -3.080423    0.000000
      2          1           0        0.085388   -2.097821    0.000000
      3          1           0       -0.843830   -3.399285    0.000000
      4          8           0        0.085596    2.930814    0.000000
      5          1           0        0.277089    3.894576    0.000000
      6          1           0       -0.888178    2.799399    0.000000
 ---------------------------------------------------------------------

 SCF Done:  E(RHF) =  -152.107760877     A.U. after   10 cycles
 E2 =    -0.5258502110D+00 EUMP2 =    -0.15263361108748D+03
 CCSD(T)
 CCSD(T)= -0.15266082396D+03

 The electronic state is 1-A'.
 Alpha  occ. eigenvalues --  -20.56129 -20.55270  -1.33430  -1.32573  -0.70841
 Alpha  occ. eigenvalues --   -0.69972  -0.56894  -0.56028  -0.50543  -0.49687
 Alpha virt. eigenvalues --    0.13316   0.14579   0.19344   0.21020   0.53548
 Alpha virt. eigenvalues --    0.54702   0.56649   0.57597   0.67119   0.68312
 Alpha virt. eigenvalues --    0.78343   0.79184   0.79737   0.80813   0.81744

 Mulliken charges:
               1
     1  O   -0.510394
     2  H    0.257736
     3  H    0.252639
     4  O   -0.511195
     5  H    0.257684
     6  H    0.253530
 Sum of Mulliken charges =  -0.00000

 Dipole moment (field-independent basis, Debye):
    X=             -2.9387    Y=              2.6166    Z=              0.0000  Tot=              3.9348
 Quadrupole moment (field-independent basis, Debye-Ang):
   XX=            -10.3957   YY=             -8.0190   ZZ=            -14.7125
   XY=              2.9925   XZ=              0.0000   YZ=              0.0000

 Normal termination of Gaussian 16 at Sun Aug 28 07:23:49 2022.
