 Gaussian 16, Revision A.03,
 Gaussian 16:  ES64L-G16RevA.03 25-Dec-2016

 ------------------
 #p CCSD(T)/cc-pVTZ
 ------------------

 ------------
 H2O_H2O_2169
 ------------
 Symbolic Z-matrix:
 Charge =  0 Multiplicity = 1

                         Standard orientation:
 ---------------------------------------------------------------------
 Center     Atomic      Atomic             Coordinates (Angstroms)
 Number     Number       Type             X           Y           Z
 ---------------------------------------------------------------------
      1          8           0        0.030232    1.967710    0.000000
      2          1           0        0.027398    0.985113    0.000000
      3          1           0       -0.898338    2.289056    0.000000
      4          8           0        0.030232   -1.792133   -0.000000
      5          1           0        0.959771   -2.110661   -0.000000
      6          1           0       -0.572540   -2.568131   -0.000000
 ---------------------------------------------------------------------

 SCF Done:  E(RHF) =  -152.111881810     A.U. after   10 cycles
 E2 =    -0.5262582427D+00 EUMP2 =    -0.15263814005278D+03
 CCSD(T)
 CCSD(T)= -0.15266521917D+03

 The electronic state is 1-A'.
 Alpha  occ. eigenvalues --  -20.57185 -20.53900  -1.34444  -1.31249  -0.71837
 Alpha  occ. eigenvalues --   -0.68668  -0.58102  -0.54725  -0.51582  -0.48401
 Alpha virt. eigenvalues --    0.12275   0.16826   0.19203   0.25519   0.52529
 Alpha virt. eigenvalues --    0.55081   0.56377   0.58784   0.69022   0.72089
 Alpha virt. eigenvalues --    0.76711   0.78264   0.80496   0.83549   0.83640

 Mulliken charges:
               1
     1  O   -0.528551
     2  H    0.267716
     3  H    0.251772
     4  O   -0.510045
     5  H    0.261210
     6  H    0.257898
 Sum of Mulliken charges =  -0.00000

 Dipole moment (field-independent basis, Debye):
    X=             -1.0265    Y=             -3.2703    Z=             -0.0000  Tot=              3.4276
 Quadrupole moment (field-independent basis, Debye-Ang):
   XX=             -9.2303   YY=             -7.8542   ZZ=            -14.7268
   XY=             -4.6520   XZ=             -0.0000   YZ=             -0.0000

 Normal termination of Gaussian 16 at Sun Aug 28 05:05:23 2022.
