 Gaussian 16, Revision A.03,
 Gaussian 16:  ES64L-G16RevA.03 25-Dec-2016

 ------------------
 #p CCSD(T)/cc-pVTZ
 ------------------

 ------------
 H2O_H2O_1142
 ------------
 Symbolic Z-matrix:
 Charge =  0 Multiplicity = 1

                         Standard orientation:
 ---------------------------------------------------------------------
 Center     Atomic      Atomic             Coordinates (Angstroms)
 Number     Number       Type             X           Y           Z
 ---------------------------------------------------------------------
      1          8           0        0.037548    1.560656    0.000000
      2          1           0        0.034346    0.578060    0.000000
      3          1           0       -0.890901    1.882350    0.000000
      4          8           0        0.037548   -1.381778    0.000000
      5          1           0        0.917397   -1.819241    0.000000
      6          1           0       -0.661613   -2.072198    0.000000
 ---------------------------------------------------------------------

 SCF Done:  E(RHF) =  -152.114093922     A.U. after   10 cycles
 E2 =    -0.5280710274D+00 EUMP2 =    -0.15264216494982D+03
 CCSD(T)
 CCSD(T)= -0.15266906469D+03

 The electronic state is 1-A'.
 Alpha  occ. eigenvalues --  -20.58543 -20.52017  -1.35955  -1.29621  -0.73227
 Alpha  occ. eigenvalues --   -0.67922  -0.59643  -0.53044  -0.52746  -0.46753
 Alpha virt. eigenvalues --    0.11955   0.18212   0.18735   0.31239   0.49000
 Alpha virt. eigenvalues --    0.54701   0.56029   0.61304   0.68640   0.71933
 Alpha virt. eigenvalues --    0.73059   0.77282   0.82283   0.82605   0.84841

 Mulliken charges:
               1
     1  O   -0.561198
     2  H    0.290885
     3  H    0.244485
     4  O   -0.497772
     5  H    0.266305
     6  H    0.257295
 Sum of Mulliken charges =  -0.00000

 Dipole moment (field-independent basis, Debye):
    X=             -1.2478    Y=             -3.6818    Z=             -0.0000  Tot=              3.8875
 Quadrupole moment (field-independent basis, Debye-Ang):
   XX=             -9.1555   YY=             -8.6215   ZZ=            -14.7313
   XY=             -3.6321   XZ=             -0.0000   YZ=             -0.0000

 CCSD(T)=-152.6690647\RMSD=6.935e-09\PG=CS [SG(H4O2)]\\@
 Normal termination of Gaussian 16 at Fri Aug 26 22:42:50 2022.
