 Gaussian 16, Revision A.03,
 Gaussian 16:  ES64L-G16RevA.03 25-Dec-2016

 ------------------
 #p CCSD(T)/cc-pVTZ
 ------------------

 -----------
 H2O_H2O_141
 -----------
 Symbolic Z-matrix:
 Charge =  0 Multiplicity = 1

                         Standard orientation:
 ---------------------------------------------------------------------
 Center     Atomic      Atomic             Coordinates (Angstroms)
 Number     Number       Type             X           Y           Z
 ---------------------------------------------------------------------
      1          8           0        0.041338    1.162255    0.000000
      2          1           0        0.037238    0.179662    0.000000
      3          1           0       -0.886817    1.484797    0.000000
      4          8           0        0.041338   -0.982511    0.000000
      5          1           0        0.890239   -1.477359    0.000000
      6          1           0       -0.702070   -1.625046    0.000000
 ---------------------------------------------------------------------

 SCF Done:  E(RHF) =  -152.058222763     A.U. after   11 cycles
 E2 =    -0.5349407378D+00 EUMP2 =    -0.15259316350106D+03
 CCSD(T)
 CCSD(T)= -0.15261886433D+03

 The electronic state is 1-A'.
 Alpha  occ. eigenvalues --  -20.61721 -20.44914  -1.42574  -1.24867  -0.78235
 Alpha  occ. eigenvalues --   -0.76657  -0.57948  -0.55425  -0.45192  -0.41450
 Alpha virt. eigenvalues --    0.10537   0.16754   0.20894   0.33305   0.46753
 Alpha virt. eigenvalues --    0.52278   0.62553   0.66097   0.70385   0.71154
 Alpha virt. eigenvalues --    0.78595   0.79690   0.80896   0.82416   0.86376

 Mulliken charges:
               1
     1  O   -0.665263
     2  H    0.295892
     3  H    0.209955
     4  O   -0.339738
     5  H    0.257768
     6  H    0.241385
 Sum of Mulliken charges =  -0.00000

 Dipole moment (field-independent basis, Debye):
    X=             -1.2621    Y=             -4.9350    Z=              0.0000  Tot=              5.0939
 Quadrupole moment (field-independent basis, Debye-Ang):
   XX=             -9.0901   YY=            -10.0925   ZZ=            -14.5840
   XY=             -2.7400   XZ=              0.0000   YZ=              0.0000

 Normal termination of Gaussian 16 at Fri Aug 26 16:09:02 2022.
