 Gaussian 16, Revision A.03,
 Gaussian 16:  ES64L-G16RevA.03 25-Dec-2016

 ------------------
 #p CCSD(T)/cc-pVTZ
 ------------------

 ------------
 H2O_H2O_4870
 ------------
 Symbolic Z-matrix:
 Charge =  0 Multiplicity = 1

                         Standard orientation:
 ---------------------------------------------------------------------
 Center     Atomic      Atomic             Coordinates (Angstroms)
 Number     Number       Type             X           Y           Z
 ---------------------------------------------------------------------
      1          8           0        0.026605    3.043413   -0.000000
      2          1           0        0.024702    2.060814   -0.000000
      3          1           0       -0.902269    3.363879   -0.000000
      4          8           0        0.026605   -2.870157    0.000000
      5          1           0        0.975231   -3.126310    0.000000
      6          1           0       -0.523352   -3.684437    0.000000
 ---------------------------------------------------------------------

 SCF Done:  E(RHF) =  -152.108313023     A.U. after   10 cycles
 E2 =    -0.5257998990D+00 EUMP2 =    -0.15263411292182D+03
 CCSD(T)
 CCSD(T)= -0.15266131431D+03

 The electronic state is 1-A'.
 Alpha  occ. eigenvalues --  -20.56122 -20.55058  -1.33425  -1.32364  -0.70829
 Alpha  occ. eigenvalues --   -0.69769  -0.56913  -0.55834  -0.50543  -0.49487
 Alpha virt. eigenvalues --    0.13490   0.14779   0.19678   0.20948   0.53669
 Alpha virt. eigenvalues --    0.54806   0.56717   0.57753   0.67029   0.68504
 Alpha virt. eigenvalues --    0.78340   0.79373   0.79707   0.80588   0.82180

 Mulliken charges:
               1
     1  O   -0.513689
     2  H    0.259322
     3  H    0.254325
     4  O   -0.514214
     5  H    0.257170
     6  H    0.257085
 Sum of Mulliken charges =  -0.00000

 Dipole moment (field-independent basis, Debye):
    X=             -0.9139    Y=             -3.0320    Z=              0.0000  Tot=              3.1668
 Quadrupole moment (field-independent basis, Debye-Ang):
   XX=             -9.2897   YY=             -6.4183   ZZ=            -14.7145
   XY=             -7.2326   XZ=              0.0000   YZ=             -0.0000

 Normal termination of Gaussian 16 at Sun Aug 28 06:30:54 2022.
