 Gaussian 16, Revision A.03,
 Gaussian 16:  ES64L-G16RevA.03 25-Dec-2016

 ------------------
 #p CCSD(T)/cc-pVTZ
 ------------------

 -----------
 H2O_H2O_231
 -----------
 Symbolic Z-matrix:
 Charge =  0 Multiplicity = 1

                         Standard orientation:
 ---------------------------------------------------------------------
 Center     Atomic      Atomic             Coordinates (Angstroms)
 Number     Number       Type             X           Y           Z
 ---------------------------------------------------------------------
      1          8           0        0.076810   -1.193095    0.000000
      2          1           0        0.075574   -0.210494    0.000000
      3          1           0       -0.852281   -1.512930    0.000000
      4          8           0        0.076810    1.029985    0.000000
      5          1           0        0.451694    1.938262    0.000000
      6          1           0       -0.903954    1.090043    0.000000
 ---------------------------------------------------------------------

 SCF Done:  E(RHF) =  -152.069379638     A.U. after   11 cycles
 E2 =    -0.5354646227D+00 EUMP2 =    -0.15260484426110D+03
 CCSD(T)
 CCSD(T)= -0.15263076566D+03

 The electronic state is 1-A'.
 Alpha  occ. eigenvalues --  -20.61191 -20.47459  -1.41434  -1.26568  -0.79596
 Alpha  occ. eigenvalues --   -0.72099  -0.57008  -0.56887  -0.48024  -0.43351
 Alpha virt. eigenvalues --    0.10740   0.16294   0.21059   0.32558   0.49051
 Alpha virt. eigenvalues --    0.52126   0.59926   0.64711   0.71636   0.72442
 Alpha virt. eigenvalues --    0.77347   0.77583   0.80413   0.84746   0.85032

 Mulliken charges:
               1
     1  O   -0.616178
     2  H    0.286893
     3  H    0.203224
     4  O   -0.344462
     5  H    0.232396
     6  H    0.238127
 Sum of Mulliken charges =  -0.00000

 Dipole moment (field-independent basis, Debye):
    X=             -2.3878    Y=              4.3232    Z=              0.0000  Tot=              4.9388
 Quadrupole moment (field-independent basis, Debye-Ang):
   XX=             -9.9393   YY=             -9.7473   ZZ=            -14.5887
   XY=              2.5768   XZ=              0.0000   YZ=              0.0000

 Normal termination of Gaussian 16 at Fri Aug 26 16:46:55 2022.
