 Gaussian 16, Revision A.03,
 Gaussian 16:  ES64L-G16RevA.03 25-Dec-2016

 ------------------
 #p CCSD(T)/cc-pVTZ
 ------------------

 -----------
 H2O_H2O_693
 -----------
 Symbolic Z-matrix:
 Charge =  0 Multiplicity = 1

                         Standard orientation:
 ---------------------------------------------------------------------
 Center     Atomic      Atomic             Coordinates (Angstroms)
 Number     Number       Type             X           Y           Z
 ---------------------------------------------------------------------
      1          8           0        0.033941    1.380367    0.000000
      2          1           0        0.030054    0.397773    0.000000
      3          1           0       -0.894284    1.702708   -0.000000
      4          8           0        0.033941   -1.202959    0.000000
      5          1           0        0.940252   -1.582572    0.000000
      6          1           0       -0.619080   -1.937172   -0.000000
 ---------------------------------------------------------------------

 SCF Done:  E(RHF) =  -152.108079584     A.U. after   10 cycles
 E2 =    -0.5302655964D+00 EUMP2 =    -0.15263834518033D+03
 CCSD(T)
 CCSD(T)= -0.15266494354D+03

 The electronic state is 1-A'.
 Alpha  occ. eigenvalues --  -20.59599 -20.50041  -1.37571  -1.28141  -0.74647
 Alpha  occ. eigenvalues --   -0.69296  -0.59452  -0.54433  -0.50640  -0.45177
 Alpha virt. eigenvalues --    0.11596   0.18131   0.19234   0.33376   0.47726
 Alpha virt. eigenvalues --    0.54141   0.58446   0.64789   0.68691   0.72369
 Alpha virt. eigenvalues --    0.72794   0.77964   0.81248   0.83295   0.84206

 Mulliken charges:
               1
     1  O   -0.598910
     2  H    0.307929
     3  H    0.237353
     4  O   -0.460051
     5  H    0.263590
     6  H    0.250089
 Sum of Mulliken charges =  -0.00000

 Dipole moment (field-independent basis, Debye):
    X=             -1.1050    Y=             -4.0230    Z=             -0.0000  Tot=              4.1720
 Quadrupole moment (field-independent basis, Debye-Ang):
   XX=             -9.1633   YY=             -9.1550   ZZ=            -14.6994
   XY=             -3.2894   XZ=             -0.0000   YZ=             -0.0000

 Normal termination of Gaussian 16 at Fri Aug 26 19:53:22 2022.
