 Gaussian 16, Revision A.03,
 Gaussian 16:  ES64L-G16RevA.03 25-Dec-2016

 ------------------
 #p CCSD(T)/cc-pVTZ
 ------------------

 ------------
 H2O_H2O_3231
 ------------
 Symbolic Z-matrix:
 Charge =  0 Multiplicity = 1

                         Standard orientation:
 ---------------------------------------------------------------------
 Center     Atomic      Atomic             Coordinates (Angstroms)
 Number     Number       Type             X           Y           Z
 ---------------------------------------------------------------------
      1          8           0        0.076757    2.389777    0.000000
      2          1           0        0.076162    1.407175    0.000000
      3          1           0       -0.852543    2.709006    0.000000
      4          8           0        0.076757   -2.226566   -0.000000
      5          1           0        0.452233   -3.134599   -0.000000
      6          1           0       -0.903967   -2.287264   -0.000000
 ---------------------------------------------------------------------

 SCF Done:  E(RHF) =  -152.108837016     A.U. after   10 cycles
 E2 =    -0.5259541481D+00 EUMP2 =    -0.15263479116377D+03
 CCSD(T)
 CCSD(T)= -0.15266196032D+03

 The electronic state is 1-A'.
 Alpha  occ. eigenvalues --  -20.56552 -20.54788  -1.33842  -1.32099  -0.71256
 Alpha  occ. eigenvalues --   -0.69486  -0.57341  -0.55568  -0.50960  -0.49222
 Alpha virt. eigenvalues --    0.12247   0.15597   0.19396   0.22304   0.53589
 Alpha virt. eigenvalues --    0.55091   0.56380   0.58269   0.67445   0.69257
 Alpha virt. eigenvalues --    0.77945   0.78673   0.79627   0.80478   0.82876

 Mulliken charges:
               1
     1  O   -0.514055
     2  H    0.262021
     3  H    0.250347
     4  O   -0.512244
     5  H    0.259966
     6  H    0.253965
 Sum of Mulliken charges =  -0.00000

 Dipole moment (field-independent basis, Debye):
    X=             -2.6189    Y=             -2.9189    Z=             -0.0000  Tot=              3.9215
 Quadrupole moment (field-independent basis, Debye-Ang):
   XX=             -9.9546   YY=             -7.7494   ZZ=            -14.7161
   XY=             -3.4183   XZ=             -0.0000   YZ=              0.0000

 Normal termination of Gaussian 16 at Fri Aug 26 20:31:56 2022.
