 Gaussian 16, Revision A.03,
 Gaussian 16:  ES64L-G16RevA.03 25-Dec-2016

 ------------------
 #p CCSD(T)/cc-pVTZ
 ------------------

 ------------
 H2O_H2O_1506
 ------------
 Symbolic Z-matrix:
 Charge =  0 Multiplicity = 1

                         Standard orientation:
 ---------------------------------------------------------------------
 Center     Atomic      Atomic             Coordinates (Angstroms)
 Number     Number       Type             X           Y           Z
 ---------------------------------------------------------------------
      1          8           0        0.076778    1.701694    0.000000
      2          1           0        0.075930    0.719092    0.000000
      3          1           0       -0.852439    2.021162    0.000000
      4          8           0        0.076778   -1.538523    0.000000
      5          1           0        0.452019   -2.446653    0.000000
      6          1           0       -0.903963   -1.598968    0.000000
 ---------------------------------------------------------------------

 SCF Done:  E(RHF) =  -152.111839918     A.U. after   10 cycles
 E2 =    -0.5273202639D+00 EUMP2 =    -0.15263916018207D+03
 CCSD(T)
 CCSD(T)= -0.15266619053D+03

 The electronic state is 1-A'.
 Alpha  occ. eigenvalues --  -20.57910 -20.53528  -1.35227  -1.30931  -0.72708
 Alpha  occ. eigenvalues --   -0.68415  -0.58893  -0.54281  -0.52326  -0.48057
 Alpha virt. eigenvalues --    0.11781   0.16824   0.19621   0.28369   0.49661
 Alpha virt. eigenvalues --    0.55148   0.57218   0.58455   0.69483   0.74157
 Alpha virt. eigenvalues --    0.74239   0.77037   0.81128   0.82709   0.84003

 Mulliken charges:
               1
     1  O   -0.531644
     2  H    0.275877
     3  H    0.241164
     4  O   -0.493264
     5  H    0.255830
     6  H    0.252037
 Sum of Mulliken charges =  -0.00000

 Dipole moment (field-independent basis, Debye):
    X=             -2.5691    Y=             -3.1889    Z=              0.0000  Tot=              4.0950
 Quadrupole moment (field-independent basis, Debye-Ang):
   XX=             -9.9832   YY=             -8.4940   ZZ=            -14.7250
   XY=             -3.0165   XZ=              0.0000   YZ=              0.0000

 Normal termination of Gaussian 16 at Sat Aug 27 00:59:57 2022.
