 Gaussian 16, Revision A.03,
 Gaussian 16:  ES64L-G16RevA.03 25-Dec-2016

 ------------------
 #p CCSD(T)/cc-pVTZ
 ------------------

 ------------
 H2O_H2O_3451
 ------------
 Symbolic Z-matrix:
 Charge =  0 Multiplicity = 1

                         Standard orientation:
 ---------------------------------------------------------------------
 Center     Atomic      Atomic             Coordinates (Angstroms)
 Number     Number       Type             X           Y           Z
 ---------------------------------------------------------------------
      1          8           0        0.090684   -2.466215    0.000000
      2          1           0        0.090604   -1.483613    0.000000
      3          1           0       -0.838783   -2.784957    0.000000
      4          8           0        0.090684    2.327506    0.000000
      5          1           0        0.154869    3.308009    0.000000
      6          1           0       -0.857640    2.070235    0.000000
 ---------------------------------------------------------------------

 SCF Done:  E(RHF) =  -152.107990605     A.U. after   10 cycles
 E2 =    -0.5259646174D+00 EUMP2 =    -0.15263395522198D+03
 CCSD(T)
 CCSD(T)= -0.15266115040D+03

 The electronic state is 1-A'.
 Alpha  occ. eigenvalues --  -20.56473 -20.55161  -1.33770  -1.32463  -0.71193
 Alpha  occ. eigenvalues --   -0.69851  -0.57238  -0.55917  -0.50880  -0.49577
 Alpha virt. eigenvalues --    0.11855   0.15325   0.19102   0.22630   0.53518
 Alpha virt. eigenvalues --    0.54895   0.56455   0.58014   0.67054   0.68921
 Alpha virt. eigenvalues --    0.78026   0.78636   0.79292   0.81283   0.82501

 Mulliken charges:
               1
     1  O   -0.510369
     2  H    0.259162
     3  H    0.250491
     4  O   -0.510298
     5  H    0.259630
     6  H    0.251384
 Sum of Mulliken charges =  -0.00000

 Dipole moment (field-independent basis, Debye):
    X=             -3.0968    Y=              2.4655    Z=              0.0000  Tot=              3.9584
 Quadrupole moment (field-independent basis, Debye-Ang):
   XX=            -10.7070   YY=             -8.9133   ZZ=            -14.7128
   XY=              2.3811   XZ=              0.0000   YZ=              0.0000

 Normal termination of Gaussian 16 at Fri Aug 26 21:46:18 2022.
