 Gaussian 16, Revision A.03,
 Gaussian 16:  ES64L-G16RevA.03 25-Dec-2016

 ------------------
 #p CCSD(T)/cc-pVTZ
 ------------------

 ------------
 H2O_H2O_4686
 ------------
 Symbolic Z-matrix:
 Charge =  0 Multiplicity = 1

                         Standard orientation:
 ---------------------------------------------------------------------
 Center     Atomic      Atomic             Coordinates (Angstroms)
 Number     Number       Type             X           Y           Z
 ---------------------------------------------------------------------
      1          8           0        0.059616    2.975898   -0.000000
      2          1           0        0.058637    1.993297   -0.000000
      3          1           0       -0.869558    3.295491   -0.000000
      4          8           0        0.059616   -2.798420    0.000000
      5          1           0        0.706754   -3.537825    0.000000
      6          1           0       -0.849697   -3.170786    0.000000
 ---------------------------------------------------------------------

 SCF Done:  E(RHF) =  -152.108238139     A.U. after   10 cycles
 E2 =    -0.5258170914D+00 EUMP2 =    -0.15263405523077D+03
 CCSD(T)
 CCSD(T)= -0.15266125696D+03

 The electronic state is 1-A'.
 Alpha  occ. eigenvalues --  -20.56158 -20.55009  -1.33459  -1.32315  -0.70865
 Alpha  occ. eigenvalues --   -0.69715  -0.56945  -0.55782  -0.50577  -0.49436
 Alpha virt. eigenvalues --    0.13417   0.14830   0.19683   0.20968   0.53657
 Alpha virt. eigenvalues --    0.54828   0.56675   0.57769   0.66943   0.68627
 Alpha virt. eigenvalues --    0.78309   0.79423   0.79660   0.80395   0.82470

 Mulliken charges:
               1
     1  O   -0.512934
     2  H    0.259881
     3  H    0.252979
     4  O   -0.513742
     5  H    0.258188
     6  H    0.255628
 Sum of Mulliken charges =  -0.00000

 Dipole moment (field-independent basis, Debye):
    X=             -2.0453    Y=             -3.1108    Z=              0.0000  Tot=              3.7230
 Quadrupole moment (field-independent basis, Debye-Ang):
   XX=             -9.3615   YY=             -6.2737   ZZ=            -14.7142
   XY=             -4.9826   XZ=              0.0000   YZ=             -0.0000

 Normal termination of Gaussian 16 at Sun Aug 28 05:04:52 2022.
