 Gaussian 16, Revision A.03,
 Gaussian 16:  ES64L-G16RevA.03 25-Dec-2016

 ------------------
 #p CCSD(T)/cc-pVTZ
 ------------------

 ------------
 H2O_H2O_1755
 ------------
 Symbolic Z-matrix:
 Charge =  0 Multiplicity = 1

                         Standard orientation:
 ---------------------------------------------------------------------
 Center     Atomic      Atomic             Coordinates (Angstroms)
 Number     Number       Type             X           Y           Z
 ---------------------------------------------------------------------
      1          8           0        0.079864   -1.799166    0.000000
      2          1           0        0.079218   -0.816565    0.000000
      3          1           0       -0.849419   -2.118444    0.000000
      4          8           0        0.079864    1.640130    0.000000
      5          1           0        0.395100    2.570793    0.000000
      6          1           0       -0.902730    1.636505    0.000000
 ---------------------------------------------------------------------

 SCF Done:  E(RHF) =  -152.111078866     A.U. after   10 cycles
 E2 =    -0.5268956251D+00 EUMP2 =    -0.15263797449128D+03
 CCSD(T)
 CCSD(T)= -0.15266504488D+03

 The electronic state is 1-A'.
 Alpha  occ. eigenvalues --  -20.57589 -20.53982  -1.34879  -1.31338  -0.72354
 Alpha  occ. eigenvalues --   -0.68728  -0.58497  -0.54745  -0.51986  -0.48466
 Alpha virt. eigenvalues --    0.11781   0.16602   0.19688   0.26903   0.50673
 Alpha virt. eigenvalues --    0.55427   0.56802   0.58121   0.69081   0.73886
 Alpha virt. eigenvalues --    0.75259   0.77895   0.80646   0.82996   0.83670

 Mulliken charges:
               1
     1  O   -0.524558
     2  H    0.270432
     3  H    0.243235
     4  O   -0.498871
     5  H    0.258201
     6  H    0.251560
 Sum of Mulliken charges =  -0.00000

 Dipole moment (field-independent basis, Debye):
    X=             -2.6854    Y=              3.0352    Z=              0.0000  Tot=              4.0527
 Quadrupole moment (field-independent basis, Debye-Ang):
   XX=            -10.1274   YY=             -8.4541   ZZ=            -14.7232
   XY=              2.9422   XZ=              0.0000   YZ=              0.0000

 Normal termination of Gaussian 16 at Sun Aug 28 01:19:22 2022.
