 Gaussian 16, Revision A.03,
 Gaussian 16:  ES64L-G16RevA.03 25-Dec-2016

 ------------------
 #p CCSD(T)/cc-pVTZ
 ------------------

 ------------
 H2O_H2O_2811
 ------------
 Symbolic Z-matrix:
 Charge =  0 Multiplicity = 1

                         Standard orientation:
 ---------------------------------------------------------------------
 Center     Atomic      Atomic             Coordinates (Angstroms)
 Number     Number       Type             X           Y           Z
 ---------------------------------------------------------------------
      1          8           0        0.059647    2.227983    0.000000
      2          1           0        0.058326    1.245383    0.000000
      3          1           0       -0.869416    2.547900    0.000000
      4          8           0        0.059647   -2.050547   -0.000000
      5          1           0        0.706527   -2.790177   -0.000000
      6          1           0       -0.849796   -2.422595   -0.000000
 ---------------------------------------------------------------------

 SCF Done:  E(RHF) =  -152.109997229     A.U. after   10 cycles
 E2 =    -0.5260106558D+00 EUMP2 =    -0.15263600788464D+03
 CCSD(T)
 CCSD(T)= -0.15266314140D+03

 The electronic state is 1-A'.
 Alpha  occ. eigenvalues --  -20.56755 -20.54385  -1.34029  -1.31707  -0.71431
 Alpha  occ. eigenvalues --   -0.69095  -0.57577  -0.55189  -0.51158  -0.48842
 Alpha virt. eigenvalues --    0.12356   0.16070   0.19419   0.23113   0.53162
 Alpha virt. eigenvalues --    0.55530   0.56221   0.58790   0.68827   0.69423
 Alpha virt. eigenvalues --    0.77704   0.79066   0.79719   0.79992   0.83307

 Mulliken charges:
               1
     1  O   -0.519105
     2  H    0.265006
     3  H    0.250238
     4  O   -0.512259
     5  H    0.260222
     6  H    0.255897
 Sum of Mulliken charges =  -0.00000

 Dipole moment (field-independent basis, Debye):
    X=             -2.0308    Y=             -3.2147    Z=             -0.0000  Tot=              3.8024
 Quadrupole moment (field-independent basis, Debye-Ang):
   XX=             -9.3659   YY=             -7.4059   ZZ=            -14.7201
   XY=             -4.1167   XZ=             -0.0000   YZ=              0.0000

 CCSD(T)=-152.6631414\RMSD=6.838e-09\PG=CS [SG(H4O2)]\\@
 Normal termination of Gaussian 16 at Fri Aug 26 17:29:02 2022.
