 Gaussian 16, Revision A.03,
 Gaussian 16:  ES64L-G16RevA.03 25-Dec-2016

 ------------------
 #p CCSD(T)/cc-pVTZ
 ------------------

 ------------
 H2O_H2O_2046
 ------------
 Symbolic Z-matrix:
 Charge =  0 Multiplicity = 1

                         Standard orientation:
 ---------------------------------------------------------------------
 Center     Atomic      Atomic             Coordinates (Angstroms)
 Number     Number       Type             X           Y           Z
 ---------------------------------------------------------------------
      1          8           0       -0.023263    1.915017    0.000000
      2          1           0       -0.020029    0.932421    0.000000
      3          1           0        0.905176    2.236741    0.000000
      4          8           0       -0.023263   -1.744660    0.000000
      5          1           0       -0.986348   -1.939526    0.000000
      6          1           0        0.473409   -2.592494    0.000000
 ---------------------------------------------------------------------

 SCF Done:  E(RHF) =  -152.112102506     A.U. after   10 cycles
 E2 =    -0.5263516265D+00 EUMP2 =    -0.15263845413229D+03
 CCSD(T)
 CCSD(T)= -0.15266552551D+03

 The electronic state is 1-A'.
 Alpha  occ. eigenvalues --  -20.57279 -20.53873  -1.34544  -1.31229  -0.71949
 Alpha  occ. eigenvalues --   -0.68659  -0.58221  -0.54694  -0.51680  -0.48383
 Alpha virt. eigenvalues --    0.12235   0.16932   0.19190   0.26076   0.52587
 Alpha virt. eigenvalues --    0.54743   0.56160   0.58918   0.68941   0.72588
 Alpha virt. eigenvalues --    0.76346   0.78334   0.80562   0.83466   0.83996

 Mulliken charges:
               1
     1  O   -0.530425
     2  H    0.267767
     3  H    0.252701
     4  O   -0.509681
     5  H    0.261384
     6  H    0.258254
 Sum of Mulliken charges =   0.00000

 Dipole moment (field-independent basis, Debye):
    X=              0.7917    Y=             -3.1937    Z=              0.0000  Tot=              3.2904
 Quadrupole moment (field-independent basis, Debye-Ang):
   XX=             -9.3625   YY=             -8.0514   ZZ=            -14.7277
   XY=              4.7640   XZ=              0.0000   YZ=              0.0000

 Normal termination of Gaussian 16 at Sun Aug 28 03:50:03 2022.
