 Gaussian 16, Revision A.03,
 Gaussian 16:  ES64L-G16RevA.03 25-Dec-2016

 ------------------
 #p CCSD(T)/cc-pVTZ
 ------------------

 ----------
 H2O_H2O_29
 ----------
 Symbolic Z-matrix:
 Charge =  0 Multiplicity = 1

                         Standard orientation:
 ---------------------------------------------------------------------
 Center     Atomic      Atomic             Coordinates (Angstroms)
 Number     Number       Type             X           Y           Z
 ---------------------------------------------------------------------
      1          8           0        0.082839   -1.108609    0.000000
      2          1           0        0.082005   -0.126008    0.000000
      3          1           0       -0.846383   -1.428065    0.000000
      4          8           0        0.082839    0.954168    0.000000
      5          1           0        0.336349    1.903504    0.000000
      6          1           0       -0.897402    0.886098    0.000000
 ---------------------------------------------------------------------

 SCF Done:  E(RHF) =  -152.022344255     A.U. after   11 cycles
 E2 =    -0.5387327612D+00 EUMP2 =    -0.15256107701595D+03
 CCSD(T)
 CCSD(T)= -0.15258653318D+03

 The electronic state is 1-A'.
 Alpha  occ. eigenvalues --  -20.61967 -20.45671  -1.44859  -1.25555  -0.83649
 Alpha  occ. eigenvalues --   -0.73170  -0.58743  -0.55213  -0.46112  -0.42204
 Alpha virt. eigenvalues --    0.10406   0.15709   0.21808   0.31546   0.49519
 Alpha virt. eigenvalues --    0.50952   0.60227   0.65349   0.70463   0.72081
 Alpha virt. eigenvalues --    0.75770   0.78939   0.81193   0.85878   0.87444

 Mulliken charges:
               1
     1  O   -0.630899
     2  H    0.257533
     3  H    0.185548
     4  O   -0.280312
     5  H    0.227781
     6  H    0.240350
 Sum of Mulliken charges =  -0.00000

 Dipole moment (field-independent basis, Debye):
    X=             -2.5253    Y=              4.5071    Z=              0.0000  Tot=              5.1664
 Quadrupole moment (field-independent basis, Debye-Ang):
   XX=            -10.1914   YY=            -10.0744   ZZ=            -14.5052
   XY=              2.3167   XZ=              0.0000   YZ=              0.0000

 Normal termination of Gaussian 16 at Fri Aug 26 15:23:00 2022.
