 Gaussian 16, Revision A.03,
 Gaussian 16:  ES64L-G16RevA.03 25-Dec-2016

 ------------------
 #p CCSD(T)/cc-pVTZ
 ------------------

 ------------
 H2O_H2O_4148
 ------------
 Symbolic Z-matrix:
 Charge =  0 Multiplicity = 1

                         Standard orientation:
 ---------------------------------------------------------------------
 Center     Atomic      Atomic             Coordinates (Angstroms)
 Number     Number       Type             X           Y           Z
 ---------------------------------------------------------------------
      1          8           0       -0.016590    2.748879    0.000000
      2          1           0       -0.014162    1.766280    0.000000
      3          1           0        0.912112    3.069841    0.000000
      4          8           0       -0.016590   -2.585474    0.000000
      5          1           0       -0.996927   -2.652162    0.000000
      6          1           0        0.364425   -3.491197    0.000000
 ---------------------------------------------------------------------

 SCF Done:  E(RHF) =  -152.108627549     A.U. after   10 cycles
 E2 =    -0.5258049981D+00 EUMP2 =    -0.15263443254756D+03
 CCSD(T)
 CCSD(T)= -0.15266162367D+03

 The electronic state is 1-A'.
 Alpha  occ. eigenvalues --  -20.56248 -20.54988  -1.33550  -1.32297  -0.70956
 Alpha  occ. eigenvalues --   -0.69704  -0.57050  -0.55774  -0.50670  -0.49423
 Alpha virt. eigenvalues --    0.12988   0.15086   0.19347   0.21539   0.53302
 Alpha virt. eigenvalues --    0.55052   0.56634   0.57821   0.66705   0.68888
 Alpha virt. eigenvalues --    0.78220   0.79205   0.79431   0.80700   0.82686

 Mulliken charges:
               1
     1  O   -0.515148
     2  H    0.260053
     3  H    0.254823
     4  O   -0.515526
     5  H    0.257389
     6  H    0.258410
 Sum of Mulliken charges =  -0.00000

 Dipole moment (field-independent basis, Debye):
    X=              0.5703    Y=             -2.8767    Z=              0.0000  Tot=              2.9327
 Quadrupole moment (field-independent basis, Debye-Ang):
   XX=             -9.5431   YY=             -7.3577   ZZ=            -14.7154
   XY=              7.2170   XZ=              0.0000   YZ=              0.0000

 Normal termination of Gaussian 16 at Sun Aug 28 00:08:50 2022.
