 Gaussian 16, Revision A.03,
 Gaussian 16:  ES64L-G16RevA.03 25-Dec-2016

 ------------------
 #p CCSD(T)/cc-pVTZ
 ------------------

 ------------
 H2O_H2O_4713
 ------------
 Symbolic Z-matrix:
 Charge =  0 Multiplicity = 1

                         Standard orientation:
 ---------------------------------------------------------------------
 Center     Atomic      Atomic             Coordinates (Angstroms)
 Number     Number       Type             X           Y           Z
 ---------------------------------------------------------------------
      1          8           0        0.052268    2.987201   -0.000000
      2          1           0        0.051077    2.004600   -0.000000
      3          1           0       -0.876838    3.306994   -0.000000
      4          8           0        0.052268   -2.807275    0.000000
      5          1           0        0.790241   -3.456044    0.000000
      6          1           0       -0.800768   -3.294959    0.000000
 ---------------------------------------------------------------------

 SCF Done:  E(RHF) =  -152.108293665     A.U. after   10 cycles
 E2 =    -0.5258107102D+00 EUMP2 =    -0.15263410437485D+03
 CCSD(T)
 CCSD(T)= -0.15266130512D+03

 The electronic state is 1-A'.
 Alpha  occ. eigenvalues --  -20.56151 -20.54992  -1.33453  -1.32299  -0.70857
 Alpha  occ. eigenvalues --   -0.69700  -0.56941  -0.55767  -0.50570  -0.49420
 Alpha virt. eigenvalues --    0.13451   0.14841   0.19716   0.20959   0.53689
 Alpha virt. eigenvalues --    0.54826   0.56687   0.57780   0.66951   0.68628
 Alpha virt. eigenvalues --    0.78314   0.79438   0.79711   0.80335   0.82484

 Mulliken charges:
               1
     1  O   -0.513297
     2  H    0.259985
     3  H    0.253240
     4  O   -0.514039
     5  H    0.258057
     6  H    0.256052
 Sum of Mulliken charges =  -0.00000

 Dipole moment (field-independent basis, Debye):
    X=             -1.7934    Y=             -3.1531    Z=              0.0000  Tot=              3.6275
 Quadrupole moment (field-independent basis, Debye-Ang):
   XX=             -9.2249   YY=             -6.1078   ZZ=            -14.7144
   XY=             -5.4660   XZ=              0.0000   YZ=             -0.0000

 Normal termination of Gaussian 16 at Sun Aug 28 05:18:50 2022.
