 Gaussian 16, Revision A.03,
 Gaussian 16:  ES64L-G16RevA.03 25-Dec-2016

 ------------------
 #p CCSD(T)/cc-pVTZ
 ------------------

 ------------
 H2O_H2O_1852
 ------------
 Symbolic Z-matrix:
 Charge =  0 Multiplicity = 1

                         Standard orientation:
 ---------------------------------------------------------------------
 Center     Atomic      Atomic             Coordinates (Angstroms)
 Number     Number       Type             X           Y           Z
 ---------------------------------------------------------------------
      1          8           0        0.088235   -1.831054    0.000000
      2          1           0        0.088008   -0.848453    0.000000
      3          1           0       -0.841184   -2.149936    0.000000
      4          8           0        0.088235    1.686744    0.000000
      5          1           0        0.216265    2.660969    0.000000
      6          1           0       -0.874855    1.491903    0.000000
 ---------------------------------------------------------------------

 SCF Done:  E(RHF) =  -152.109780812     A.U. after   10 cycles
 E2 =    -0.5268650219D+00 EUMP2 =    -0.15263664583409D+03
 CCSD(T)
 CCSD(T)= -0.15266375090D+03

 The electronic state is 1-A'.
 Alpha  occ. eigenvalues --  -20.57461 -20.54466  -1.34760  -1.31796  -0.72294
 Alpha  occ. eigenvalues --   -0.69122  -0.58298  -0.55211  -0.51855  -0.48912
 Alpha virt. eigenvalues --    0.11594   0.16301   0.20037   0.26211   0.51305
 Alpha virt. eigenvalues --    0.55411   0.57125   0.57577   0.68409   0.74176
 Alpha virt. eigenvalues --    0.75541   0.78264   0.80240   0.82846   0.83241

 Mulliken charges:
               1
     1  O   -0.519015
     2  H    0.268082
     3  H    0.243376
     4  O   -0.497122
     5  H    0.257156
     6  H    0.247523
 Sum of Mulliken charges =  -0.00000

 Dipole moment (field-independent basis, Debye):
    X=             -2.9687    Y=              2.7272    Z=              0.0000  Tot=              4.0312
 Quadrupole moment (field-independent basis, Debye-Ang):
   XX=            -10.5888   YY=             -8.7995   ZZ=            -14.7174
   XY=              2.4873   XZ=              0.0000   YZ=              0.0000

 Normal termination of Gaussian 16 at Sun Aug 28 02:12:43 2022.
