 Gaussian 16, Revision A.03,
 Gaussian 16:  ES64L-G16RevA.03 25-Dec-2016

 ------------------
 #p CCSD(T)/cc-pVTZ
 ------------------

 -----------
 H2O_H2O_320
 -----------
 Symbolic Z-matrix:
 Charge =  0 Multiplicity = 1

                         Standard orientation:
 ---------------------------------------------------------------------
 Center     Atomic      Atomic             Coordinates (Angstroms)
 Number     Number       Type             X           Y           Z
 ---------------------------------------------------------------------
      1          8           0        0.026872    1.228448    0.000000
      2          1           0        0.021945    0.245859    0.000000
      3          1           0       -0.901012    1.551771   -0.000000
      4          8           0        0.026872   -1.055356    0.000000
      5          1           0        0.974705   -1.314427    0.000000
      6          1           0       -0.525589   -1.867941   -0.000000
 ---------------------------------------------------------------------

 SCF Done:  E(RHF) =  -152.083571890     A.U. after   11 cycles
 E2 =    -0.5334253869D+00 EUMP2 =    -0.15261699727663D+03
 CCSD(T)
 CCSD(T)= -0.15264304670D+03

 The electronic state is 1-A'.
 Alpha  occ. eigenvalues --  -20.60850 -20.47198  -1.40358  -1.26263  -0.77602
 Alpha  occ. eigenvalues --   -0.72306  -0.57587  -0.56447  -0.47582  -0.43094
 Alpha virt. eigenvalues --    0.11066   0.17495   0.20179   0.33902   0.47146
 Alpha virt. eigenvalues --    0.52919   0.60238   0.68377   0.70318   0.71950
 Alpha virt. eigenvalues --    0.76854   0.78042   0.78975   0.83968   0.84041

 Mulliken charges:
               1
     1  O   -0.641683
     2  H    0.298507
     3  H    0.227934
     4  O   -0.383588
     5  H    0.261323
     6  H    0.237508
 Sum of Mulliken charges =  -0.00000

 Dipole moment (field-independent basis, Debye):
    X=             -0.8472    Y=             -4.4499    Z=             -0.0000  Tot=              4.5298
 Quadrupole moment (field-independent basis, Debye-Ang):
   XX=             -9.2236   YY=             -9.7042   ZZ=            -14.6293
   XY=             -2.9894   XZ=              0.0000   YZ=             -0.0000

 Normal termination of Gaussian 16 at Fri Aug 26 17:24:40 2022.
