 Gaussian 16, Revision A.03,
 Gaussian 16:  ES64L-G16RevA.03 25-Dec-2016

 ------------------
 #p CCSD(T)/cc-pVTZ
 ------------------

 ----------
 H2O_H2O_86
 ----------
 Symbolic Z-matrix:
 Charge =  0 Multiplicity = 1

                         Standard orientation:
 ---------------------------------------------------------------------
 Center     Atomic      Atomic             Coordinates (Angstroms)
 Number     Number       Type             X           Y           Z
 ---------------------------------------------------------------------
      1          8           0        0.059770    1.140962   -0.000000
      2          1           0        0.057084    0.158364   -0.000000
      3          1           0       -0.868848    1.462168    0.000000
      4          8           0        0.059770   -0.963692   -0.000000
      5          1           0        0.705623   -1.704218   -0.000000
      6          1           0       -0.850187   -1.334476    0.000000
 ---------------------------------------------------------------------

 SCF Done:  E(RHF) =  -152.046196749     A.U. after   11 cycles
 E2 =    -0.5359687570D+00 EUMP2 =    -0.15258216550628D+03
 CCSD(T)
 CCSD(T)= -0.15260775925D+03

 The electronic state is 1-A'.
 Alpha  occ. eigenvalues --  -20.61970 -20.44645  -1.43443  -1.24767  -0.79848
 Alpha  occ. eigenvalues --   -0.76549  -0.58419  -0.54821  -0.44935  -0.41291
 Alpha virt. eigenvalues --    0.10369   0.16241   0.21264   0.32604   0.47905
 Alpha virt. eigenvalues --    0.51910   0.62115   0.63925   0.70793   0.71298
 Alpha virt. eigenvalues --    0.78861   0.79353   0.81529   0.82961   0.87936

 Mulliken charges:
               1
     1  O   -0.660061
     2  H    0.288323
     3  H    0.198530
     4  O   -0.313003
     5  H    0.242502
     6  H    0.243709
 Sum of Mulliken charges =  -0.00000

 Dipole moment (field-independent basis, Debye):
    X=             -1.8103    Y=             -4.9610    Z=              0.0000  Tot=              5.2810
 Quadrupole moment (field-independent basis, Debye-Ang):
   XX=             -9.3233   YY=            -10.1546   ZZ=            -14.5591
   XY=             -2.6668   XZ=              0.0000   YZ=              0.0000

 Normal termination of Gaussian 16 at Fri Aug 26 15:45:54 2022.
