 Gaussian 16, Revision A.03,
 Gaussian 16:  ES64L-G16RevA.03 25-Dec-2016

 ------------------
 #p CCSD(T)/cc-pVTZ
 ------------------

 ------------
 H2O_H2O_2659
 ------------
 Symbolic Z-matrix:
 Charge =  0 Multiplicity = 1

                         Standard orientation:
 ---------------------------------------------------------------------
 Center     Atomic      Atomic             Coordinates (Angstroms)
 Number     Number       Type             X           Y           Z
 ---------------------------------------------------------------------
      1          8           0        0.066768    2.165791    0.000000
      2          1           0        0.065699    1.183191    0.000000
      3          1           0       -0.862378    2.485469    0.000000
      4          8           0        0.066768   -1.992699   -0.000000
      5          1           0        0.611783   -2.810296   -0.000000
      6          1           0       -0.883392   -2.243103   -0.000000
 ---------------------------------------------------------------------

 SCF Done:  E(RHF) =  -152.110049988     A.U. after   10 cycles
 E2 =    -0.5260829464D+00 EUMP2 =    -0.15263613293410D+03
 CCSD(T)
 CCSD(T)= -0.15266326065D+03

 The electronic state is 1-A'.
 Alpha  occ. eigenvalues --  -20.56844 -20.54377  -1.34115  -1.31700  -0.71523
 Alpha  occ. eigenvalues --   -0.69084  -0.57665  -0.55176  -0.51243  -0.48833
 Alpha virt. eigenvalues --    0.12212   0.16148   0.19409   0.23512   0.53240
 Alpha virt. eigenvalues --    0.55580   0.56140   0.58794   0.68902   0.69884
 Alpha virt. eigenvalues --    0.77564   0.79024   0.80013   0.80286   0.83305

 Mulliken charges:
               1
     1  O   -0.519057
     2  H    0.265281
     3  H    0.249233
     4  O   -0.510469
     5  H    0.260032
     6  H    0.254980
 Sum of Mulliken charges =  -0.00000

 Dipole moment (field-independent basis, Debye):
    X=             -2.2705    Y=             -3.1512    Z=             -0.0000  Tot=              3.8840
 Quadrupole moment (field-independent basis, Debye-Ang):
   XX=             -9.5681   YY=             -7.6383   ZZ=            -14.7201
   XY=             -3.7631   XZ=             -0.0000   YZ=             -0.0000

 Normal termination of Gaussian 16 at Fri Aug 26 16:22:07 2022.
