 Gaussian 16, Revision A.03,
 Gaussian 16:  ES64L-G16RevA.03 25-Dec-2016

 ------------------
 #p CCSD(T)/cc-pVTZ
 ------------------

 ------------
 H2O_H2O_1571
 ------------
 Symbolic Z-matrix:
 Charge =  0 Multiplicity = 1

                         Standard orientation:
 ---------------------------------------------------------------------
 Center     Atomic      Atomic             Coordinates (Angstroms)
 Number     Number       Type             X           Y           Z
 ---------------------------------------------------------------------
      1          8           0       -0.023295    1.725543    0.000000
      2          1           0       -0.019687    0.742948    0.000000
      3          1           0        0.905021    2.047620    0.000000
      4          8           0       -0.023295   -1.555203    0.000000
      5          1           0       -0.986306   -1.750436    0.000000
      6          1           0        0.473699   -2.402848    0.000000
 ---------------------------------------------------------------------

 SCF Done:  E(RHF) =  -152.113450060     A.U. after   10 cycles
 E2 =    -0.5269498813D+00 EUMP2 =    -0.15264039994110D+03
 CCSD(T)
 CCSD(T)= -0.15266741527D+03

 The electronic state is 1-A'.
 Alpha  occ. eigenvalues --  -20.57806 -20.53242  -1.35102  -1.30665  -0.72515
 Alpha  occ. eigenvalues --   -0.68218  -0.58909  -0.54033  -0.52228  -0.47821
 Alpha virt. eigenvalues --    0.12165   0.17541   0.19043   0.28549   0.50912
 Alpha virt. eigenvalues --    0.54285   0.55913   0.60193   0.68927   0.73315
 Alpha virt. eigenvalues --    0.74538   0.77282   0.81274   0.83016   0.84407

 Mulliken charges:
               1
     1  O   -0.541802
     2  H    0.274271
     3  H    0.251480
     4  O   -0.504536
     5  H    0.263783
     6  H    0.256804
 Sum of Mulliken charges =   0.00000

 Dipole moment (field-independent basis, Debye):
    X=              0.7886    Y=             -3.3165    Z=              0.0000  Tot=              3.4090
 Quadrupole moment (field-independent basis, Debye-Ang):
   XX=             -9.3617   YY=             -8.3456   ZZ=            -14.7325
   XY=              4.3023   XZ=              0.0000   YZ=              0.0000

 Normal termination of Gaussian 16 at Sat Aug 27 23:23:30 2022.
