 Gaussian 16, Revision A.03,
 Gaussian 16:  ES64L-G16RevA.03 25-Dec-2016

 ------------------
 #p CCSD(T)/cc-pVTZ
 ------------------

 ------------
 H2O_H2O_1139
 ------------
 Symbolic Z-matrix:
 Charge =  0 Multiplicity = 1

                         Standard orientation:
 ---------------------------------------------------------------------
 Center     Atomic      Atomic             Coordinates (Angstroms)
 Number     Number       Type             X           Y           Z
 ---------------------------------------------------------------------
      1          8           0        0.048665    1.561426    0.000000
      2          1           0        0.046105    0.578828    0.000000
      3          1           0       -0.879995    1.882513    0.000000
      4          8           0        0.048665   -1.381126   -0.000000
      5          1           0        0.826654   -1.981324   -0.000000
      6          1           0       -0.771402   -1.922416   -0.000000
 ---------------------------------------------------------------------

 SCF Done:  E(RHF) =  -152.113970496     A.U. after   10 cycles
 E2 =    -0.5281275705D+00 EUMP2 =    -0.15264209806653D+03
 CCSD(T)
 CCSD(T)= -0.15266899833D+03

 The electronic state is 1-A'.
 Alpha  occ. eigenvalues --  -20.58564 -20.52014  -1.35971  -1.29616  -0.73219
 Alpha  occ. eigenvalues --   -0.67952  -0.59614  -0.53060  -0.52747  -0.46742
 Alpha virt. eigenvalues --    0.11889   0.17925   0.18954   0.31214   0.48757
 Alpha virt. eigenvalues --    0.54768   0.56456   0.60436   0.69272   0.71508
 Alpha virt. eigenvalues --    0.73062   0.77190   0.82316   0.82607   0.84936

 Mulliken charges:
               1
     1  O   -0.558926
     2  H    0.292001
     3  H    0.241594
     4  O   -0.498736
     5  H    0.265808
     6  H    0.258260
 Sum of Mulliken charges =   0.00000

 Dipole moment (field-independent basis, Debye):
    X=             -1.6138    Y=             -3.7095    Z=             -0.0000  Tot=              4.0454
 Quadrupole moment (field-independent basis, Debye-Ang):
   XX=             -9.1852   YY=             -8.6144   ZZ=            -14.7312
   XY=             -3.4836   XZ=             -0.0000   YZ=              0.0000

 CCSD(T)=-152.6689983\RMSD=7.119e-09\PG=CS [SG(H4O2)]\\@
 Normal termination of Gaussian 16 at Fri Aug 26 22:41:43 2022.
