 Gaussian 16, Revision A.03,
 Gaussian 16:  ES64L-G16RevA.03 25-Dec-2016

 ------------------
 #p CCSD(T)/cc-pVTZ
 ------------------

 ------------
 H2O_H2O_3355
 ------------
 Symbolic Z-matrix:
 Charge =  0 Multiplicity = 1

                         Standard orientation:
 ---------------------------------------------------------------------
 Center     Atomic      Atomic             Coordinates (Angstroms)
 Number     Number       Type             X           Y           Z
 ---------------------------------------------------------------------
      1          8           0        0.079850    2.437384    0.000000
      2          1           0        0.079379    1.454783    0.000000
      3          1           0       -0.849490    2.756496    0.000000
      4          8           0        0.079850   -2.278320   -0.000000
      5          1           0        0.395251   -3.208926   -0.000000
      6          1           0       -0.902745   -2.274868   -0.000000
 ---------------------------------------------------------------------

 SCF Done:  E(RHF) =  -152.108596713     A.U. after   10 cycles
 E2 =    -0.5259407470D+00 EUMP2 =    -0.15263453745967D+03
 CCSD(T)
 CCSD(T)= -0.15266171499D+03

 The electronic state is 1-A'.
 Alpha  occ. eigenvalues --  -20.56503 -20.54882  -1.33796  -1.32191  -0.71212
 Alpha  occ. eigenvalues --   -0.69579  -0.57287  -0.55657  -0.50913  -0.49312
 Alpha virt. eigenvalues --    0.12233   0.15485   0.19344   0.22198   0.53513
 Alpha virt. eigenvalues --    0.55055   0.56411   0.58165   0.67185   0.69197
 Alpha virt. eigenvalues --    0.77994   0.78633   0.79542   0.80695   0.82784

 Mulliken charges:
               1
     1  O   -0.513065
     2  H    0.261259
     3  H    0.250524
     4  O   -0.512155
     5  H    0.259887
     6  H    0.253550
 Sum of Mulliken charges =  -0.00000

 Dipole moment (field-independent basis, Debye):
    X=             -2.7261    Y=             -2.8362    Z=             -0.0000  Tot=              3.9339
 Quadrupole moment (field-independent basis, Debye-Ang):
   XX=            -10.1000   YY=             -7.8938   ZZ=            -14.7153
   XY=             -3.2438   XZ=             -0.0000   YZ=             -0.0000

 Normal termination of Gaussian 16 at Fri Aug 26 21:14:36 2022.
