 Gaussian 16, Revision A.03,
 Gaussian 16:  ES64L-G16RevA.03 25-Dec-2016

 ------------------
 #p CCSD(T)/cc-pVTZ
 ------------------

 ------------
 H2O_H2O_4371
 ------------
 Symbolic Z-matrix:
 Charge =  0 Multiplicity = 1

                         Standard orientation:
 ---------------------------------------------------------------------
 Center     Atomic      Atomic             Coordinates (Angstroms)
 Number     Number       Type             X           Y           Z
 ---------------------------------------------------------------------
      1          8           0       -0.023169    2.842429    0.000000
      2          1           0       -0.021022    1.859830    0.000000
      3          1           0        0.905626    3.163125    0.000000
      4          8           0       -0.023169   -2.672020    0.000000
      5          1           0       -0.986469   -2.865821    0.000000
      6          1           0        0.472565   -3.520403    0.000000
 ---------------------------------------------------------------------

 SCF Done:  E(RHF) =  -152.108537930     A.U. after   10 cycles
 E2 =    -0.5258000155D+00 EUMP2 =    -0.15263433794581D+03
 CCSD(T)
 CCSD(T)= -0.15266153237D+03

 The electronic state is 1-A'.
 Alpha  occ. eigenvalues --  -20.56204 -20.54980  -1.33506  -1.32288  -0.70910
 Alpha  occ. eigenvalues --   -0.69693  -0.57003  -0.55763  -0.50625  -0.49413
 Alpha virt. eigenvalues --    0.13223   0.14984   0.19536   0.21236   0.53480
 Alpha virt. eigenvalues --    0.54935   0.56658   0.57803   0.66776   0.68784
 Alpha virt. eigenvalues --    0.78262   0.79413   0.79441   0.80485   0.82651

 Mulliken charges:
               1
     1  O   -0.514714
     2  H    0.260122
     3  H    0.254424
     4  O   -0.515252
     5  H    0.257578
     6  H    0.257842
 Sum of Mulliken charges =  -0.00000

 Dipole moment (field-independent basis, Debye):
    X=              0.7954    Y=             -2.9938    Z=              0.0000  Tot=              3.0977
 Quadrupole moment (field-independent basis, Debye-Ang):
   XX=             -9.3620   YY=             -6.8568   ZZ=            -14.7152
   XY=              6.9987   XZ=              0.0000   YZ=              0.0000

 Normal termination of Gaussian 16 at Sun Aug 28 02:19:13 2022.
