 Gaussian 16, Revision A.03,
 Gaussian 16:  ES64L-G16RevA.03 25-Dec-2016

 ------------------
 #p CCSD(T)/cc-pVTZ
 ------------------

 -----------
 H2O_H2O_630
 -----------
 Symbolic Z-matrix:
 Charge =  0 Multiplicity = 1

                         Standard orientation:
 ---------------------------------------------------------------------
 Center     Atomic      Atomic             Coordinates (Angstroms)
 Number     Number       Type             X           Y           Z
 ---------------------------------------------------------------------
      1          8           0        0.079883   -1.350411    0.000000
      2          1           0        0.079008   -0.367810    0.000000
      3          1           0       -0.849326   -1.669904    0.000000
      4          8           0        0.079883    1.191412    0.000000
      5          1           0        0.394902    2.122148    0.000000
      6          1           0       -0.902711    1.187558    0.000000
 ---------------------------------------------------------------------

 SCF Done:  E(RHF) =  -152.101815693     A.U. after   11 cycles
 E2 =    -0.5315324941D+00 EUMP2 =    -0.15263334818748D+03
 CCSD(T)
 CCSD(T)= -0.15265994858D+03

 The electronic state is 1-A'.
 Alpha  occ. eigenvalues --  -20.59712 -20.50902  -1.37941  -1.28915  -0.75940
 Alpha  occ. eigenvalues --   -0.68806  -0.59404  -0.54603  -0.51575  -0.45912
 Alpha virt. eigenvalues --    0.11291   0.16723   0.20337   0.32646   0.48331
 Alpha virt. eigenvalues --    0.53227   0.59069   0.62971   0.70531   0.71974
 Alpha virt. eigenvalues --    0.74103   0.78125   0.79386   0.83638   0.83716

 Mulliken charges:
               1
     1  O   -0.574494
     2  H    0.296939
     3  H    0.222151
     4  O   -0.417693
     5  H    0.235614
     6  H    0.237484
 Sum of Mulliken charges =  -0.00000

 Dipole moment (field-independent basis, Debye):
    X=             -2.5765    Y=              3.6626    Z=              0.0000  Tot=              4.4781
 Quadrupole moment (field-independent basis, Debye-Ang):
   XX=            -10.1292   YY=             -9.1987   ZZ=            -14.6701
   XY=              2.6628   XZ=              0.0000   YZ=              0.0000

 Normal termination of Gaussian 16 at Fri Aug 26 19:30:33 2022.
