 Gaussian 16, Revision A.03,
 Gaussian 16:  ES64L-G16RevA.03 25-Dec-2016

 ------------------
 #p CCSD(T)/cc-pVTZ
 ------------------

 -----------
 H2O_H2O_144
 -----------
 Symbolic Z-matrix:
 Charge =  0 Multiplicity = 1

                         Standard orientation:
 ---------------------------------------------------------------------
 Center     Atomic      Atomic             Coordinates (Angstroms)
 Number     Number       Type             X           Y           Z
 ---------------------------------------------------------------------
      1          8           0        0.030422    1.159924   -0.000000
      2          1           0        0.025454    0.177335   -0.000000
      3          1           0       -0.897448    1.483286   -0.000000
      4          8           0        0.030422   -0.984478    0.000000
      5          1           0        0.959269   -1.305025    0.000000
      6          1           0       -0.574034   -1.759165    0.000000
 ---------------------------------------------------------------------

 SCF Done:  E(RHF) =  -152.057313926     A.U. after   11 cycles
 E2 =    -0.5350614994D+00 EUMP2 =    -0.15259237542518D+03
 CCSD(T)
 CCSD(T)= -0.15261807016D+03

 The electronic state is 1-A'.
 Alpha  occ. eigenvalues --  -20.61635 -20.45079  -1.42581  -1.24975  -0.79491
 Alpha  occ. eigenvalues --   -0.75039  -0.57882  -0.55791  -0.45300  -0.41595
 Alpha virt. eigenvalues --    0.10636   0.16949   0.20776   0.33535   0.46838
 Alpha virt. eigenvalues --    0.52238   0.61302   0.68105   0.70362   0.71183
 Alpha virt. eigenvalues --    0.77466   0.78644   0.80620   0.83623   0.86313

 Mulliken charges:
               1
     1  O   -0.668015
     2  H    0.290858
     3  H    0.216671
     4  O   -0.337901
     5  H    0.262192
     6  H    0.236196
 Sum of Mulliken charges =  -0.00000

 Dipole moment (field-independent basis, Debye):
    X=             -0.9307    Y=             -4.8356    Z=              0.0000  Tot=              4.9243
 Quadrupole moment (field-independent basis, Debye-Ang):
   XX=             -9.1472   YY=            -10.0472   ZZ=            -14.5804
   XY=             -2.7768   XZ=             -0.0000   YZ=              0.0000

 Normal termination of Gaussian 16 at Fri Aug 26 16:10:10 2022.
