 Gaussian 16, Revision A.03,
 Gaussian 16:  ES64L-G16RevA.03 25-Dec-2016

 ------------------
 #p CCSD(T)/cc-pVTZ
 ------------------

 ------------
 H2O_H2O_3414
 ------------
 Symbolic Z-matrix:
 Charge =  0 Multiplicity = 1

                         Standard orientation:
 ---------------------------------------------------------------------
 Center     Atomic      Atomic             Coordinates (Angstroms)
 Number     Number       Type             X           Y           Z
 ---------------------------------------------------------------------
      1          8           0        0.048575    2.468918   -0.000000
      2          1           0        0.046992    1.486318   -0.000000
      3          1           0       -0.880403    2.789082   -0.000000
      4          8           0        0.048575   -2.288522    0.000000
      5          1           0        0.827161   -2.887947    0.000000
      6          1           0       -0.770954   -2.830627    0.000000
 ---------------------------------------------------------------------

 SCF Done:  E(RHF) =  -152.109292774     A.U. after   10 cycles
 E2 =    -0.5258707214D+00 EUMP2 =    -0.15263516349510D+03
 CCSD(T)
 CCSD(T)= -0.15266232687D+03

 The electronic state is 1-A'.
 Alpha  occ. eigenvalues --  -20.56474 -20.54617  -1.33762  -1.31932  -0.71164
 Alpha  occ. eigenvalues --   -0.69328  -0.57286  -0.55414  -0.50888  -0.49063
 Alpha virt. eigenvalues --    0.12717   0.15600   0.19545   0.21919   0.53381
 Alpha virt. eigenvalues --    0.55139   0.56460   0.58106   0.67179   0.69348
 Alpha virt. eigenvalues --    0.78018   0.79081   0.79413   0.79773   0.83078

 Mulliken charges:
               1
     1  O   -0.516946
     2  H    0.263167
     3  H    0.252243
     4  O   -0.515337
     5  H    0.259808
     6  H    0.257066
 Sum of Mulliken charges =  -0.00000

 Dipole moment (field-independent basis, Debye):
    X=             -1.6596    Y=             -3.2166    Z=              0.0000  Tot=              3.6195
 Quadrupole moment (field-independent basis, Debye-Ang):
   XX=             -9.1825   YY=             -6.9175   ZZ=            -14.7180
   XY=             -4.9018   XZ=              0.0000   YZ=             -0.0000

 CCSD(T)=-152.6623269\RMSD=6.981e-09\PG=CS [SG(H4O2)]\\@
 Normal termination of Gaussian 16 at Fri Aug 26 21:34:04 2022.
