 Gaussian 16, Revision A.03,
 Gaussian 16:  ES64L-G16RevA.03 25-Dec-2016

 ------------------
 #p CCSD(T)/cc-pVTZ
 ------------------

 ------------
 H2O_H2O_3150
 ------------
 Symbolic Z-matrix:
 Charge =  0 Multiplicity = 1

                         Standard orientation:
 ---------------------------------------------------------------------
 Center     Atomic      Atomic             Coordinates (Angstroms)
 Number     Number       Type             X           Y           Z
 ---------------------------------------------------------------------
      1          8           0        0.092949   -2.343335    0.000000
      2          1           0        0.092949   -1.360734    0.000000
      3          1           0       -0.836544   -2.662002    0.000000
      4          8           0        0.092949    2.210548    0.000000
      5          1           0        0.092949    3.193149    0.000000
      6          1           0       -0.836544    1.891881    0.000000
 ---------------------------------------------------------------------

 SCF Done:  E(RHF) =  -152.107971345     A.U. after   10 cycles
 E2 =    -0.5260413573D+00 EUMP2 =    -0.15263401270230D+03
 CCSD(T)
 CCSD(T)= -0.15266120326D+03

 The electronic state is 1-A'.
 Alpha  occ. eigenvalues --  -20.56587 -20.55185  -1.33883  -1.32486  -0.71315
 Alpha  occ. eigenvalues --   -0.69868  -0.57348  -0.55936  -0.50991  -0.49598
 Alpha virt. eigenvalues --    0.11554   0.15472   0.19253   0.23167   0.54131
 Alpha virt. eigenvalues --    0.54614   0.56456   0.58052   0.67623   0.68850
 Alpha virt. eigenvalues --    0.77908   0.78458   0.79280   0.81154   0.82551

 Mulliken charges:
               1
     1  O   -0.510157
     2  H    0.259465
     3  H    0.249699
     4  O   -0.508694
     5  H    0.259727
     6  H    0.249960
 Sum of Mulliken charges =  -0.00000

 Dipole moment (field-independent basis, Debye):
    X=             -3.1682    Y=              2.3735    Z=              0.0000  Tot=              3.9586
 Quadrupole moment (field-independent basis, Debye-Ang):
   XX=            -10.8563   YY=             -9.2259   ZZ=            -14.7125
   XY=              2.1500   XZ=              0.0000   YZ=              0.0000

 CCSD(T)=-152.6612033\RMSD=7.263e-09\PG=CS [SG(H4O2)]\\@
 Normal termination of Gaussian 16 at Fri Aug 26 20:05:11 2022.
