 Gaussian 16, Revision A.03,
 Gaussian 16:  ES64L-G16RevA.03 25-Dec-2016

 ------------------
 #p CCSD(T)/cc-pVTZ
 ------------------

 -----------
 H2O_H2O_986
 -----------
 Symbolic Z-matrix:
 Charge =  0 Multiplicity = 1

                         Standard orientation:
 ---------------------------------------------------------------------
 Center     Atomic      Atomic             Coordinates (Angstroms)
 Number     Number       Type             X           Y           Z
 ---------------------------------------------------------------------
      1          8           0        0.059709    1.499992   -0.000000
      2          1           0        0.057706    0.517392   -0.000000
      3          1           0       -0.869133    1.820552   -0.000000
      4          8           0        0.059709   -1.322638    0.000000
      5          1           0        0.706076   -2.062717    0.000000
      6          1           0       -0.849992   -1.694056    0.000000
 ---------------------------------------------------------------------

 SCF Done:  E(RHF) =  -152.112593819     A.U. after   10 cycles
 E2 =    -0.5288212938D+00 EUMP2 =    -0.15264141511257D+03
 CCSD(T)
 CCSD(T)= -0.15266825167D+03

 The electronic state is 1-A'.
 Alpha  occ. eigenvalues --  -20.58874 -20.51652  -1.36402  -1.29348  -0.73652
 Alpha  occ. eigenvalues --   -0.68191  -0.59685  -0.53438  -0.52353  -0.46445
 Alpha virt. eigenvalues --    0.11717   0.17588   0.19310   0.31908   0.48257
 Alpha virt. eigenvalues --    0.54602   0.58074   0.60001   0.69868   0.72272
 Alpha virt. eigenvalues --    0.72690   0.77163   0.82138   0.82648   0.84648

 Mulliken charges:
               1
     1  O   -0.564928
     2  H    0.298393
     3  H    0.236431
     4  O   -0.485023
     5  H    0.260389
     6  H    0.254737
 Sum of Mulliken charges =  -0.00000

 Dipole moment (field-independent basis, Debye):
    X=             -1.9656    Y=             -3.7452    Z=              0.0000  Tot=              4.2297
 Quadrupole moment (field-independent basis, Debye-Ang):
   XX=             -9.3748   YY=             -8.7829   ZZ=            -14.7217
   XY=             -3.2437   XZ=              0.0000   YZ=             -0.0000

 Normal termination of Gaussian 16 at Fri Aug 26 21:44:55 2022.
