 Gaussian 16, Revision A.03,
 Gaussian 16:  ES64L-G16RevA.03 25-Dec-2016

 ------------------
 #p CCSD(T)/cc-pVTZ
 ------------------

 ------------
 H2O_H2O_1686
 ------------
 Symbolic Z-matrix:
 Charge =  0 Multiplicity = 1

                         Standard orientation:
 ---------------------------------------------------------------------
 Center     Atomic      Atomic             Coordinates (Angstroms)
 Number     Number       Type             X           Y           Z
 ---------------------------------------------------------------------
      1          8           0        0.059679    1.779226    0.000000
      2          1           0        0.058007    0.796626    0.000000
      3          1           0       -0.869270    2.099474   -0.000000
      4          8           0        0.059679   -1.601832    0.000000
      5          1           0        0.706296   -2.341692    0.000000
      6          1           0       -0.849896   -1.973555   -0.000000
 ---------------------------------------------------------------------

 SCF Done:  E(RHF) =  -152.112903323     A.U. after   10 cycles
 E2 =    -0.5268562759D+00 EUMP2 =    -0.15263975959898D+03
 CCSD(T)
 CCSD(T)= -0.15266679232D+03

 The electronic state is 1-A'.
 Alpha  occ. eigenvalues --  -20.57708 -20.53359  -1.34974  -1.30753  -0.72352
 Alpha  occ. eigenvalues --   -0.68255  -0.58720  -0.54152  -0.52105  -0.47899
 Alpha virt. eigenvalues --    0.12035   0.17170   0.19184   0.27783   0.50307
 Alpha virt. eigenvalues --    0.55055   0.56337   0.58982   0.69241   0.72549
 Alpha virt. eigenvalues --    0.75076   0.77006   0.81121   0.83160   0.84431

 Mulliken charges:
               1
     1  O   -0.533247
     2  H    0.273410
     3  H    0.245172
     4  O   -0.505091
     5  H    0.263224
     6  H    0.256531
 Sum of Mulliken charges =  -0.00000

 Dipole moment (field-independent basis, Debye):
    X=             -2.0066    Y=             -3.4154    Z=             -0.0000  Tot=              3.9612
 Quadrupole moment (field-independent basis, Debye-Ang):
   XX=             -9.3758   YY=             -8.1529   ZZ=            -14.7316
   XY=             -3.5924   XZ=             -0.0000   YZ=             -0.0000

 Normal termination of Gaussian 16 at Sun Aug 28 00:40:46 2022.
