 Gaussian 16, Revision A.03,
 Gaussian 16:  ES64L-G16RevA.03 25-Dec-2016

 ------------------
 #p CCSD(T)/cc-pVTZ
 ------------------

 ------------
 H2O_H2O_3633
 ------------
 Symbolic Z-matrix:
 Charge =  0 Multiplicity = 1

                         Standard orientation:
 ---------------------------------------------------------------------
 Center     Atomic      Atomic             Coordinates (Angstroms)
 Number     Number       Type             X           Y           Z
 ---------------------------------------------------------------------
      1          8           0        0.070192    2.553154   -0.000000
      2          1           0        0.069410    1.570553   -0.000000
      3          1           0       -0.859047    2.872561    0.000000
      4          8           0        0.070192   -2.382899   -0.000000
      5          1           0        0.560816   -3.234248   -0.000000
      6          1           0       -0.894255   -2.570904    0.000000
 ---------------------------------------------------------------------

 SCF Done:  E(RHF) =  -152.108678080     A.U. after   10 cycles
 E2 =    -0.5258789772D+00 EUMP2 =    -0.15263455705767D+03
 CCSD(T)
 CCSD(T)= -0.15266173783D+03

 The electronic state is 1-A'.
 Alpha  occ. eigenvalues --  -20.56404 -20.54827  -1.33699  -1.32137  -0.71108
 Alpha  occ. eigenvalues --   -0.69530  -0.57197  -0.55608  -0.50818  -0.49260
 Alpha virt. eigenvalues --    0.12650   0.15357   0.19457   0.21699   0.53348
 Alpha virt. eigenvalues --    0.55056   0.56468   0.57999   0.66841   0.69213
 Alpha virt. eigenvalues --    0.78085   0.78805   0.79589   0.80249   0.82862

 Mulliken charges:
               1
     1  O   -0.513952
     2  H    0.261611
     3  H    0.251445
     4  O   -0.513929
     5  H    0.259776
     6  H    0.255048
 Sum of Mulliken charges =  -0.00000

 Dipole moment (field-independent basis, Debye):
    X=             -2.3999    Y=             -3.0215    Z=              0.0000  Tot=              3.8586
 Quadrupole moment (field-independent basis, Debye-Ang):
   XX=             -9.6818   YY=             -7.2480   ZZ=            -14.7157
   XY=             -3.9209   XZ=              0.0000   YZ=              0.0000

 Normal termination of Gaussian 16 at Fri Aug 26 22:47:47 2022.
