 Gaussian 16, Revision A.03,
 Gaussian 16:  ES64L-G16RevA.03 25-Dec-2016

 ------------------
 #p CCSD(T)/cc-pVTZ
 ------------------

 ------------
 H2O_H2O_1765
 ------------
 Symbolic Z-matrix:
 Charge =  0 Multiplicity = 1

                         Standard orientation:
 ---------------------------------------------------------------------
 Center     Atomic      Atomic             Coordinates (Angstroms)
 Number     Number       Type             X           Y           Z
 ---------------------------------------------------------------------
      1          8           0        0.044910    1.810749    0.000000
      2          1           0        0.042538    0.828150    0.000000
      3          1           0       -0.883810    2.131659    0.000000
      4          8           0        0.044910   -1.630401   -0.000000
      5          1           0        0.860593   -2.178276   -0.000000
      6          1           0       -0.737888   -2.224316   -0.000000
 ---------------------------------------------------------------------

 SCF Done:  E(RHF) =  -152.113157811     A.U. after   10 cycles
 E2 =    -0.5266839295D+00 EUMP2 =    -0.15263984174053D+03
 CCSD(T)
 CCSD(T)= -0.15266687779D+03

 The electronic state is 1-A'.
 Alpha  occ. eigenvalues --  -20.57613 -20.53355  -1.34869  -1.30745  -0.72235
 Alpha  occ. eigenvalues --   -0.68239  -0.58633  -0.54166  -0.52009  -0.47900
 Alpha virt. eigenvalues --    0.12159   0.17299   0.19065   0.27501   0.50893
 Alpha virt. eigenvalues --    0.54708   0.56319   0.59193   0.69055   0.72324
 Alpha virt. eigenvalues --    0.75396   0.77039   0.81079   0.83267   0.84610

 Mulliken charges:
               1
     1  O   -0.534715
     2  H    0.272394
     3  H    0.247988
     4  O   -0.507599
     5  H    0.263621
     6  H    0.258310
 Sum of Mulliken charges =  -0.00000

 Dipole moment (field-independent basis, Debye):
    X=             -1.5134    Y=             -3.4525    Z=             -0.0000  Tot=              3.7696
 Quadrupole moment (field-independent basis, Debye-Ang):
   XX=             -9.1612   YY=             -8.0481   ZZ=            -14.7327
   XY=             -3.9650   XZ=             -0.0000   YZ=              0.0000

 Normal termination of Gaussian 16 at Sun Aug 28 01:24:21 2022.
