 Gaussian 16, Revision A.03,
 Gaussian 16:  ES64L-G16RevA.03 25-Dec-2016

 ------------------
 #p CCSD(T)/cc-pVTZ
 ------------------

 ------------
 H2O_H2O_2891
 ------------
 Symbolic Z-matrix:
 Charge =  0 Multiplicity = 1

                         Standard orientation:
 ---------------------------------------------------------------------
 Center     Atomic      Atomic             Coordinates (Angstroms)
 Number     Number       Type             X           Y           Z
 ---------------------------------------------------------------------
      1          8           0        0.041148    2.259250   -0.000000
      2          1           0        0.039121    1.276650   -0.000000
      3          1           0       -0.887685    2.579833   -0.000000
      4          8           0        0.041148   -2.079332    0.000000
      5          1           0        0.891091   -2.572387    0.000000
      6          1           0       -0.700902   -2.723434    0.000000
 ---------------------------------------------------------------------

 SCF Done:  E(RHF) =  -152.110150827     A.U. after   10 cycles
 E2 =    -0.5259565380D+00 EUMP2 =    -0.15263610736487D+03
 CCSD(T)
 CCSD(T)= -0.15266324080D+03

 The electronic state is 1-A'.
 Alpha  occ. eigenvalues --  -20.56705 -20.54368  -1.33980  -1.31691  -0.71378
 Alpha  occ. eigenvalues --   -0.69087  -0.57537  -0.55181  -0.51111  -0.48830
 Alpha virt. eigenvalues --    0.12475   0.16064   0.19421   0.22979   0.53109
 Alpha virt. eigenvalues --    0.55534   0.56364   0.58667   0.68699   0.69334
 Alpha virt. eigenvalues --    0.77766   0.79094   0.79508   0.79997   0.83338

 Mulliken charges:
               1
     1  O   -0.520442
     2  H    0.264917
     3  H    0.251965
     4  O   -0.514011
     5  H    0.260147
     6  H    0.257424
 Sum of Mulliken charges =  -0.00000

 Dipole moment (field-independent basis, Debye):
    X=             -1.4023    Y=             -3.2520    Z=              0.0000  Tot=              3.5414
 Quadrupole moment (field-independent basis, Debye-Ang):
   XX=             -9.1492   YY=             -7.2694   ZZ=            -14.7207
   XY=             -4.8563   XZ=              0.0000   YZ=             -0.0000

 CCSD(T)=-152.6632408\RMSD=6.794e-09\PG=CS [SG(H4O2)]\\@
 Normal termination of Gaussian 16 at Fri Aug 26 18:07:34 2022.
