 Gaussian 16, Revision A.03,
 Gaussian 16:  ES64L-G16RevA.03 25-Dec-2016

 ------------------
 #p CCSD(T)/cc-pVTZ
 ------------------

 -----------
 H2O_H2O_408
 -----------
 Symbolic Z-matrix:
 Charge =  0 Multiplicity = 1

                         Standard orientation:
 ---------------------------------------------------------------------
 Center     Atomic      Atomic             Coordinates (Angstroms)
 Number     Number       Type             X           Y           Z
 ---------------------------------------------------------------------
      1          8           0        0.070266    1.266715    0.000000
      2          1           0        0.068632    0.284115    0.000000
      3          1           0       -0.858696    1.586926    0.000000
      4          8           0        0.070266   -1.096582   -0.000000
      5          1           0        0.560151   -1.948355   -0.000000
      6          1           0       -0.894344   -1.283751   -0.000000
 ---------------------------------------------------------------------

 SCF Done:  E(RHF) =  -152.091288595     A.U. after   11 cycles
 E2 =    -0.5331474328D+00 EUMP2 =    -0.15262443602769D+03
 CCSD(T)
 CCSD(T)= -0.15265068008D+03

 The electronic state is 1-A'.
 Alpha  occ. eigenvalues --  -20.60532 -20.48677  -1.39500  -1.27291  -0.76943
 Alpha  occ. eigenvalues --   -0.71192  -0.58043  -0.55828  -0.49272  -0.44179
 Alpha virt. eigenvalues --    0.11028   0.16768   0.20469   0.33074   0.48405
 Alpha virt. eigenvalues --    0.52984   0.60162   0.63776   0.72057   0.72284
 Alpha virt. eigenvalues --    0.74942   0.79096   0.79180   0.84048   0.84054

 Mulliken charges:
               1
     1  O   -0.606733
     2  H    0.301314
     3  H    0.215212
     4  O   -0.391926
     5  H    0.240373
     6  H    0.241760
 Sum of Mulliken charges =   0.00000

 Dipole moment (field-independent basis, Debye):
    X=             -2.2209    Y=             -4.1998    Z=             -0.0000  Tot=              4.7508
 Quadrupole moment (field-independent basis, Debye-Ang):
   XX=             -9.6845   YY=             -9.5031   ZZ=            -14.6418
   XY=             -2.7889   XZ=             -0.0000   YZ=              0.0000

 Normal termination of Gaussian 16 at Fri Aug 26 18:03:07 2022.
