 Gaussian 16, Revision A.03,
 Gaussian 16:  ES64L-G16RevA.03 25-Dec-2016

 ------------------
 #p CCSD(T)/cc-pVTZ
 ------------------

 ------------
 H2O_H2O_2391
 ------------
 Symbolic Z-matrix:
 Charge =  0 Multiplicity = 1

                         Standard orientation:
 ---------------------------------------------------------------------
 Center     Atomic      Atomic             Coordinates (Angstroms)
 Number     Number       Type             X           Y           Z
 ---------------------------------------------------------------------
      1          8           0        0.041167    2.059803    0.000000
      2          1           0        0.038935    1.077204    0.000000
      3          1           0       -0.887599    2.380580   -0.000000
      4          8           0        0.041167   -1.879902    0.000000
      5          1           0        0.891007   -2.373136    0.000000
      6          1           0       -0.701019   -2.523850   -0.000000
 ---------------------------------------------------------------------

 SCF Done:  E(RHF) =  -152.111272064     A.U. after   10 cycles
 E2 =    -0.5261370746D+00 EUMP2 =    -0.15263740913863D+03
 CCSD(T)
 CCSD(T)= -0.15266450620D+03

 The electronic state is 1-A'.
 Alpha  occ. eigenvalues --  -20.57022 -20.54032  -1.34280  -1.31370  -0.71672
 Alpha  occ. eigenvalues --   -0.68772  -0.57897  -0.54855  -0.51418  -0.48517
 Alpha virt. eigenvalues --    0.12330   0.16579   0.19281   0.24574   0.52544
 Alpha virt. eigenvalues --    0.55459   0.56409   0.58941   0.69048   0.71222
 Alpha virt. eigenvalues --    0.77197   0.78481   0.80335   0.81683   0.83658

 Mulliken charges:
               1
     1  O   -0.525050
     2  H    0.267111
     3  H    0.250837
     4  O   -0.510804
     5  H    0.260775
     6  H    0.257130
 Sum of Mulliken charges =  -0.00000

 Dipole moment (field-independent basis, Debye):
    X=             -1.3979    Y=             -3.3151    Z=             -0.0000  Tot=              3.5978
 Quadrupole moment (field-independent basis, Debye-Ang):
   XX=             -9.1500   YY=             -7.6003   ZZ=            -14.7244
   XY=             -4.4977   XZ=              0.0000   YZ=             -0.0000

 Normal termination of Gaussian 16 at Sun Aug 28 06:51:43 2022.
