 Gaussian 16, Revision A.03,
 Gaussian 16:  ES64L-G16RevA.03 25-Dec-2016

 ------------------
 #p CCSD(T)/cc-pVTZ
 ------------------

 ------------
 H2O_H2O_4341
 ------------
 Symbolic Z-matrix:
 Charge =  0 Multiplicity = 1

                         Standard orientation:
 ---------------------------------------------------------------------
 Center     Atomic      Atomic             Coordinates (Angstroms)
 Number     Number       Type             X           Y           Z
 ---------------------------------------------------------------------
      1          8           0        0.041109    2.837638    0.000000
      2          1           0        0.039509    1.855038    0.000000
      3          1           0       -0.887863    3.157818    0.000000
      4          8           0        0.041109   -2.657685    0.000000
      5          1           0        0.891266   -3.150372    0.000000
      6          1           0       -0.700661   -3.302110    0.000000
 ---------------------------------------------------------------------

 SCF Done:  E(RHF) =  -152.108548231     A.U. after   10 cycles
 E2 =    -0.5258061866D+00 EUMP2 =    -0.15263435441794D+03
 CCSD(T)
 CCSD(T)= -0.15266154770D+03

 The electronic state is 1-A'.
 Alpha  occ. eigenvalues --  -20.56214 -20.54903  -1.33514  -1.32212  -0.70918
 Alpha  occ. eigenvalues --   -0.69614  -0.57013  -0.55686  -0.50634  -0.49337
 Alpha virt. eigenvalues --    0.13288   0.15018   0.19681   0.21127   0.53624
 Alpha virt. eigenvalues --    0.54874   0.56647   0.57810   0.66755   0.68868
 Alpha virt. eigenvalues --    0.78254   0.79516   0.79610   0.79987   0.82766

 Mulliken charges:
               1
     1  O   -0.514512
     2  H    0.260830
     3  H    0.253480
     4  O   -0.515168
     5  H    0.258362
     6  H    0.257008
 Sum of Mulliken charges =  -0.00000

 Dipole moment (field-independent basis, Debye):
    X=             -1.4094    Y=             -3.1637    Z=              0.0000  Tot=              3.4634
 Quadrupole moment (field-independent basis, Debye-Ang):
   XX=             -9.1493   YY=             -6.3438   ZZ=            -14.7153
   XY=             -5.8936   XZ=              0.0000   YZ=              0.0000

 0157\MP4DQ=-152.6434722\MP4SDQ=-152.6465188\CCSD=-152.6459341\CCSD(T)=
 Normal termination of Gaussian 16 at Sun Aug 28 01:58:34 2022.
