 Gaussian 16, Revision A.03,
 Gaussian 16:  ES64L-G16RevA.03 25-Dec-2016

 ------------------
 #p CCSD(T)/cc-pVTZ
 ------------------

 ------------
 H2O_H2O_3749
 ------------
 Symbolic Z-matrix:
 Charge =  0 Multiplicity = 1

                         Standard orientation:
 ---------------------------------------------------------------------
 Center     Atomic      Atomic             Coordinates (Angstroms)
 Number     Number       Type             X           Y           Z
 ---------------------------------------------------------------------
      1          8           0       -0.013496    2.587083    0.000000
      2          1           0       -0.010808    1.604485    0.000000
      3          1           0        0.915122    2.908291    0.000000
      4          8           0       -0.013496   -2.427814    0.000000
      5          1           0       -0.996094   -2.430501    0.000000
      6          1           0        0.307713   -3.356432    0.000000
 ---------------------------------------------------------------------

 SCF Done:  E(RHF) =  -152.108877416     A.U. after   10 cycles
 E2 =    -0.5258246662D+00 EUMP2 =    -0.15263470208257D+03
 CCSD(T)
 CCSD(T)= -0.15266188341D+03

 The electronic state is 1-A'.
 Alpha  occ. eigenvalues --  -20.56347 -20.54929  -1.33646  -1.32240  -0.71054
 Alpha  occ. eigenvalues --   -0.69648  -0.57153  -0.55721  -0.50768  -0.49369
 Alpha virt. eigenvalues --    0.12625   0.15325   0.19199   0.22046   0.53213
 Alpha virt. eigenvalues --    0.55256   0.56590   0.57878   0.66751   0.69109
 Alpha virt. eigenvalues --    0.78129   0.78847   0.79480   0.80835   0.82801

 Mulliken charges:
               1
     1  O   -0.516175
     2  H    0.260472
     3  H    0.255066
     4  O   -0.515864
     5  H    0.257507
     6  H    0.258994
 Sum of Mulliken charges =  -0.00000

 Dipole moment (field-independent basis, Debye):
    X=              0.4648    Y=             -2.8183    Z=              0.0000  Tot=              2.8563
 Quadrupole moment (field-independent basis, Debye-Ang):
   XX=             -9.6478   YY=             -7.7308   ZZ=            -14.7163
   XY=              7.0028   XZ=              0.0000   YZ=              0.0000

 CCSD(T)=-152.6618834\RMSD=7.057e-09\PG=CS [SG(H4O2)]\\@
 Normal termination of Gaussian 16 at Fri Aug 26 23:27:40 2022.
