 Gaussian 16, Revision A.03,
 Gaussian 16:  ES64L-G16RevA.03 25-Dec-2016

 ------------------
 #p CCSD(T)/cc-pVTZ
 ------------------

 ------------
 H2O_H2O_3278
 ------------
 Symbolic Z-matrix:
 Charge =  0 Multiplicity = 1

                         Standard orientation:
 ---------------------------------------------------------------------
 Center     Atomic      Atomic             Coordinates (Angstroms)
 Number     Number       Type             X           Y           Z
 ---------------------------------------------------------------------
      1          8           0        0.085600   -2.402326    0.000000
      2          1           0        0.085332   -1.419725    0.000000
      3          1           0       -0.843806   -2.721246    0.000000
      4          8           0        0.085600    2.252728    0.000000
      5          1           0        0.277034    3.216501    0.000000
      6          1           0       -0.888165    2.121254    0.000000
 ---------------------------------------------------------------------

 SCF Done:  E(RHF) =  -152.108385557     A.U. after   10 cycles
 E2 =    -0.5259750027D+00 EUMP2 =    -0.15263436055965D+03
 CCSD(T)
 CCSD(T)= -0.15266154200D+03

 The electronic state is 1-A'.
 Alpha  occ. eigenvalues --  -20.56534 -20.54985  -1.33828  -1.32291  -0.71249
 Alpha  occ. eigenvalues --   -0.69677  -0.57309  -0.55751  -0.50941  -0.49409
 Alpha virt. eigenvalues --    0.11984   0.15483   0.19286   0.22503   0.53709
 Alpha virt. eigenvalues --    0.54937   0.56425   0.58153   0.67321   0.69099
 Alpha virt. eigenvalues --    0.77964   0.78574   0.79452   0.81007   0.82673

 Mulliken charges:
               1
     1  O   -0.511995
     2  H    0.260595
     3  H    0.250162
     4  O   -0.510893
     5  H    0.259809
     6  H    0.252323
 Sum of Mulliken charges =  -0.00000

 Dipole moment (field-independent basis, Debye):
    X=             -2.9207    Y=              2.6700    Z=              0.0000  Tot=              3.9572
 Quadrupole moment (field-independent basis, Debye-Ang):
   XX=            -10.4053   YY=             -8.3684   ZZ=            -14.7143
   XY=              2.8124   XZ=              0.0000   YZ=              0.0000

 CCSD(T)=-152.661542\RMSD=7.179e-09\PG=CS [SG(H4O2)]\\@
 Normal termination of Gaussian 16 at Fri Aug 26 20:47:32 2022.
