 Gaussian 16, Revision A.03,
 Gaussian 16:  ES64L-G16RevA.03 25-Dec-2016

 ------------------
 #p CCSD(T)/cc-pVTZ
 ------------------

 ------------
 H2O_H2O_4457
 ------------
 Symbolic Z-matrix:
 Charge =  0 Multiplicity = 1

                         Standard orientation:
 ---------------------------------------------------------------------
 Center     Atomic      Atomic             Coordinates (Angstroms)
 Number     Number       Type             X           Y           Z
 ---------------------------------------------------------------------
      1          8           0        0.073524    2.880439   -0.000000
      2          1           0        0.072935    1.897837   -0.000000
      3          1           0       -0.855778    3.199662   -0.000000
      4          8           0        0.073524   -2.713476    0.000000
      5          1           0        0.507590   -3.595005    0.000000
      6          1           0       -0.901131   -2.838192    0.000000
 ---------------------------------------------------------------------

 SCF Done:  E(RHF) =  -152.108132239     A.U. after   10 cycles
 E2 =    -0.5258370455D+00 EUMP2 =    -0.15263396928443D+03
 CCSD(T)
 CCSD(T)= -0.15266117205D+03

 The electronic state is 1-A'.
 Alpha  occ. eigenvalues --  -20.56203 -20.55057  -1.33505  -1.32362  -0.70914
 Alpha  occ. eigenvalues --   -0.69760  -0.56985  -0.55825  -0.50620  -0.49481
 Alpha virt. eigenvalues --    0.13188   0.14866   0.19494   0.21136   0.53467
 Alpha virt. eigenvalues --    0.54877   0.56613   0.57767   0.66845   0.68695
 Alpha virt. eigenvalues --    0.78269   0.79381   0.79448   0.80598   0.82504

 Mulliken charges:
               1
     1  O   -0.512143
     2  H    0.259633
     3  H    0.252387
     4  O   -0.513117
     5  H    0.258590
     6  H    0.254649
 Sum of Mulliken charges =  -0.00000

 Dipole moment (field-independent basis, Debye):
    X=             -2.5209    Y=             -2.9318    Z=              0.0000  Tot=              3.8666
 Quadrupole moment (field-independent basis, Debye-Ang):
   XX=             -9.8092   YY=             -7.0340   ZZ=            -14.7138
   XY=             -3.9416   XZ=              0.0000   YZ=             -0.0000

 Normal termination of Gaussian 16 at Sun Aug 28 03:05:35 2022.
