 Gaussian 16, Revision A.03,
 Gaussian 16:  ES64L-G16RevA.03 25-Dec-2016

 ------------------
 #p CCSD(T)/cc-pVTZ
 ------------------

 ------------
 H2O_H2O_1661
 ------------
 Symbolic Z-matrix:
 Charge =  0 Multiplicity = 1

                         Standard orientation:
 ---------------------------------------------------------------------
 Center     Atomic      Atomic             Coordinates (Angstroms)
 Number     Number       Type             X           Y           Z
 ---------------------------------------------------------------------
      1          8           0        0.059680    1.769253   -0.000000
      2          1           0        0.057998    0.786653   -0.000000
      3          1           0       -0.869266    2.089511   -0.000000
      4          8           0        0.059680   -1.591861    0.000000
      5          1           0        0.706288   -2.331728    0.000000
      6          1           0       -0.849900   -1.963574    0.000000
 ---------------------------------------------------------------------

 SCF Done:  E(RHF) =  -152.112973010     A.U. after   10 cycles
 E2 =    -0.5268965292D+00 EUMP2 =    -0.15263986953932D+03
 CCSD(T)
 CCSD(T)= -0.15266689884D+03

 The electronic state is 1-A'.
 Alpha  occ. eigenvalues --  -20.57739 -20.53320  -1.35007  -1.30720  -0.72384
 Alpha  occ. eigenvalues --   -0.68233  -0.58758  -0.54112  -0.52138  -0.47865
 Alpha virt. eigenvalues --    0.12027   0.17193   0.19181   0.27925   0.50214
 Alpha virt. eigenvalues --    0.55041   0.56347   0.59002   0.69268   0.72540
 Alpha virt. eigenvalues --    0.74974   0.76954   0.81162   0.83137   0.84460

 Mulliken charges:
               1
     1  O   -0.533869
     2  H    0.273905
     3  H    0.244984
     4  O   -0.504908
     5  H    0.263300
     6  H    0.256588
 Sum of Mulliken charges =  -0.00000

 Dipole moment (field-independent basis, Debye):
    X=             -2.0057    Y=             -3.4228    Z=              0.0000  Tot=              3.9672
 Quadrupole moment (field-independent basis, Debye-Ang):
   XX=             -9.3760   YY=             -8.1719   ZZ=            -14.7318
   XY=             -3.5804   XZ=              0.0000   YZ=             -0.0000

 Normal termination of Gaussian 16 at Sun Aug 28 00:24:49 2022.
