 Gaussian 16, Revision A.03,
 Gaussian 16:  ES64L-G16RevA.03 25-Dec-2016

 ------------------
 #p CCSD(T)/cc-pVTZ
 ------------------

 ------------
 H2O_H2O_2547
 ------------
 Symbolic Z-matrix:
 Charge =  0 Multiplicity = 1

                         Standard orientation:
 ---------------------------------------------------------------------
 Center     Atomic      Atomic             Coordinates (Angstroms)
 Number     Number       Type             X           Y           Z
 ---------------------------------------------------------------------
      1          8           0       -0.019888    2.112680    0.000000
      2          1           0       -0.016831    1.130084    0.000000
      3          1           0        0.908609    2.434237    0.000000
      4          8           0       -0.019888   -1.945590    0.000000
      5          1           0       -0.993680   -2.076875    0.000000
      6          1           0        0.420111   -2.824172    0.000000
 ---------------------------------------------------------------------

 SCF Done:  E(RHF) =  -152.110712454     A.U. after   10 cycles
 E2 =    -0.5260568462D+00 EUMP2 =    -0.15263676930017D+03
 CCSD(T)
 CCSD(T)= -0.15266388414D+03

 The electronic state is 1-A'.
 Alpha  occ. eigenvalues --  -20.56881 -20.54335  -1.34156  -1.31664  -0.71563
 Alpha  occ. eigenvalues --   -0.69072  -0.57739  -0.55154  -0.51288  -0.48809
 Alpha virt. eigenvalues --    0.12255   0.16353   0.19270   0.24188   0.53644
 Alpha virt. eigenvalues --    0.55497   0.56294   0.58550   0.68840   0.70511
 Alpha virt. eigenvalues --    0.77433   0.79157   0.80047   0.80908   0.83574

 Mulliken charges:
               1
     1  O   -0.524108
     2  H    0.265122
     3  H    0.253874
     4  O   -0.512669
     5  H    0.259654
     6  H    0.258126
 Sum of Mulliken charges =  -0.00000

 Dipole moment (field-independent basis, Debye):
    X=              0.6805    Y=             -3.0527    Z=              0.0000  Tot=              3.1276
 Quadrupole moment (field-independent basis, Debye-Ang):
   XX=             -9.4472   YY=             -7.8822   ZZ=            -14.7223
   XY=              5.3886   XZ=              0.0000   YZ=              0.0000

 CCSD(T)=-152.6638841\RMSD=6.649e-09\PG=CS [SG(H4O2)]\\@
 Normal termination of Gaussian 16 at Fri Aug 26 15:31:35 2022.
