 Gaussian 16, Revision A.03,
 Gaussian 16:  ES64L-G16RevA.03 25-Dec-2016

 ------------------
 #p CCSD(T)/cc-pVTZ
 ------------------

 ------------
 H2O_H2O_1295
 ------------
 Symbolic Z-matrix:
 Charge =  0 Multiplicity = 1

                         Standard orientation:
 ---------------------------------------------------------------------
 Center     Atomic      Atomic             Coordinates (Angstroms)
 Number     Number       Type             X           Y           Z
 ---------------------------------------------------------------------
      1          8           0        0.026762    1.617384   -0.000000
      2          1           0        0.023086    0.634789   -0.000000
      3          1           0       -0.901533    1.939525   -0.000000
      4          8           0        0.026762   -1.444223    0.000000
      5          1           0        0.974923   -1.702088    0.000000
      6          1           0       -0.524664   -2.257511    0.000000
 ---------------------------------------------------------------------

 SCF Done:  E(RHF) =  -152.113982131     A.U. after   10 cycles
 E2 =    -0.5275778536D+00 EUMP2 =    -0.15264155998422D+03
 CCSD(T)
 CCSD(T)= -0.15266851461D+03

 The electronic state is 1-A'.
 Alpha  occ. eigenvalues --  -20.58231 -20.52593  -1.35591  -1.30108  -0.72975
 Alpha  occ. eigenvalues --   -0.67951  -0.59414  -0.53345  -0.52696  -0.47255
 Alpha virt. eigenvalues --    0.12076   0.17990   0.18847   0.30262   0.49784
 Alpha virt. eigenvalues --    0.54474   0.55833   0.61258   0.68655   0.72946
 Alpha virt. eigenvalues --    0.73485   0.77049   0.81878   0.82664   0.84568

 Mulliken charges:
               1
     1  O   -0.553387
     2  H    0.282789
     3  H    0.249033
     4  O   -0.497754
     5  H    0.264967
     6  H    0.254352
 Sum of Mulliken charges =  -0.00000

 Dipole moment (field-independent basis, Debye):
    X=             -0.8982    Y=             -3.4843    Z=              0.0000  Tot=              3.5982
 Quadrupole moment (field-independent basis, Debye-Ang):
   XX=             -9.2856   YY=             -8.5205   ZZ=            -14.7322
   XY=             -3.9529   XZ=              0.0000   YZ=             -0.0000

 Normal termination of Gaussian 16 at Fri Aug 26 23:40:00 2022.
