 Gaussian 16, Revision A.03,
 Gaussian 16:  ES64L-G16RevA.03 25-Dec-2016

 ------------------
 #p CCSD(T)/cc-pVTZ
 ------------------

 -----------
 H2O_H2O_406
 -----------
 Symbolic Z-matrix:
 Charge =  0 Multiplicity = 1

                         Standard orientation:
 ---------------------------------------------------------------------
 Center     Atomic      Atomic             Coordinates (Angstroms)
 Number     Number       Type             X           Y           Z
 ---------------------------------------------------------------------
      1          8           0        0.076804   -1.262904    0.000000
      2          1           0        0.075641   -0.280303    0.000000
      3          1           0       -0.852311   -1.582670    0.000000
      4          8           0        0.076804    1.099783    0.000000
      5          1           0        0.451756    2.008033    0.000000
      6          1           0       -0.903956    1.159914    0.000000
 ---------------------------------------------------------------------

 SCF Done:  E(RHF) =  -152.089367352     A.U. after   11 cycles
 E2 =    -0.5334921617D+00 EUMP2 =    -0.15262285951366D+03
 CCSD(T)
 CCSD(T)= -0.15264912262D+03

 The electronic state is 1-A'.
 Alpha  occ. eigenvalues --  -20.60491 -20.49102  -1.39551  -1.27635  -0.77540
 Alpha  occ. eigenvalues --   -0.70462  -0.58261  -0.55792  -0.49733  -0.44534
 Alpha virt. eigenvalues --    0.11024   0.16592   0.20631   0.32884   0.48674
 Alpha virt. eigenvalues --    0.52727   0.59610   0.64244   0.71963   0.72531
 Alpha virt. eigenvalues --    0.74735   0.78353   0.79176   0.83910   0.84567

 Mulliken charges:
               1
     1  O   -0.598138
     2  H    0.295384
     3  H    0.213288
     4  O   -0.382765
     5  H    0.234388
     6  H    0.237843
 Sum of Mulliken charges =   0.00000

 Dipole moment (field-independent basis, Debye):
    X=             -2.4314    Y=              4.0399    Z=              0.0000  Tot=              4.7151
 Quadrupole moment (field-independent basis, Debye-Ang):
   XX=             -9.9614   YY=             -9.4764   ZZ=            -14.6338
   XY=              2.6612   XZ=              0.0000   YZ=              0.0000

 Normal termination of Gaussian 16 at Fri Aug 26 18:01:28 2022.
