 Gaussian 16, Revision A.03,
 Gaussian 16:  ES64L-G16RevA.03 25-Dec-2016

 ------------------
 #p CCSD(T)/cc-pVTZ
 ------------------

 ------------
 H2O_H2O_4660
 ------------
 Symbolic Z-matrix:
 Charge =  0 Multiplicity = 1

                         Standard orientation:
 ---------------------------------------------------------------------
 Center     Atomic      Atomic             Coordinates (Angstroms)
 Number     Number       Type             X           Y           Z
 ---------------------------------------------------------------------
      1          8           0        0.063215    2.964873    0.000000
      2          1           0        0.062338    1.982272    0.000000
      3          1           0       -0.865993    3.284368    0.000000
      4          8           0        0.063215   -2.789334   -0.000000
      5          1           0        0.660689   -3.569419   -0.000000
      6          1           0       -0.868473   -3.101527   -0.000000
 ---------------------------------------------------------------------

 SCF Done:  E(RHF) =  -152.108207999     A.U. after   10 cycles
 E2 =    -0.5258209099D+00 EUMP2 =    -0.15263402890842D+03
 CCSD(T)
 CCSD(T)= -0.15266123114D+03

 The electronic state is 1-A'.
 Alpha  occ. eigenvalues --  -20.56163 -20.55021  -1.33465  -1.32327  -0.70871
 Alpha  occ. eigenvalues --   -0.69727  -0.56949  -0.55793  -0.50582  -0.49447
 Alpha virt. eigenvalues --    0.13388   0.14827   0.19655   0.20982   0.53629
 Alpha virt. eigenvalues --    0.54831   0.56666   0.57763   0.66934   0.68629
 Alpha virt. eigenvalues --    0.78304   0.79413   0.79625   0.80436   0.82464

 Mulliken charges:
               1
     1  O   -0.512736
     2  H    0.259809
     3  H    0.252849
     4  O   -0.513580
     5  H    0.258255
     6  H    0.255403
 Sum of Mulliken charges =  -0.00000

 Dipole moment (field-independent basis, Debye):
    X=             -2.1686    Y=             -3.0774    Z=             -0.0000  Tot=              3.7648
 Quadrupole moment (field-independent basis, Debye-Ang):
   XX=             -9.4536   YY=             -6.4072   ZZ=            -14.7141
   XY=             -4.7331   XZ=             -0.0000   YZ=              0.0000

 Normal termination of Gaussian 16 at Sun Aug 28 04:42:38 2022.
