 Gaussian 16, Revision A.03,
 Gaussian 16:  ES64L-G16RevA.03 25-Dec-2016

 ------------------
 #p CCSD(T)/cc-pVTZ
 ------------------

 ------------
 H2O_H2O_3245
 ------------
 Symbolic Z-matrix:
 Charge =  0 Multiplicity = 1

                         Standard orientation:
 ---------------------------------------------------------------------
 Center     Atomic      Atomic             Coordinates (Angstroms)
 Number     Number       Type             X           Y           Z
 ---------------------------------------------------------------------
      1          8           0        0.026652    2.395225    0.000000
      2          1           0        0.024215    1.412626    0.000000
      3          1           0       -0.902047    2.716196   -0.000000
      4          8           0        0.026652   -2.221997    0.000000
      5          1           0        0.975139   -2.478666    0.000000
      6          1           0       -0.523747   -3.035979   -0.000000
 ---------------------------------------------------------------------

 SCF Done:  E(RHF) =  -152.109575604     A.U. after   10 cycles
 E2 =    -0.5258775414D+00 EUMP2 =    -0.15263545314579D+03
 CCSD(T)
 CCSD(T)= -0.15266260818D+03

 The electronic state is 1-A'.
 Alpha  occ. eigenvalues --  -20.56528 -20.54612  -1.33816  -1.31930  -0.71218
 Alpha  occ. eigenvalues --   -0.69332  -0.57349  -0.55418  -0.50943  -0.49064
 Alpha virt. eigenvalues --    0.12545   0.15739   0.19404   0.22364   0.53383
 Alpha virt. eigenvalues --    0.55392   0.56482   0.58174   0.67511   0.69346
 Alpha virt. eigenvalues --    0.77960   0.78792   0.79769   0.80036   0.83098

 Mulliken charges:
               1
     1  O   -0.518666
     2  H    0.263012
     3  H    0.253728
     4  O   -0.515724
     5  H    0.259174
     6  H    0.258475
 Sum of Mulliken charges =  -0.00000

 Dipole moment (field-independent basis, Debye):
    X=             -0.9114    Y=             -3.0986    Z=             -0.0000  Tot=              3.2298
 Quadrupole moment (field-independent basis, Debye-Ang):
   XX=             -9.2883   YY=             -7.3063   ZZ=            -14.7189
   XY=             -5.7492   XZ=              0.0000   YZ=             -0.0000

 Normal termination of Gaussian 16 at Fri Aug 26 20:36:33 2022.
