 Gaussian 16, Revision A.03,
 Gaussian 16:  ES64L-G16RevA.03 25-Dec-2016

 ------------------
 #p CCSD(T)/cc-pVTZ
 ------------------

 ------------
 H2O_H2O_4034
 ------------
 Symbolic Z-matrix:
 Charge =  0 Multiplicity = 1

                         Standard orientation:
 ---------------------------------------------------------------------
 Center     Atomic      Atomic             Coordinates (Angstroms)
 Number     Number       Type             X           Y           Z
 ---------------------------------------------------------------------
      1          8           0        0.066748    2.714263    0.000000
      2          1           0        0.065902    1.731662    0.000000
      3          1           0       -0.862470    3.033729    0.000000
      4          8           0        0.066748   -2.541140    0.000000
      5          1           0        0.611949   -3.358613    0.000000
      6          1           0       -0.883355   -2.791759    0.000000
 ---------------------------------------------------------------------

 SCF Done:  E(RHF) =  -152.108464606     A.U. after   10 cycles
 E2 =    -0.5258418797D+00 EUMP2 =    -0.15263430648556D+03
 CCSD(T)
 CCSD(T)= -0.15266149807D+03

 The electronic state is 1-A'.
 Alpha  occ. eigenvalues --  -20.56291 -20.54906  -1.33589  -1.32214  -0.70996
 Alpha  occ. eigenvalues --   -0.69610  -0.57082  -0.55683  -0.50707  -0.49336
 Alpha virt. eigenvalues --    0.12988   0.15120   0.19535   0.21327   0.53420
 Alpha virt. eigenvalues --    0.54954   0.56558   0.57845   0.66691   0.69018
 Alpha virt. eigenvalues --    0.78187   0.79142   0.79517   0.80236   0.82783

 Mulliken charges:
               1
     1  O   -0.513499
     2  H    0.260966
     3  H    0.252142
     4  O   -0.514249
     5  H    0.259257
     6  H    0.255384
 Sum of Mulliken charges =  -0.00000

 Dipole moment (field-independent basis, Debye):
    X=             -2.2857    Y=             -3.0542    Z=              0.0000  Tot=              3.8148
 Quadrupole moment (field-independent basis, Debye-Ang):
   XX=             -9.5610   YY=             -6.8968   ZZ=            -14.7149
   XY=             -4.2639   XZ=             -0.0000   YZ=              0.0000

 CCSD(T)=-152.6614981\RMSD=7.152e-09\PG=CS [SG(H4O2)]\\@
 Normal termination of Gaussian 16 at Sat Aug 27 01:07:54 2022.
