 Gaussian 16, Revision A.03,
 Gaussian 16:  ES64L-G16RevA.03 25-Dec-2016

 ------------------
 #p CCSD(T)/cc-pVTZ
 ------------------

 -----------
 H2O_H2O_107
 -----------
 Symbolic Z-matrix:
 Charge =  0 Multiplicity = 1

                         Standard orientation:
 ---------------------------------------------------------------------
 Center     Atomic      Atomic             Coordinates (Angstroms)
 Number     Number       Type             X           Y           Z
 ---------------------------------------------------------------------
      1          8           0        0.073606   -1.145251    0.000000
      2          1           0        0.072054   -0.162651    0.000000
      3          1           0       -0.855383   -1.465385    0.000000
      4          8           0        0.073606    0.978433    0.000000
      5          1           0        0.506808    1.860387    0.000000
      6          1           0       -0.901171    1.102194    0.000000
 ---------------------------------------------------------------------

 SCF Done:  E(RHF) =  -152.047841073     A.U. after   11 cycles
 E2 =    -0.5367074751D+00 EUMP2 =    -0.15258454854801D+03
 CCSD(T)
 CCSD(T)= -0.15261018909D+03

 The electronic state is 1-A'.
 Alpha  occ. eigenvalues --  -20.61767 -20.45782  -1.43201  -1.25516  -0.81106
 Alpha  occ. eigenvalues --   -0.74057  -0.58101  -0.55496  -0.46204  -0.42156
 Alpha virt. eigenvalues --    0.10474   0.16059   0.21374   0.32225   0.49104
 Alpha virt. eigenvalues --    0.51748   0.60281   0.64489   0.71008   0.71952
 Alpha virt. eigenvalues --    0.77238   0.79027   0.81350   0.84662   0.87203

 Mulliken charges:
               1
     1  O   -0.637754
     2  H    0.280658
     3  H    0.195585
     4  O   -0.312098
     5  H    0.232970
     6  H    0.240638
 Sum of Mulliken charges =  -0.00000

 Dipole moment (field-independent basis, Debye):
    X=             -2.2490    Y=              4.6471    Z=              0.0000  Tot=              5.1627
 Quadrupole moment (field-independent basis, Debye-Ang):
   XX=             -9.7796   YY=             -9.9963   ZZ=            -14.5519
   XY=              2.5647   XZ=              0.0000   YZ=              0.0000

 Normal termination of Gaussian 16 at Fri Aug 26 15:54:25 2022.
