 Gaussian 16, Revision A.03,
 Gaussian 16:  ES64L-G16RevA.03 25-Dec-2016

 ------------------
 #p CCSD(T)/cc-pVTZ
 ------------------

 ------------
 H2O_H2O_2337
 ------------
 Symbolic Z-matrix:
 Charge =  0 Multiplicity = 1

                         Standard orientation:
 ---------------------------------------------------------------------
 Center     Atomic      Atomic             Coordinates (Angstroms)
 Number     Number       Type             X           Y           Z
 ---------------------------------------------------------------------
      1          8           0        0.056010    2.039304   -0.000000
      2          1           0        0.054401    1.056704   -0.000000
      3          1           0       -0.872960    2.359492   -0.000000
      4          8           0        0.056010   -1.860421    0.000000
      5          1           0        0.749676   -2.556361    0.000000
      6          1           0       -0.827278   -2.290894    0.000000
 ---------------------------------------------------------------------

 SCF Done:  E(RHF) =  -152.111147050     A.U. after   10 cycles
 E2 =    -0.5261995549D+00 EUMP2 =    -0.15263734660467D+03
 CCSD(T)
 CCSD(T)= -0.15266444340D+03

 The electronic state is 1-A'.
 Alpha  occ. eigenvalues --  -20.57069 -20.54035  -1.34327  -1.31372  -0.71723
 Alpha  occ. eigenvalues --   -0.68767  -0.57938  -0.54849  -0.51462  -0.48516
 Alpha virt. eigenvalues --    0.12247   0.16560   0.19303   0.24698   0.52395
 Alpha virt. eigenvalues --    0.55574   0.56201   0.58980   0.68973   0.71381
 Alpha virt. eigenvalues --    0.77098   0.78405   0.80349   0.82068   0.83607

 Mulliken charges:
               1
     1  O   -0.523779
     2  H    0.267306
     3  H    0.249017
     4  O   -0.509230
     5  H    0.260680
     6  H    0.256006
 Sum of Mulliken charges =  -0.00000

 Dipole moment (field-independent basis, Debye):
    X=             -1.9000    Y=             -3.3040    Z=              0.0000  Tot=              3.8113
 Quadrupole moment (field-independent basis, Debye-Ang):
   XX=             -9.2908   YY=             -7.6644   ZZ=            -14.7240
   XY=             -4.0151   XZ=              0.0000   YZ=             -0.0000

 Normal termination of Gaussian 16 at Sun Aug 28 06:24:35 2022.
