 Gaussian 16, Revision A.03,
 Gaussian 16:  ES64L-G16RevA.03 25-Dec-2016

 ------------------
 #p CCSD(T)/cc-pVTZ
 ------------------

 ------------
 H2O_H2O_3746
 ------------
 Symbolic Z-matrix:
 Charge =  0 Multiplicity = 1

                         Standard orientation:
 ---------------------------------------------------------------------
 Center     Atomic      Atomic             Coordinates (Angstroms)
 Number     Number       Type             X           Y           Z
 ---------------------------------------------------------------------
      1          8           0       -0.023187    2.593126    0.000000
      2          1           0       -0.020827    1.610528    0.000000
      3          1           0        0.905538    2.914024    0.000000
      4          8           0       -0.023187   -2.422728    0.000000
      5          1           0       -0.986445   -2.616737    0.000000
      6          1           0        0.472730   -3.271003    0.000000
 ---------------------------------------------------------------------

 SCF Done:  E(RHF) =  -152.108988578     A.U. after   10 cycles
 E2 =    -0.5258234241D+00 EUMP2 =    -0.15263481200196D+03
 CCSD(T)
 CCSD(T)= -0.15266198956D+03

 The electronic state is 1-A'.
 Alpha  occ. eigenvalues --  -20.56352 -20.54820  -1.33649  -1.32132  -0.71053
 Alpha  occ. eigenvalues --   -0.69536  -0.57162  -0.55614  -0.50772  -0.49261
 Alpha virt. eigenvalues --    0.12802   0.15355   0.19421   0.21747   0.53316
 Alpha virt. eigenvalues --    0.55166   0.56576   0.57892   0.66759   0.69181
 Alpha virt. eigenvalues --    0.78125   0.78886   0.79583   0.80333   0.82894

 Mulliken charges:
               1
     1  O   -0.516466
     2  H    0.261448
     3  H    0.254283
     4  O   -0.516142
     5  H    0.258350
     6  H    0.258528
 Sum of Mulliken charges =  -0.00000

 Dipole moment (field-independent basis, Debye):
    X=              0.7948    Y=             -3.0174    Z=              0.0000  Tot=              3.1204
 Quadrupole moment (field-independent basis, Debye-Ang):
   XX=             -9.3614   YY=             -7.1723   ZZ=            -14.7168
   XY=              6.3988   XZ=              0.0000   YZ=              0.0000

 Normal termination of Gaussian 16 at Fri Aug 26 23:26:40 2022.
