 Gaussian 16, Revision A.03,
 Gaussian 16:  ES64L-G16RevA.03 25-Dec-2016

 ------------------
 #p CCSD(T)/cc-pVTZ
 ------------------

 ------------
 H2O_H2O_4987
 ------------
 Symbolic Z-matrix:
 Charge =  0 Multiplicity = 1

                         Standard orientation:
 ---------------------------------------------------------------------
 Center     Atomic      Atomic             Coordinates (Angstroms)
 Number     Number       Type             X           Y           Z
 ---------------------------------------------------------------------
      1          8           0        0.055959    3.096360    0.000000
      2          1           0        0.054915    2.113759    0.000000
      3          1           0       -0.873196    3.416013    0.000000
      4          8           0        0.055959   -2.917413    0.000000
      5          1           0        0.750025   -3.612954    0.000000
      6          1           0       -0.827081   -3.348395    0.000000
 ---------------------------------------------------------------------

 SCF Done:  E(RHF) =  -152.108163742     A.U. after   10 cycles
 E2 =    -0.5258140373D+00 EUMP2 =    -0.15263397777914D+03
 CCSD(T)
 CCSD(T)= -0.15266118209D+03

 The electronic state is 1-A'.
 Alpha  occ. eigenvalues --  -20.56112 -20.55052  -1.33414  -1.32358  -0.70819
 Alpha  occ. eigenvalues --   -0.69759  -0.56896  -0.55823  -0.50531  -0.49478
 Alpha virt. eigenvalues --    0.13537   0.14738   0.19732   0.20870   0.53724
 Alpha virt. eigenvalues --    0.54789   0.56716   0.57745   0.67091   0.68480
 Alpha virt. eigenvalues --    0.78352   0.79384   0.79753   0.80557   0.82149

 Mulliken charges:
               1
     1  O   -0.512688
     2  H    0.259379
     3  H    0.253279
     4  O   -0.513366
     5  H    0.257731
     6  H    0.255666
 Sum of Mulliken charges =  -0.00000

 Dipole moment (field-independent basis, Debye):
    X=             -1.9212    Y=             -3.1302    Z=              0.0000  Tot=              3.6727
 Quadrupole moment (field-independent basis, Debye-Ang):
   XX=             -9.2849   YY=             -5.9930   ZZ=            -14.7140
   XY=             -5.3720   XZ=              0.0000   YZ=              0.0000

 Normal termination of Gaussian 16 at Sun Aug 28 07:28:47 2022.
