 Gaussian 16, Revision A.03,
 Gaussian 16:  ES64L-G16RevA.03 25-Dec-2016

 ------------------
 #p CCSD(T)/cc-pVTZ
 ------------------

 ----------
 H2O_H2O_38
 ----------
 Symbolic Z-matrix:
 Charge =  0 Multiplicity = 1

                         Standard orientation:
 ---------------------------------------------------------------------
 Center     Atomic      Atomic             Coordinates (Angstroms)
 Number     Number       Type             X           Y           Z
 ---------------------------------------------------------------------
      1          8           0        0.052465    1.122339   -0.000000
      2          1           0        0.049123    0.139743   -0.000000
      3          1           0       -0.875939    1.444165   -0.000000
      4          8           0        0.052465   -0.942642    0.000000
      5          1           0        0.789017   -1.593025    0.000000
      6          1           0       -0.801636   -1.428459    0.000000
 ---------------------------------------------------------------------

 SCF Done:  E(RHF) =  -152.034337678     A.U. after   11 cycles
 E2 =    -0.5361081800D+00 EUMP2 =    -0.15257044585838D+03
 CCSD(T)
 CCSD(T)= -0.15259594498D+03

 The electronic state is 1-A'.
 Alpha  occ. eigenvalues --  -20.62214 -20.43719  -1.44288  -1.24235  -0.79994
 Alpha  occ. eigenvalues --   -0.78087  -0.58937  -0.54205  -0.43888  -0.40648
 Alpha virt. eigenvalues --    0.10238   0.16210   0.21361   0.32667   0.47249
 Alpha virt. eigenvalues --    0.51758   0.63319   0.63777   0.70365   0.70900
 Alpha virt. eigenvalues --    0.79046   0.79273   0.81721   0.82498   0.89131

 Mulliken charges:
               1
     1  O   -0.675798
     2  H    0.282354
     3  H    0.197547
     4  O   -0.294740
     5  H    0.247742
     6  H    0.242895
 Sum of Mulliken charges =  -0.00000

 Dipole moment (field-independent basis, Debye):
    X=             -1.5746    Y=             -5.1366    Z=              0.0000  Tot=              5.3725
 Quadrupole moment (field-independent basis, Debye-Ang):
   XX=             -9.1742   YY=            -10.2942   ZZ=            -14.5450
   XY=             -2.6386   XZ=              0.0000   YZ=             -0.0000

 Normal termination of Gaussian 16 at Fri Aug 26 15:26:45 2022.
