 Gaussian 16, Revision A.03,
 Gaussian 16:  ES64L-G16RevA.03 25-Dec-2016

 ------------------
 #p CCSD(T)/cc-pVTZ
 ------------------

 ------------
 H2O_H2O_2909
 ------------
 Symbolic Z-matrix:
 Charge =  0 Multiplicity = 1

                         Standard orientation:
 ---------------------------------------------------------------------
 Center     Atomic      Atomic             Coordinates (Angstroms)
 Number     Number       Type             X           Y           Z
 ---------------------------------------------------------------------
      1          8           0        0.066764    2.265514   -0.000000
      2          1           0        0.065743    1.282913   -0.000000
      3          1           0       -0.862398    2.585145   -0.000000
      4          8           0        0.066764   -2.092415    0.000000
      5          1           0        0.611820   -2.909984    0.000000
      6          1           0       -0.883383   -2.342866    0.000000
 ---------------------------------------------------------------------

 SCF Done:  E(RHF) =  -152.109616751     A.U. after   10 cycles
 E2 =    -0.5260008142D+00 EUMP2 =    -0.15263561756506D+03
 CCSD(T)
 CCSD(T)= -0.15266276147D+03

 The electronic state is 1-A'.
 Alpha  occ. eigenvalues --  -20.56702 -20.54510  -1.33980  -1.31828  -0.71388
 Alpha  occ. eigenvalues --   -0.69214  -0.57511  -0.55306  -0.51106  -0.48959
 Alpha virt. eigenvalues --    0.12300   0.15931   0.19434   0.22852   0.53418
 Alpha virt. eigenvalues --    0.55381   0.56257   0.58638   0.68449   0.69348
 Alpha virt. eigenvalues --    0.77775   0.79000   0.79874   0.79880   0.83159

 Mulliken charges:
               1
     1  O   -0.517378
     2  H    0.264179
     3  H    0.250018
     4  O   -0.512086
     5  H    0.260104
     6  H    0.255164
 Sum of Mulliken charges =  -0.00000

 Dipole moment (field-independent basis, Debye):
    X=             -2.2742    Y=             -3.1250    Z=              0.0000  Tot=              3.8649
 Quadrupole moment (field-independent basis, Debye-Ang):
   XX=             -9.5661   YY=             -7.5015   ZZ=            -14.7188
   XY=             -3.8542   XZ=              0.0000   YZ=             -0.0000

 Normal termination of Gaussian 16 at Fri Aug 26 18:16:40 2022.
