 Gaussian 16, Revision A.03,
 Gaussian 16:  ES64L-G16RevA.03 25-Dec-2016

 ------------------
 #p CCSD(T)/cc-pVTZ
 ------------------

 ------------
 H2O_H2O_1239
 ------------
 Symbolic Z-matrix:
 Charge =  0 Multiplicity = 1

                         Standard orientation:
 ---------------------------------------------------------------------
 Center     Atomic      Atomic             Coordinates (Angstroms)
 Number     Number       Type             X           Y           Z
 ---------------------------------------------------------------------
      1          8           0        0.048659    1.601317    0.000000
      2          1           0        0.046167    0.618719    0.000000
      3          1           0       -0.880023    1.922340    0.000000
      4          8           0        0.048659   -1.421010   -0.000000
      5          1           0        0.826690   -2.021155   -0.000000
      6          1           0       -0.771372   -1.962357   -0.000000
 ---------------------------------------------------------------------

 SCF Done:  E(RHF) =  -152.114130652     A.U. after   10 cycles
 E2 =    -0.5278024218D+00 EUMP2 =    -0.15264193307334D+03
 CCSD(T)
 CCSD(T)= -0.15266886828D+03

 The electronic state is 1-A'.
 Alpha  occ. eigenvalues --  -20.58378 -20.52311  -1.35735  -1.29855  -0.73017
 Alpha  occ. eigenvalues --   -0.67913  -0.59483  -0.53061  -0.52842  -0.46991
 Alpha virt. eigenvalues --    0.11943   0.17848   0.18944   0.30618   0.49050
 Alpha virt. eigenvalues --    0.54777   0.56217   0.60154   0.69189   0.71577
 Alpha virt. eigenvalues --    0.73358   0.77027   0.82084   0.82741   0.84962

 Mulliken charges:
               1
     1  O   -0.553152
     2  H    0.287547
     3  H    0.242925
     4  O   -0.501827
     5  H    0.265873
     6  H    0.258635
 Sum of Mulliken charges =  -0.00000

 Dipole moment (field-independent basis, Debye):
    X=             -1.6191    Y=             -3.6532    Z=             -0.0000  Tot=              3.9960
 Quadrupole moment (field-independent basis, Debye-Ang):
   XX=             -9.1866   YY=             -8.5118   ZZ=            -14.7335
   XY=             -3.5494   XZ=             -0.0000   YZ=              0.0000

 Normal termination of Gaussian 16 at Fri Aug 26 23:19:15 2022.
