 Gaussian 16, Revision A.03,
 Gaussian 16:  ES64L-G16RevA.03 25-Dec-2016

 ------------------
 #p CCSD(T)/cc-pVTZ
 ------------------

 ------------
 H2O_H2O_3974
 ------------
 Symbolic Z-matrix:
 Charge =  0 Multiplicity = 1

                         Standard orientation:
 ---------------------------------------------------------------------
 Center     Atomic      Atomic             Coordinates (Angstroms)
 Number     Number       Type             X           Y           Z
 ---------------------------------------------------------------------
      1          8           0       -0.013488    2.676832    0.000000
      2          1           0       -0.010893    1.694234    0.000000
      3          1           0        0.915160    2.997952    0.000000
      4          8           0       -0.013488   -2.517560    0.000000
      5          1           0       -0.996087   -2.520154    0.000000
      6          1           0        0.307632   -3.446208    0.000000
 ---------------------------------------------------------------------

 SCF Done:  E(RHF) =  -152.108706870     A.U. after   10 cycles
 E2 =    -0.5258121440D+00 EUMP2 =    -0.15263451901430D+03
 CCSD(T)
 CCSD(T)= -0.15266170697D+03

 The electronic state is 1-A'.
 Alpha  occ. eigenvalues --  -20.56288 -20.54985  -1.33589  -1.32294  -0.70996
 Alpha  occ. eigenvalues --   -0.69702  -0.57091  -0.55773  -0.50709  -0.49421
 Alpha virt. eigenvalues --    0.12795   0.15180   0.19226   0.21806   0.53210
 Alpha virt. eigenvalues --    0.55149   0.56617   0.57840   0.66690   0.68974
 Alpha virt. eigenvalues --    0.78183   0.79049   0.79431   0.80847   0.82717

 Mulliken charges:
               1
     1  O   -0.515496
     2  H    0.260050
     3  H    0.255057
     4  O   -0.515657
     5  H    0.257289
     6  H    0.258758
 Sum of Mulliken charges =  -0.00000

 Dipole moment (field-independent basis, Debye):
    X=              0.4645    Y=             -2.8093    Z=              0.0000  Tot=              2.8475
 Quadrupole moment (field-independent basis, Debye-Ang):
   XX=             -9.6479   YY=             -7.6537   ZZ=            -14.7157
   XY=              7.2485   XZ=              0.0000   YZ=              0.0000

 Normal termination of Gaussian 16 at Sat Aug 27 00:46:47 2022.
