 Gaussian 16, Revision A.03,
 Gaussian 16:  ES64L-G16RevA.03 25-Dec-2016

 ------------------
 #p CCSD(T)/cc-pVTZ
 ------------------

 ------------
 H2O_H2O_2219
 ------------
 Symbolic Z-matrix:
 Charge =  0 Multiplicity = 1

                         Standard orientation:
 ---------------------------------------------------------------------
 Center     Atomic      Atomic             Coordinates (Angstroms)
 Number     Number       Type             X           Y           Z
 ---------------------------------------------------------------------
      1          8           0        0.030229    1.987655    0.000000
      2          1           0        0.027425    1.005058    0.000000
      3          1           0       -0.898351    2.308972    0.000000
      4          8           0        0.030229   -1.812075   -0.000000
      5          1           0        0.959779   -2.130576   -0.000000
      6          1           0       -0.572519   -2.588092   -0.000000
 ---------------------------------------------------------------------

 SCF Done:  E(RHF) =  -152.111736174     A.U. after   10 cycles
 E2 =    -0.5262247192D+00 EUMP2 =    -0.15263796089342D+03
 CCSD(T)
 CCSD(T)= -0.15266504443D+03

 The electronic state is 1-A'.
 Alpha  occ. eigenvalues --  -20.57143 -20.53946  -1.34402  -1.31292  -0.71797
 Alpha  occ. eigenvalues --   -0.68708  -0.58050  -0.54771  -0.51541  -0.48444
 Alpha virt. eigenvalues --    0.12283   0.16768   0.19217   0.25306   0.52631
 Alpha virt. eigenvalues --    0.55166   0.56392   0.58761   0.69013   0.71921
 Alpha virt. eigenvalues --    0.76836   0.78368   0.80444   0.83251   0.83578

 Mulliken charges:
               1
     1  O   -0.527864
     2  H    0.267453
     3  H    0.251881
     4  O   -0.510323
     5  H    0.261044
     6  H    0.257809
 Sum of Mulliken charges =   0.00000

 Dipole moment (field-independent basis, Debye):
    X=             -1.0268    Y=             -3.2614    Z=             -0.0000  Tot=              3.4193
 Quadrupole moment (field-independent basis, Debye-Ang):
   XX=             -9.2302   YY=             -7.8223   ZZ=            -14.7262
   XY=             -4.6955   XZ=             -0.0000   YZ=             -0.0000

 Normal termination of Gaussian 16 at Sun Aug 28 05:30:31 2022.
