 Gaussian 16, Revision A.03,
 Gaussian 16:  ES64L-G16RevA.03 25-Dec-2016

 ------------------
 #p CCSD(T)/cc-pVTZ
 ------------------

 -----------
 H2O_H2O_705
 -----------
 Symbolic Z-matrix:
 Charge =  0 Multiplicity = 1

                         Standard orientation:
 ---------------------------------------------------------------------
 Center     Atomic      Atomic             Coordinates (Angstroms)
 Number     Number       Type             X           Y           Z
 ---------------------------------------------------------------------
      1          8           0        0.079881   -1.380328    0.000000
      2          1           0        0.079027   -0.397727    0.000000
      3          1           0       -0.849334   -1.699803    0.000000
      4          8           0        0.079881    1.221326    0.000000
      5          1           0        0.394919    2.152055    0.000000
      6          1           0       -0.902712    1.217492    0.000000
 ---------------------------------------------------------------------

 SCF Done:  E(RHF) =  -152.104484347     A.U. after   10 cycles
 E2 =    -0.5309381327D+00 EUMP2 =    -0.15263542247922D+03
 CCSD(T)
 CCSD(T)= -0.15266210305D+03

 The electronic state is 1-A'.
 Alpha  occ. eigenvalues --  -20.59494 -20.51312  -1.37531  -1.29212  -0.75455
 Alpha  occ. eigenvalues --   -0.68550  -0.59570  -0.54290  -0.51990  -0.46232
 Alpha virt. eigenvalues --    0.11359   0.16763   0.20239   0.32464   0.48251
 Alpha virt. eigenvalues --    0.53438   0.58963   0.62309   0.70032   0.72015
 Alpha virt. eigenvalues --    0.74194   0.77863   0.79807   0.83322   0.83729

 Mulliken charges:
               1
     1  O   -0.568757
     2  H    0.296519
     3  H    0.224773
     4  O   -0.427601
     5  H    0.236572
     6  H    0.238494
 Sum of Mulliken charges =  -0.00000

 Dipole moment (field-independent basis, Debye):
    X=             -2.5889    Y=              3.5848    Z=              0.0000  Tot=              4.4219
 Quadrupole moment (field-independent basis, Debye-Ang):
   XX=            -10.1331   YY=             -9.1215   ZZ=            -14.6801
   XY=              2.6874   XZ=              0.0000   YZ=              0.0000

 Normal termination of Gaussian 16 at Fri Aug 26 19:58:07 2022.
