 Gaussian 16, Revision A.03,
 Gaussian 16:  ES64L-G16RevA.03 25-Dec-2016

 ------------------
 #p CCSD(T)/cc-pVTZ
 ------------------

 -----------
 H2O_H2O_363
 -----------
 Symbolic Z-matrix:
 Charge =  0 Multiplicity = 1

                         Standard orientation:
 ---------------------------------------------------------------------
 Center     Atomic      Atomic             Coordinates (Angstroms)
 Number     Number       Type             X           Y           Z
 ---------------------------------------------------------------------
      1          8           0        0.052431    1.251993    0.000000
      2          1           0        0.049462    0.269396    0.000000
      3          1           0       -0.876095    1.573467    0.000000
      4          8           0        0.052431   -1.072256    0.000000
      5          1           0        0.789229   -1.722360    0.000000
      6          1           0       -0.801486   -1.558397    0.000000
 ---------------------------------------------------------------------

 SCF Done:  E(RHF) =  -152.089480565     A.U. after   11 cycles
 E2 =    -0.5329890225D+00 EUMP2 =    -0.15262246958799D+03
 CCSD(T)
 CCSD(T)= -0.15264860532D+03

 The electronic state is 1-A'.
 Alpha  occ. eigenvalues --  -20.60774 -20.47535  -1.39888  -1.26456  -0.76118
 Alpha  occ. eigenvalues --   -0.73195  -0.57420  -0.56197  -0.48050  -0.43289
 Alpha virt. eigenvalues --    0.10979   0.17149   0.20304   0.33442   0.47407
 Alpha virt. eigenvalues --    0.53105   0.62274   0.63683   0.70964   0.72052
 Alpha virt. eigenvalues --    0.76299   0.79492   0.80630   0.82316   0.83928

 Mulliken charges:
               1
     1  O   -0.628620
     2  H    0.310441
     3  H    0.218158
     4  O   -0.402297
     5  H    0.254970
     6  H    0.247347
 Sum of Mulliken charges =  -0.00000

 Dipole moment (field-independent basis, Debye):
    X=             -1.6478    Y=             -4.5092    Z=              0.0000  Tot=              4.8009
 Quadrupole moment (field-independent basis, Debye-Ang):
   XX=             -9.2012   YY=             -9.6643   ZZ=            -14.6447
   XY=             -2.9091   XZ=              0.0000   YZ=              0.0000

 Normal termination of Gaussian 16 at Fri Aug 26 17:42:44 2022.
