 Gaussian 16, Revision A.03,
 Gaussian 16:  ES64L-G16RevA.03 25-Dec-2016

 ------------------
 #p CCSD(T)/cc-pVTZ
 ------------------

 -----------
 H2O_H2O_507
 -----------
 Symbolic Z-matrix:
 Charge =  0 Multiplicity = 1

                         Standard orientation:
 ---------------------------------------------------------------------
 Center     Atomic      Atomic             Coordinates (Angstroms)
 Number     Number       Type             X           Y           Z
 ---------------------------------------------------------------------
      1          8           0        0.073589    1.304817    0.000000
      2          1           0        0.072240    0.322216    0.000000
      3          1           0       -0.855466    1.624759    0.000000
      4          8           0        0.073589   -1.137968    0.000000
      5          1           0        0.506972   -2.019833    0.000000
      6          1           0       -0.901163   -1.261931    0.000000
 ---------------------------------------------------------------------

 SCF Done:  E(RHF) =  -152.097484278     A.U. after   11 cycles
 E2 =    -0.5323426413D+00 EUMP2 =    -0.15262982691893D+03
 CCSD(T)
 CCSD(T)= -0.15265623923D+03

 The electronic state is 1-A'.
 Alpha  occ. eigenvalues --  -20.60152 -20.49664  -1.38719  -1.27984  -0.76379
 Alpha  occ. eigenvalues --   -0.70014  -0.58740  -0.55240  -0.50297  -0.44930
 Alpha virt. eigenvalues --    0.11165   0.16807   0.20338   0.33003   0.48383
 Alpha virt. eigenvalues --    0.53193   0.59667   0.63417   0.71848   0.72091
 Alpha virt. eigenvalues --    0.74022   0.78571   0.79297   0.83971   0.84075

 Mulliken charges:
               1
     1  O   -0.593219
     2  H    0.301056
     3  H    0.218863
     4  O   -0.406357
     5  H    0.238982
     6  H    0.240673
 Sum of Mulliken charges =   0.00000

 Dipole moment (field-independent basis, Debye):
    X=             -2.3486    Y=             -3.9850    Z=              0.0000  Tot=              4.6256
 Quadrupole moment (field-independent basis, Debye-Ang):
   XX=             -9.8271   YY=             -9.3468   ZZ=            -14.6576
   XY=             -2.7780   XZ=             -0.0000   YZ=              0.0000

 Normal termination of Gaussian 16 at Fri Aug 26 18:43:25 2022.
