 Gaussian 16, Revision A.03,
 Gaussian 16:  ES64L-G16RevA.03 25-Dec-2016

 ------------------
 #p CCSD(T)/cc-pVTZ
 ------------------

 ------------
 H2O_H2O_3840
 ------------
 Symbolic Z-matrix:
 Charge =  0 Multiplicity = 1

                         Standard orientation:
 ---------------------------------------------------------------------
 Center     Atomic      Atomic             Coordinates (Angstroms)
 Number     Number       Type             X           Y           Z
 ---------------------------------------------------------------------
      1          8           0        0.044840    2.638453    0.000000
      2          1           0        0.043238    1.655852    0.000000
      3          1           0       -0.884133    2.958634    0.000000
      4          8           0        0.044840   -2.458034   -0.000000
      5          1           0        0.860952   -3.005270   -0.000000
      6          1           0       -0.737492   -3.052564   -0.000000
 ---------------------------------------------------------------------

 SCF Done:  E(RHF) =  -152.108888386     A.U. after   10 cycles
 E2 =    -0.5258276901D+00 EUMP2 =    -0.15263471607585D+03
 CCSD(T)
 CCSD(T)= -0.15266189605D+03

 The electronic state is 1-A'.
 Alpha  occ. eigenvalues --  -20.56334 -20.54764  -1.33630  -1.32075  -0.71032
 Alpha  occ. eigenvalues --   -0.69474  -0.57140  -0.55554  -0.50752  -0.49203
 Alpha virt. eigenvalues --    0.12987   0.15302   0.19617   0.21448   0.53517
 Alpha virt. eigenvalues --    0.54954   0.56560   0.57867   0.66714   0.69195
 Alpha virt. eigenvalues --    0.78145   0.79352   0.79568   0.79642   0.82939

 Mulliken charges:
               1
     1  O   -0.515670
     2  H    0.262060
     3  H    0.252942
     4  O   -0.515739
     5  H    0.259203
     6  H    0.257204
 Sum of Mulliken charges =  -0.00000

 Dipole moment (field-independent basis, Debye):
    X=             -1.5347    Y=             -3.1921    Z=             -0.0000  Tot=              3.5419
 Quadrupole moment (field-independent basis, Debye-Ang):
   XX=             -9.1568   YY=             -6.6430   ZZ=            -14.7165
   XY=             -5.3495   XZ=             -0.0000   YZ=              0.0000

 CCSD(T)=-152.661896\RMSD=7.064e-09\PG=CS [SG(H4O2)]\\@
 Normal termination of Gaussian 16 at Fri Aug 26 23:59:06 2022.
