 Gaussian 16, Revision A.03,
 Gaussian 16:  ES64L-G16RevA.03 25-Dec-2016

 ------------------
 #p CCSD(T)/cc-pVTZ
 ------------------

 -----------
 H2O_H2O_841
 -----------
 Symbolic Z-matrix:
 Charge =  0 Multiplicity = 1

                         Standard orientation:
 ---------------------------------------------------------------------
 Center     Atomic      Atomic             Coordinates (Angstroms)
 Number     Number       Type             X           Y           Z
 ---------------------------------------------------------------------
      1          8           0        0.041261    1.441502    0.000000
      2          1           0        0.038007    0.458906    0.000000
      3          1           0       -0.887172    1.763245    0.000000
      4          8           0        0.041261   -1.261688   -0.000000
      5          1           0        0.890588   -1.755804   -0.000000
      6          1           0       -0.701593   -1.904863   -0.000000
 ---------------------------------------------------------------------

 SCF Done:  E(RHF) =  -152.111605522     A.U. after   10 cycles
 E2 =    -0.5293877169D+00 EUMP2 =    -0.15264099323867D+03
 CCSD(T)
 CCSD(T)= -0.15266772430D+03

 The electronic state is 1-A'.
 Alpha  occ. eigenvalues --  -20.59220 -20.50802  -1.36910  -1.28683  -0.73997
 Alpha  occ. eigenvalues --   -0.68621  -0.59679  -0.53892  -0.51461  -0.45760
 Alpha virt. eigenvalues --    0.11709   0.18155   0.19042   0.32783   0.48049
 Alpha virt. eigenvalues --    0.54428   0.57755   0.62457   0.69040   0.71967
 Alpha virt. eigenvalues --    0.72507   0.77831   0.82011   0.82952   0.84588

 Mulliken charges:
               1
     1  O   -0.583461
     2  H    0.305392
     3  H    0.238330
     4  O   -0.480833
     5  H    0.265267
     6  H    0.255305
 Sum of Mulliken charges =  -0.00000

 Dipole moment (field-independent basis, Debye):
    X=             -1.3517    Y=             -3.9239    Z=             -0.0000  Tot=              4.1502
 Quadrupole moment (field-independent basis, Debye-Ang):
   XX=             -9.1382   YY=             -8.9627   ZZ=            -14.7156
   XY=             -3.3479   XZ=             -0.0000   YZ=              0.0000

 Normal termination of Gaussian 16 at Fri Aug 26 20:50:30 2022.
