 Gaussian 16, Revision A.03,
 Gaussian 16:  ES64L-G16RevA.03 25-Dec-2016

 ------------------
 #p CCSD(T)/cc-pVTZ
 ------------------

 -----------
 H2O_H2O_934
 -----------
 Symbolic Z-matrix:
 Charge =  0 Multiplicity = 1

                         Standard orientation:
 ---------------------------------------------------------------------
 Center     Atomic      Atomic             Coordinates (Angstroms)
 Number     Number       Type             X           Y           Z
 ---------------------------------------------------------------------
      1          8           0        0.066814    1.477693    0.000000
      2          1           0        0.065217    0.495093    0.000000
      3          1           0       -0.862159    1.797870    0.000000
      4          8           0        0.066814   -1.304672   -0.000000
      5          1           0        0.611390   -2.122562   -0.000000
      6          1           0       -0.883480   -1.554565   -0.000000
 ---------------------------------------------------------------------

 SCF Done:  E(RHF) =  -152.111412253     A.U. after   10 cycles
 E2 =    -0.5291653586D+00 EUMP2 =    -0.15264057761152D+03
 CCSD(T)
 CCSD(T)= -0.15266739438D+03

 The electronic state is 1-A'.
 Alpha  occ. eigenvalues --  -20.58974 -20.51663  -1.36569  -1.29382  -0.73921
 Alpha  occ. eigenvalues --   -0.68279  -0.59678  -0.53568  -0.52354  -0.46465
 Alpha virt. eigenvalues --    0.11628   0.17315   0.19549   0.32008   0.48177
 Alpha virt. eigenvalues --    0.54465   0.59010   0.59687   0.69854   0.72550
 Alpha virt. eigenvalues --    0.73360   0.77004   0.81710   0.82740   0.84385

 Mulliken charges:
               1
     1  O   -0.564576
     2  H    0.298519
     3  H    0.233806
     4  O   -0.472154
     5  H    0.253427
     6  H    0.250978
 Sum of Mulliken charges =   0.00000

 Dipole moment (field-independent basis, Debye):
    X=             -2.1931    Y=             -3.6895    Z=             -0.0000  Tot=              4.2921
 Quadrupole moment (field-independent basis, Debye-Ang):
   XX=             -9.5834   YY=             -8.8464   ZZ=            -14.7144
   XY=             -3.1001   XZ=             -0.0000   YZ=              0.0000

 Normal termination of Gaussian 16 at Fri Aug 26 21:25:43 2022.
