 Gaussian 16, Revision A.03,
 Gaussian 16:  ES64L-G16RevA.03 25-Dec-2016

 ------------------
 #p CCSD(T)/cc-pVTZ
 ------------------

 ------------
 H2O_H2O_2301
 ------------
 Symbolic Z-matrix:
 Charge =  0 Multiplicity = 1

                         Standard orientation:
 ---------------------------------------------------------------------
 Center     Atomic      Atomic             Coordinates (Angstroms)
 Number     Number       Type             X           Y           Z
 ---------------------------------------------------------------------
      1          8           0        0.090686   -2.007504    0.000000
      2          1           0        0.090586   -1.024903    0.000000
      3          1           0       -0.838775   -2.326265    0.000000
      4          8           0        0.090686    1.868799    0.000000
      5          1           0        0.154852    2.849303    0.000000
      6          1           0       -0.857634    1.611510    0.000000
 ---------------------------------------------------------------------

 SCF Done:  E(RHF) =  -152.108887449     A.U. after   10 cycles
 E2 =    -0.5264217023D+00 EUMP2 =    -0.15263530915153D+03
 CCSD(T)
 CCSD(T)= -0.15266245321D+03

 The electronic state is 1-A'.
 Alpha  occ. eigenvalues --  -20.57062 -20.54855  -1.34351  -1.32162  -0.71828
 Alpha  occ. eigenvalues --   -0.69510  -0.57844  -0.55603  -0.51455  -0.49277
 Alpha virt. eigenvalues --    0.11516   0.15995   0.19910   0.24578   0.53056
 Alpha virt. eigenvalues --    0.55814   0.56614   0.57618   0.68344   0.72133
 Alpha virt. eigenvalues --    0.76957   0.79611   0.79716   0.79912   0.83334

 Mulliken charges:
               1
     1  O   -0.514086
     2  H    0.263926
     3  H    0.246282
     4  O   -0.502890
     5  H    0.259038
     6  H    0.247730
 Sum of Mulliken charges =  -0.00000

 Dipole moment (field-independent basis, Debye):
    X=             -3.0687    Y=              2.5506    Z=              0.0000  Tot=              3.9904
 Quadrupole moment (field-independent basis, Debye-Ang):
   XX=            -10.7276   YY=             -8.9448   ZZ=            -14.7148
   XY=              2.3359   XZ=              0.0000   YZ=              0.0000

 Normal termination of Gaussian 16 at Sun Aug 28 06:09:11 2022.
