 Gaussian 16, Revision A.03,
 Gaussian 16:  ES64L-G16RevA.03 25-Dec-2016

 ------------------
 #p CCSD(T)/cc-pVTZ
 ------------------

 -----------
 H2O_H2O_183
 -----------
 Symbolic Z-matrix:
 Charge =  0 Multiplicity = 1

                         Standard orientation:
 ---------------------------------------------------------------------
 Center     Atomic      Atomic             Coordinates (Angstroms)
 Number     Number       Type             X           Y           Z
 ---------------------------------------------------------------------
      1          8           0        0.070278    1.176958    0.000000
      2          1           0        0.068509    0.194358    0.000000
      3          1           0       -0.858640    1.497297   -0.000000
      4          8           0        0.070278   -1.006844    0.000000
      5          1           0        0.560047   -1.858685    0.000000
      6          1           0       -0.894358   -1.193882   -0.000000
 ---------------------------------------------------------------------

 SCF Done:  E(RHF) =  -152.063853817     A.U. after   11 cycles
 E2 =    -0.5355612776D+00 EUMP2 =    -0.15259941509505D+03
 CCSD(T)
 CCSD(T)= -0.15262521964D+03

 The electronic state is 1-A'.
 Alpha  occ. eigenvalues --  -20.61461 -20.46437  -1.42008  -1.25876  -0.79529
 Alpha  occ. eigenvalues --   -0.73692  -0.57459  -0.56136  -0.46911  -0.42579
 Alpha virt. eigenvalues --    0.10619   0.16316   0.21078   0.32612   0.48756
 Alpha virt. eigenvalues --    0.52146   0.60532   0.64339   0.71443   0.72015
 Alpha virt. eigenvalues --    0.77974   0.78492   0.81007   0.84174   0.85609

 Mulliken charges:
               1
     1  O   -0.632168
     2  H    0.290378
     3  H    0.202125
     4  O   -0.337894
     5  H    0.236414
     6  H    0.241144
 Sum of Mulliken charges =  -0.00000

 Dipole moment (field-independent basis, Debye):
    X=             -2.1651    Y=             -4.5805    Z=             -0.0000  Tot=              5.0665
 Quadrupole moment (field-independent basis, Debye-Ang):
   XX=             -9.6599   YY=             -9.8816   ZZ=            -14.5823
   XY=             -2.6585   XZ=             -0.0000   YZ=             -0.0000

 Normal termination of Gaussian 16 at Fri Aug 26 16:26:22 2022.
