 Gaussian 16, Revision A.03,
 Gaussian 16:  ES64L-G16RevA.03 25-Dec-2016

 ------------------
 #p CCSD(T)/cc-pVTZ
 ------------------

 ------------
 H2O_H2O_2931
 ------------
 Symbolic Z-matrix:
 Charge =  0 Multiplicity = 1

                         Standard orientation:
 ---------------------------------------------------------------------
 Center     Atomic      Atomic             Coordinates (Angstroms)
 Number     Number       Type             X           Y           Z
 ---------------------------------------------------------------------
      1          8           0        0.076760    2.270111   -0.000000
      2          1           0        0.076132    1.287509   -0.000000
      3          1           0       -0.852529    2.589371   -0.000000
      4          8           0        0.076760   -2.106905    0.000000
      5          1           0        0.452205   -3.014951    0.000000
      6          1           0       -0.903967   -2.167571    0.000000
 ---------------------------------------------------------------------

 SCF Done:  E(RHF) =  -152.109182922     A.U. after   10 cycles
 E2 =    -0.5260262021D+00 EUMP2 =    -0.15263520912359D+03
 CCSD(T)
 CCSD(T)= -0.15266236308D+03

 The electronic state is 1-A'.
 Alpha  occ. eigenvalues --  -20.56688 -20.54676  -1.33972  -1.31990  -0.71389
 Alpha  occ. eigenvalues --   -0.69373  -0.57483  -0.55459  -0.51092  -0.49115
 Alpha virt. eigenvalues --    0.12104   0.15819   0.19435   0.22842   0.53800
 Alpha virt. eigenvalues --    0.55152   0.56322   0.58473   0.68268   0.69304
 Alpha virt. eigenvalues --    0.77789   0.78845   0.79735   0.80406   0.82972

 Mulliken charges:
               1
     1  O   -0.515348
     2  H    0.263136
     3  H    0.249512
     4  O   -0.510876
     5  H    0.259888
     6  H    0.253689
 Sum of Mulliken charges =  -0.00000

 Dipole moment (field-independent basis, Debye):
    X=             -2.6143    Y=             -2.9416    Z=              0.0000  Tot=              3.9354
 Quadrupole moment (field-independent basis, Debye-Ang):
   XX=             -9.9575   YY=             -7.8674   ZZ=            -14.7171
   XY=             -3.3503   XZ=              0.0000   YZ=             -0.0000

 CCSD(T)=-152.6623631\RMSD=7.007e-09\PG=CS [SG(H4O2)]\\@
 Normal termination of Gaussian 16 at Fri Aug 26 18:28:58 2022.
