 Gaussian 16, Revision A.03,
 Gaussian 16:  ES64L-G16RevA.03 25-Dec-2016

 ------------------
 #p CCSD(T)/cc-pVTZ
 ------------------

 ------------
 H2O_H2O_4611
 ------------
 Symbolic Z-matrix:
 Charge =  0 Multiplicity = 1

                         Standard orientation:
 ---------------------------------------------------------------------
 Center     Atomic      Atomic             Coordinates (Angstroms)
 Number     Number       Type             X           Y           Z
 ---------------------------------------------------------------------
      1          8           0        0.059617    2.945982    0.000000
      2          1           0        0.058628    1.963381    0.000000
      3          1           0       -0.869554    3.265585    0.000000
      4          8           0        0.059617   -2.768506   -0.000000
      5          1           0        0.706748   -3.507916   -0.000000
      6          1           0       -0.849699   -3.140861   -0.000000
 ---------------------------------------------------------------------

 SCF Done:  E(RHF) =  -152.108268751     A.U. after   10 cycles
 E2 =    -0.5258175155D+00 EUMP2 =    -0.15263408626672D+03
 CCSD(T)
 CCSD(T)= -0.15266128699D+03

 The electronic state is 1-A'.
 Alpha  occ. eigenvalues --  -20.56170 -20.54994  -1.33471  -1.32301  -0.70877
 Alpha  occ. eigenvalues --   -0.69701  -0.56958  -0.55768  -0.50589  -0.49422
 Alpha virt. eigenvalues --    0.13384   0.14860   0.19674   0.20997   0.53641
 Alpha virt. eigenvalues --    0.54838   0.56665   0.57777   0.66903   0.68672
 Alpha virt. eigenvalues --    0.78297   0.79437   0.79631   0.80342   0.82550

 Mulliken charges:
               1
     1  O   -0.513054
     2  H    0.260037
     3  H    0.252925
     4  O   -0.513881
     5  H    0.258301
     6  H    0.255672
 Sum of Mulliken charges =  -0.00000

 Dipole moment (field-independent basis, Debye):
    X=             -2.0450    Y=             -3.1127    Z=             -0.0000  Tot=              3.7243
 Quadrupole moment (field-independent basis, Debye-Ang):
   XX=             -9.3616   YY=             -6.3197   ZZ=            -14.7143
   XY=             -4.9480   XZ=             -0.0000   YZ=              0.0000

 Normal termination of Gaussian 16 at Sun Aug 28 04:20:21 2022.
