 Gaussian 16, Revision A.03,
 Gaussian 16:  ES64L-G16RevA.03 25-Dec-2016

 ------------------
 #p CCSD(T)/cc-pVTZ
 ------------------

 ------------
 H2O_H2O_3190
 ------------
 Symbolic Z-matrix:
 Charge =  0 Multiplicity = 1

                         Standard orientation:
 ---------------------------------------------------------------------
 Center     Atomic      Atomic             Coordinates (Angstroms)
 Number     Number       Type             X           Y           Z
 ---------------------------------------------------------------------
      1          8           0        0.044856    2.379175   -0.000000
      2          1           0        0.043073    1.396575   -0.000000
      3          1           0       -0.884057    2.699528   -0.000000
      4          8           0        0.044856   -2.198773    0.000000
      5          1           0        0.860867   -2.746159    0.000000
      6          1           0       -0.737585   -2.793158    0.000000
 ---------------------------------------------------------------------

 SCF Done:  E(RHF) =  -152.109627855     A.U. after   10 cycles
 E2 =    -0.5258991456D+00 EUMP2 =    -0.15263552700040D+03
 CCSD(T)
 CCSD(T)= -0.15266267849D+03

 The electronic state is 1-A'.
 Alpha  occ. eigenvalues --  -20.56563 -20.54517  -1.33846  -1.31835  -0.71246
 Alpha  occ. eigenvalues --   -0.69231  -0.57382  -0.55322  -0.50974  -0.48969
 Alpha virt. eigenvalues --    0.12603   0.15790   0.19497   0.22302   0.53277
 Alpha virt. eigenvalues --    0.55316   0.56414   0.58327   0.67703   0.69354
 Alpha virt. eigenvalues --    0.77930   0.79065   0.79349   0.79861   0.83175

 Mulliken charges:
               1
     1  O   -0.518285
     2  H    0.263862
     3  H    0.252169
     4  O   -0.515009
     5  H    0.259946
     6  H    0.257317
 Sum of Mulliken charges =  -0.00000

 Dipole moment (field-independent basis, Debye):
    X=             -1.5310    Y=             -3.2334    Z=              0.0000  Tot=              3.5775
 Quadrupole moment (field-independent basis, Debye-Ang):
   XX=             -9.1570   YY=             -7.0602   ZZ=            -14.7191
   XY=             -4.9175   XZ=              0.0000   YZ=             -0.0000

 Normal termination of Gaussian 16 at Fri Aug 26 20:18:19 2022.
