 Gaussian 16, Revision A.03,
 Gaussian 16:  ES64L-G16RevA.03 25-Dec-2016

 ------------------
 #p CCSD(T)/cc-pVTZ
 ------------------

 ------------
 H2O_H2O_2895
 ------------
 Symbolic Z-matrix:
 Charge =  0 Multiplicity = 1

                         Standard orientation:
 ---------------------------------------------------------------------
 Center     Atomic      Atomic             Coordinates (Angstroms)
 Number     Number       Type             X           Y           Z
 ---------------------------------------------------------------------
      1          8           0        0.026666    2.255614    0.000000
      2          1           0        0.024072    1.273016    0.000000
      3          1           0       -0.901982    2.576733    0.000000
      4          8           0        0.026666   -2.082394   -0.000000
      5          1           0        0.975113   -2.339215   -0.000000
      6          1           0       -0.523864   -2.896289   -0.000000
 ---------------------------------------------------------------------

 SCF Done:  E(RHF) =  -152.110127189     A.U. after   10 cycles
 E2 =    -0.5259457719D+00 EUMP2 =    -0.15263607296071D+03
 CCSD(T)
 CCSD(T)= -0.15266320808D+03

 The electronic state is 1-A'.
 Alpha  occ. eigenvalues --  -20.56690 -20.54449  -1.33969  -1.31771  -0.71370
 Alpha  occ. eigenvalues --   -0.69174  -0.57524  -0.55263  -0.51099  -0.48911
 Alpha virt. eigenvalues --    0.12404   0.16046   0.19353   0.23098   0.53410
 Alpha virt. eigenvalues --    0.55567   0.56420   0.58490   0.68569   0.69378
 Alpha virt. eigenvalues --    0.77773   0.79005   0.79920   0.80033   0.83275

 Mulliken charges:
               1
     1  O   -0.521006
     2  H    0.264281
     3  H    0.253395
     4  O   -0.514522
     5  H    0.259616
     6  H    0.258236
 Sum of Mulliken charges =  -0.00000

 Dipole moment (field-independent basis, Debye):
    X=             -0.9105    Y=             -3.1281    Z=             -0.0000  Tot=              3.2580
 Quadrupole moment (field-independent basis, Debye-Ang):
   XX=             -9.2883   YY=             -7.4971   ZZ=            -14.7206
   XY=             -5.4294   XZ=             -0.0000   YZ=              0.0000

 Normal termination of Gaussian 16 at Fri Aug 26 18:09:37 2022.
