 Gaussian 16, Revision A.03,
 Gaussian 16:  ES64L-G16RevA.03 25-Dec-2016

 ------------------
 #p CCSD(T)/cc-pVTZ
 ------------------

 ------------
 H2O_H2O_1145
 ------------
 Symbolic Z-matrix:
 Charge =  0 Multiplicity = 1

                         Standard orientation:
 ---------------------------------------------------------------------
 Center     Atomic      Atomic             Coordinates (Angstroms)
 Number     Number       Type             X           Y           Z
 ---------------------------------------------------------------------
      1          8           0        0.026775    1.557549    0.000000
      2          1           0        0.022950    0.574955    0.000000
      3          1           0       -0.901471    1.879831    0.000000
      4          8           0        0.026775   -1.384396    0.000000
      5          1           0        0.974899   -1.642405    0.000000
      6          1           0       -0.524773   -2.197600    0.000000
 ---------------------------------------------------------------------

 SCF Done:  E(RHF) =  -152.113765055     A.U. after   10 cycles
 E2 =    -0.5280489079D+00 EUMP2 =    -0.15264181396301D+03
 CCSD(T)
 CCSD(T)= -0.15266871980D+03

 The electronic state is 1-A'.
 Alpha  occ. eigenvalues --  -20.58499 -20.52172  -1.35932  -1.29767  -0.73308
 Alpha  occ. eigenvalues --   -0.67914  -0.59662  -0.53010  -0.52893  -0.46902
 Alpha virt. eigenvalues --    0.12009   0.18237   0.18738   0.31196   0.49241
 Alpha virt. eigenvalues --    0.54634   0.55913   0.62077   0.68484   0.72902
 Alpha virt. eigenvalues --    0.73018   0.77098   0.82120   0.82487   0.84544

 Mulliken charges:
               1
     1  O   -0.561945
     2  H    0.288304
     3  H    0.247725
     4  O   -0.490763
     5  H    0.264848
     6  H    0.251831
 Sum of Mulliken charges =   0.00000

 Dipole moment (field-independent basis, Debye):
    X=             -0.8947    Y=             -3.5645    Z=             -0.0000  Tot=              3.6751
 Quadrupole moment (field-independent basis, Debye-Ang):
   XX=             -9.2824   YY=             -8.6540   ZZ=            -14.7285
   XY=             -3.8109   XZ=             -0.0000   YZ=             -0.0000

 Normal termination of Gaussian 16 at Fri Aug 26 22:43:54 2022.
