 Gaussian 16, Revision A.03,
 Gaussian 16:  ES64L-G16RevA.03 25-Dec-2016

 ------------------
 #p CCSD(T)/cc-pVTZ
 ------------------

 -----------
 H2O_H2O_482
 -----------
 Symbolic Z-matrix:
 Charge =  0 Multiplicity = 1

                         Standard orientation:
 ---------------------------------------------------------------------
 Center     Atomic      Atomic             Coordinates (Angstroms)
 Number     Number       Type             X           Y           Z
 ---------------------------------------------------------------------
      1          8           0        0.073589    1.294844    0.000000
      2          1           0        0.072229    0.312244    0.000000
      3          1           0       -0.855462    1.614797   -0.000000
      4          8           0        0.073589   -1.127997    0.000000
      5          1           0        0.506963   -2.009866    0.000000
      6          1           0       -0.901162   -1.251950   -0.000000
 ---------------------------------------------------------------------

 SCF Done:  E(RHF) =  -152.095931538     A.U. after   11 cycles
 E2 =    -0.5325762750D+00 EUMP2 =    -0.15262850781285D+03
 CCSD(T)
 CCSD(T)= -0.15265488267D+03

 The electronic state is 1-A'.
 Alpha  occ. eigenvalues --  -20.60239 -20.49479  -1.38906  -1.27857  -0.76577
 Alpha  occ. eigenvalues --   -0.70205  -0.58605  -0.55375  -0.50107  -0.44792
 Alpha virt. eigenvalues --    0.11132   0.16778   0.20387   0.33009   0.48424
 Alpha virt. eigenvalues --    0.53114   0.59711   0.63585   0.72052   0.72077
 Alpha virt. eigenvalues --    0.74130   0.78713   0.79155   0.83971   0.84150

 Mulliken charges:
               1
     1  O   -0.595499
     2  H    0.300539
     3  H    0.217773
     4  O   -0.401752
     5  H    0.238515
     6  H    0.240424
 Sum of Mulliken charges =  -0.00000

 Dipole moment (field-independent basis, Debye):
    X=             -2.3436    Y=             -4.0182    Z=             -0.0000  Tot=              4.6517
 Quadrupole moment (field-independent basis, Debye-Ang):
   XX=             -9.8252   YY=             -9.3809   ZZ=            -14.6530
   XY=             -2.7665   XZ=             -0.0000   YZ=             -0.0000

 Normal termination of Gaussian 16 at Fri Aug 26 18:33:51 2022.
