 Gaussian 16, Revision A.03,
 Gaussian 16:  ES64L-G16RevA.03 25-Dec-2016

 ------------------
 #p CCSD(T)/cc-pVTZ
 ------------------

 ------------
 H2O_H2O_3756
 ------------
 Symbolic Z-matrix:
 Charge =  0 Multiplicity = 1

                         Standard orientation:
 ---------------------------------------------------------------------
 Center     Atomic      Atomic             Coordinates (Angstroms)
 Number     Number       Type             X           Y           Z
 ---------------------------------------------------------------------
      1          8           0        0.076753    2.599191    0.000000
      2          1           0        0.076207    1.616590    0.000000
      3          1           0       -0.852563    2.918374    0.000000
      4          8           0        0.076753   -2.435973    0.000000
      5          1           0        0.452274   -3.343987    0.000000
      6          1           0       -0.903969   -2.496720    0.000000
 ---------------------------------------------------------------------

 SCF Done:  E(RHF) =  -152.108408524     A.U. after   10 cycles
 E2 =    -0.5258804573D+00 EUMP2 =    -0.15263428898127D+03
 CCSD(T)
 CCSD(T)= -0.15266147806D+03

 The electronic state is 1-A'.
 Alpha  occ. eigenvalues --  -20.56369 -20.54941  -1.33666  -1.32249  -0.71078
 Alpha  occ. eigenvalues --   -0.69642  -0.57154  -0.55715  -0.50783  -0.49370
 Alpha virt. eigenvalues --    0.12606   0.15240   0.19358   0.21688   0.53271
 Alpha virt. eigenvalues --    0.55047   0.56483   0.57955   0.66756   0.69095
 Alpha virt. eigenvalues --    0.78118   0.78829   0.79486   0.80606   0.82742

 Mulliken charges:
               1
     1  O   -0.512749
     2  H    0.260707
     3  H    0.251409
     4  O   -0.513234
     5  H    0.259605
     6  H    0.254261
 Sum of Mulliken charges =  -0.00000

 Dipole moment (field-independent basis, Debye):
    X=             -2.6254    Y=             -2.8899    Z=              0.0000  Tot=              3.9044
 Quadrupole moment (field-independent basis, Debye-Ang):
   XX=             -9.9509   YY=             -7.5433   ZZ=            -14.7147
   XY=             -3.5375   XZ=              0.0000   YZ=              0.0000

 Normal termination of Gaussian 16 at Fri Aug 26 23:30:00 2022.
