 Gaussian 16, Revision A.03,
 Gaussian 16:  ES64L-G16RevA.03 25-Dec-2016

 ------------------
 #p CCSD(T)/cc-pVTZ
 ------------------

 ------------
 H2O_H2O_1891
 ------------
 Symbolic Z-matrix:
 Charge =  0 Multiplicity = 1

                         Standard orientation:
 ---------------------------------------------------------------------
 Center     Atomic      Atomic             Coordinates (Angstroms)
 Number     Number       Type             X           Y           Z
 ---------------------------------------------------------------------
      1          8           0        0.041190    1.860354   -0.000000
      2          1           0        0.038706    0.877756   -0.000000
      3          1           0       -0.887494    2.181369   -0.000000
      4          8           0        0.041190   -1.680475    0.000000
      5          1           0        0.890904   -2.173926    0.000000
      6          1           0       -0.701160   -2.324232    0.000000
 ---------------------------------------------------------------------

 SCF Done:  E(RHF) =  -152.112788017     A.U. after   10 cycles
 E2 =    -0.5265190120D+00 EUMP2 =    -0.15263930702857D+03
 CCSD(T)
 CCSD(T)= -0.15266635732D+03

 The electronic state is 1-A'.
 Alpha  occ. eigenvalues --  -20.57469 -20.53527  -1.34722  -1.30901  -0.72096
 Alpha  occ. eigenvalues --   -0.68358  -0.58453  -0.54345  -0.51862  -0.48056
 Alpha virt. eigenvalues --    0.12209   0.17166   0.19104   0.26837   0.51393
 Alpha virt. eigenvalues --    0.54781   0.56382   0.59069   0.69083   0.72418
 Alpha virt. eigenvalues --    0.75865   0.77313   0.80892   0.83364   0.84504

 Mulliken charges:
               1
     1  O   -0.532491
     2  H    0.270594
     3  H    0.249188
     4  O   -0.508199
     5  H    0.262756
     6  H    0.258153
 Sum of Mulliken charges =  -0.00000

 Dipole moment (field-independent basis, Debye):
    X=             -1.3912    Y=             -3.4111    Z=              0.0000  Tot=              3.6839
 Quadrupole moment (field-independent basis, Debye-Ang):
   XX=             -9.1520   YY=             -7.9584   ZZ=            -14.7310
   XY=             -4.1367   XZ=              0.0000   YZ=             -0.0000

 Normal termination of Gaussian 16 at Sun Aug 28 02:27:46 2022.
