 Gaussian 16, Revision A.03,
 Gaussian 16:  ES64L-G16RevA.03 25-Dec-2016

 ------------------
 #p CCSD(T)/cc-pVTZ
 ------------------

 ------------
 H2O_H2O_1532
 ------------
 Symbolic Z-matrix:
 Charge =  0 Multiplicity = 1

                         Standard orientation:
 ---------------------------------------------------------------------
 Center     Atomic      Atomic             Coordinates (Angstroms)
 Number     Number       Type             X           Y           Z
 ---------------------------------------------------------------------
      1          8           0        0.073560    1.713691    0.000000
      2          1           0        0.072549    0.731090    0.000000
      3          1           0       -0.855605    2.033314    0.000000
      4          8           0        0.073560   -1.546792    0.000000
      5          1           0        0.507247   -2.428507    0.000000
      6          1           0       -0.901149   -1.671090    0.000000
 ---------------------------------------------------------------------

 SCF Done:  E(RHF) =  -152.112175985     A.U. after   10 cycles
 E2 =    -0.5272293107D+00 EUMP2 =    -0.15263940529580D+03
 CCSD(T)
 CCSD(T)= -0.15266643299D+03

 The electronic state is 1-A'.
 Alpha  occ. eigenvalues --  -20.57884 -20.53451  -1.35189  -1.30855  -0.72637
 Alpha  occ. eigenvalues --   -0.68359  -0.58879  -0.54212  -0.52295  -0.47986
 Alpha virt. eigenvalues --    0.11834   0.16915   0.19506   0.28324   0.49708
 Alpha virt. eigenvalues --    0.55179   0.56975   0.58594   0.69570   0.73781
 Alpha virt. eigenvalues --    0.74379   0.76980   0.81160   0.82831   0.84118

 Mulliken charges:
               1
     1  O   -0.532362
     2  H    0.275641
     3  H    0.241857
     4  O   -0.496486
     5  H    0.258078
     6  H    0.253273
 Sum of Mulliken charges =  -0.00000

 Dipole moment (field-independent basis, Debye):
    X=             -2.4635    Y=             -3.2546    Z=             -0.0000  Tot=              4.0819
 Quadrupole moment (field-independent basis, Debye-Ang):
   XX=             -9.8397   YY=             -8.4186   ZZ=            -14.7271
   XY=             -3.1398   XZ=             -0.0000   YZ=             -0.0000

 Normal termination of Gaussian 16 at Sat Aug 27 01:10:43 2022.
