 Gaussian 16, Revision A.03,
 Gaussian 16:  ES64L-G16RevA.03 25-Dec-2016

 ------------------
 #p CCSD(T)/cc-pVTZ
 ------------------

 ------------
 H2O_H2O_3117
 ------------
 Symbolic Z-matrix:
 Charge =  0 Multiplicity = 1

                         Standard orientation:
 ---------------------------------------------------------------------
 Center     Atomic      Atomic             Coordinates (Angstroms)
 Number     Number       Type             X           Y           Z
 ---------------------------------------------------------------------
      1          8           0        0.037447    2.348479    0.000000
      2          1           0        0.035361    1.365880    0.000000
      3          1           0       -0.891368    2.669117    0.000000
      4          8           0        0.037447   -2.169515   -0.000000
      5          1           0        0.917792   -2.605979   -0.000000
      6          1           0       -0.660930   -2.860730   -0.000000
 ---------------------------------------------------------------------

 SCF Done:  E(RHF) =  -152.109783483     A.U. after   10 cycles
 E2 =    -0.5259046780D+00 EUMP2 =    -0.15263568816144D+03
 CCSD(T)
 CCSD(T)= -0.15266283504D+03

 The electronic state is 1-A'.
 Alpha  occ. eigenvalues --  -20.56592 -20.54493  -1.33873  -1.31813  -0.71273
 Alpha  occ. eigenvalues --   -0.69211  -0.57415  -0.55302  -0.51002  -0.48949
 Alpha virt. eigenvalues --    0.12560   0.15860   0.19460   0.22486   0.53268
 Alpha virt. eigenvalues --    0.55406   0.56425   0.58375   0.67913   0.69347
 Alpha virt. eigenvalues --    0.77898   0.78978   0.79542   0.79880   0.83203

 Mulliken charges:
               1
     1  O   -0.519137
     2  H    0.263981
     3  H    0.252650
     4  O   -0.515108
     5  H    0.259819
     6  H    0.257794
 Sum of Mulliken charges =  -0.00000

 Dipole moment (field-independent basis, Debye):
    X=             -1.2780    Y=             -3.2132    Z=             -0.0000  Tot=              3.4580
 Quadrupole moment (field-independent basis, Debye-Ang):
   XX=             -9.1589   YY=             -7.1591   ZZ=            -14.7196
   XY=             -5.1681   XZ=             -0.0000   YZ=              0.0000

 CCSD(T)=-152.662835\RMSD=6.870e-09\PG=CS [SG(H4O2)]\\@
 Normal termination of Gaussian 16 at Fri Aug 26 19:51:44 2022.
