 Gaussian 16, Revision A.03,
 Gaussian 16:  ES64L-G16RevA.03 25-Dec-2016

 ------------------
 #p CCSD(T)/cc-pVTZ
 ------------------

 ------------
 H2O_H2O_1983
 ------------
 Symbolic Z-matrix:
 Charge =  0 Multiplicity = 1

                         Standard orientation:
 ---------------------------------------------------------------------
 Center     Atomic      Atomic             Coordinates (Angstroms)
 Number     Number       Type             X           Y           Z
 ---------------------------------------------------------------------
      1          8           0        0.070217    1.894987    0.000000
      2          1           0        0.069150    0.912386    0.000000
      3          1           0       -0.858929    2.214662    0.000000
      4          8           0        0.070217   -1.724772   -0.000000
      5          1           0        0.560593   -2.576264   -0.000000
      6          1           0       -0.894286   -1.912498   -0.000000
 ---------------------------------------------------------------------

 SCF Done:  E(RHF) =  -152.111431597     A.U. after   10 cycles
 E2 =    -0.5265350379D+00 EUMP2 =    -0.15263796663499D+03
 CCSD(T)
 CCSD(T)= -0.15266504343D+03

 The electronic state is 1-A'.
 Alpha  occ. eigenvalues --  -20.57369 -20.53927  -1.34633  -1.31275  -0.72048
 Alpha  occ. eigenvalues --   -0.68676  -0.58269  -0.54718  -0.51759  -0.48414
 Alpha virt. eigenvalues --    0.11992   0.16689   0.19397   0.26030   0.51481
 Alpha virt. eigenvalues --    0.55589   0.56158   0.58492   0.69000   0.72626
 Alpha virt. eigenvalues --    0.76163   0.78152   0.80558   0.83343   0.83778

 Mulliken charges:
               1
     1  O   -0.524566
     2  H    0.268583
     3  H    0.245851
     4  O   -0.504917
     5  H    0.260839
     6  H    0.254210
 Sum of Mulliken charges =   0.00000

 Dipole moment (field-independent basis, Debye):
    X=             -2.3713    Y=             -3.2015    Z=             -0.0000  Tot=              3.9841
 Quadrupole moment (field-independent basis, Debye-Ang):
   XX=             -9.6984   YY=             -8.0926   ZZ=            -14.7253
   XY=             -3.3960   XZ=             -0.0000   YZ=              0.0000

 177\MP4DQ=-152.6468355\MP4SDQ=-152.6499281\CCSD=-152.6493165\CCSD(T)=-
 Normal termination of Gaussian 16 at Sun Aug 28 03:19:43 2022.
