 Gaussian 16, Revision A.03,
 Gaussian 16:  ES64L-G16RevA.03 25-Dec-2016

 ------------------
 #p CCSD(T)/cc-pVTZ
 ------------------

 -----------
 H2O_H2O_218
 -----------
 Symbolic Z-matrix:
 Charge =  0 Multiplicity = 1

                         Standard orientation:
 ---------------------------------------------------------------------
 Center     Atomic      Atomic             Coordinates (Angstroms)
 Number     Number       Type             X           Y           Z
 ---------------------------------------------------------------------
      1          8           0        0.034001    1.190878   -0.000000
      2          1           0        0.029446    0.208288   -0.000000
      3          1           0       -0.894004    1.513851   -0.000000
      4          8           0        0.034001   -1.013517    0.000000
      5          1           0        0.940054   -1.393747    0.000000
      6          1           0       -0.619519   -1.747285    0.000000
 ---------------------------------------------------------------------

 SCF Done:  E(RHF) =  -152.071037624     A.U. after   11 cycles
 E2 =    -0.5342658647D+00 EUMP2 =    -0.15260530348895D+03
 CCSD(T)
 CCSD(T)= -0.15263115475D+03

 The electronic state is 1-A'.
 Alpha  occ. eigenvalues --  -20.61335 -20.45908  -1.41523  -1.25450  -0.78050
 Alpha  occ. eigenvalues --   -0.74560  -0.57261  -0.56394  -0.46236  -0.42152
 Alpha virt. eigenvalues --    0.10776   0.17112   0.20569   0.33630   0.46831
 Alpha virt. eigenvalues --    0.52593   0.61491   0.67570   0.70106   0.71586
 Alpha virt. eigenvalues --    0.78010   0.79321   0.79810   0.83134   0.84876

 Mulliken charges:
               1
     1  O   -0.655414
     2  H    0.298416
     3  H    0.218594
     4  O   -0.362250
     5  H    0.260843
     6  H    0.239810
 Sum of Mulliken charges =  -0.00000

 Dipole moment (field-independent basis, Debye):
    X=             -1.0526    Y=             -4.7316    Z=              0.0000  Tot=              4.8473
 Quadrupole moment (field-independent basis, Debye-Ang):
   XX=             -9.1215   YY=             -9.9214   ZZ=            -14.6059
   XY=             -2.8352   XZ=              0.0000   YZ=             -0.0000

 Normal termination of Gaussian 16 at Fri Aug 26 16:41:13 2022.
