 Gaussian 16, Revision A.03,
 Gaussian 16:  ES64L-G16RevA.03 25-Dec-2016

 ------------------
 #p CCSD(T)/cc-pVTZ
 ------------------

 -----------
 H2O_H2O_501
 -----------
 Symbolic Z-matrix:
 Charge =  0 Multiplicity = 1

                         Standard orientation:
 ---------------------------------------------------------------------
 Center     Atomic      Atomic             Coordinates (Angstroms)
 Number     Number       Type             X           Y           Z
 ---------------------------------------------------------------------
      1          8           0        0.090690   -1.289520    0.000000
      2          1           0        0.090532   -0.306918    0.000000
      3          1           0       -0.838752   -1.608335    0.000000
      4          8           0        0.090690    1.150825    0.000000
      5          1           0        0.154798    2.131333    0.000000
      6          1           0       -0.857614    0.893480    0.000000
 ---------------------------------------------------------------------

 SCF Done:  E(RHF) =  -152.089211071     A.U. after   11 cycles
 E2 =    -0.5334674901D+00 EUMP2 =    -0.15262267856081D+03
 CCSD(T)
 CCSD(T)= -0.15264917335D+03

 The electronic state is 1-A'.
 Alpha  occ. eigenvalues --  -20.60009 -20.51149  -1.38942  -1.29256  -0.78123
 Alpha  occ. eigenvalues --   -0.68137  -0.59461  -0.55131  -0.51896  -0.46217
 Alpha virt. eigenvalues --    0.11212   0.16356   0.21057   0.32310   0.48615
 Alpha virt. eigenvalues --    0.51826   0.59056   0.65191   0.70987   0.71296
 Alpha virt. eigenvalues --    0.73974   0.77533   0.78735   0.82702   0.83812

 Mulliken charges:
               1
     1  O   -0.564774
     2  H    0.284516
     3  H    0.213554
     4  O   -0.392102
     5  H    0.230072
     6  H    0.228735
 Sum of Mulliken charges =  -0.00000

 Dipole moment (field-independent basis, Debye):
    X=             -2.9124    Y=              3.3710    Z=              0.0000  Tot=              4.4548
 Quadrupole moment (field-independent basis, Debye-Ang):
   XX=            -10.7318   YY=             -9.4485   ZZ=            -14.6307
   XY=              2.1526   XZ=              0.0000   YZ=              0.0000

 Normal termination of Gaussian 16 at Fri Aug 26 18:41:04 2022.
