 Gaussian 16, Revision A.03,
 Gaussian 16:  ES64L-G16RevA.03 25-Dec-2016

 ------------------
 #p CCSD(T)/cc-pVTZ
 ------------------

 ------------
 H2O_H2O_2859
 ------------
 Symbolic Z-matrix:
 Charge =  0 Multiplicity = 1

                         Standard orientation:
 ---------------------------------------------------------------------
 Center     Atomic      Atomic             Coordinates (Angstroms)
 Number     Number       Type             X           Y           Z
 ---------------------------------------------------------------------
      1          8           0        0.066764    2.245569    0.000000
      2          1           0        0.065735    1.262969    0.000000
      3          1           0       -0.862394    2.565210    0.000000
      4          8           0        0.066764   -2.072472   -0.000000
      5          1           0        0.611813   -2.890047   -0.000000
      6          1           0       -0.883385   -2.322914   -0.000000
 ---------------------------------------------------------------------

 SCF Done:  E(RHF) =  -152.109696642     A.U. after   10 cycles
 E2 =    -0.5260151879D+00 EUMP2 =    -0.15263571183030D+03
 CCSD(T)
 CCSD(T)= -0.15266285267D+03

 The electronic state is 1-A'.
 Alpha  occ. eigenvalues --  -20.56728 -20.54485  -1.34005  -1.31804  -0.71413
 Alpha  occ. eigenvalues --   -0.69190  -0.57540  -0.55282  -0.51131  -0.48935
 Alpha virt. eigenvalues --    0.12281   0.15974   0.19430   0.22972   0.53398
 Alpha virt. eigenvalues --    0.55418   0.56236   0.58682   0.68601   0.69379
 Alpha virt. eigenvalues --    0.77740   0.79030   0.79902   0.79904   0.83184

 Mulliken charges:
               1
     1  O   -0.517687
     2  H    0.264392
     3  H    0.249872
     4  O   -0.511799
     5  H    0.260091
     6  H    0.255130
 Sum of Mulliken charges =  -0.00000

 Dipole moment (field-independent basis, Debye):
    X=             -2.2735    Y=             -3.1298    Z=             -0.0000  Tot=              3.8684
 Quadrupole moment (field-independent basis, Debye-Ang):
   XX=             -9.5665   YY=             -7.5287   ZZ=            -14.7190
   XY=             -3.8360   XZ=             -0.0000   YZ=              0.0000

 Normal termination of Gaussian 16 at Fri Aug 26 17:49:15 2022.
