 Gaussian 16, Revision A.03,
 Gaussian 16:  ES64L-G16RevA.03 25-Dec-2016

 ------------------
 #p CCSD(T)/cc-pVTZ
 ------------------

 ------------
 H2O_H2O_3203
 ------------
 Symbolic Z-matrix:
 Charge =  0 Multiplicity = 1

                         Standard orientation:
 ---------------------------------------------------------------------
 Center     Atomic      Atomic             Coordinates (Angstroms)
 Number     Number       Type             X           Y           Z
 ---------------------------------------------------------------------
      1          8           0        0.085601   -2.372410    0.000000
      2          1           0        0.085329   -1.389808    0.000000
      3          1           0       -0.843804   -2.691333    0.000000
      4          8           0        0.085601    2.222812    0.000000
      5          1           0        0.277031    3.186586    0.000000
      6          1           0       -0.888165    2.091336    0.000000
 ---------------------------------------------------------------------

 SCF Done:  E(RHF) =  -152.108442243     A.U. after   10 cycles
 E2 =    -0.5259908967D+00 EUMP2 =    -0.15263443313963D+03
 CCSD(T)
 CCSD(T)= -0.15266161161D+03

 The electronic state is 1-A'.
 Alpha  occ. eigenvalues --  -20.56564 -20.54965  -1.33857  -1.32272  -0.71279
 Alpha  occ. eigenvalues --   -0.69656  -0.57340  -0.55732  -0.50970  -0.49390
 Alpha virt. eigenvalues --    0.11942   0.15532   0.19317   0.22600   0.53835
 Alpha virt. eigenvalues --    0.54902   0.56421   0.58186   0.67481   0.69108
 Alpha virt. eigenvalues --    0.77933   0.78568   0.79471   0.80982   0.82692

 Mulliken charges:
               1
     1  O   -0.512192
     2  H    0.260824
     3  H    0.249965
     4  O   -0.510620
     5  H    0.259816
     6  H    0.252207
 Sum of Mulliken charges =  -0.00000

 Dipole moment (field-independent basis, Debye):
    X=             -2.9194    Y=              2.6744    Z=              0.0000  Tot=              3.9592
 Quadrupole moment (field-independent basis, Debye-Ang):
   XX=            -10.4062   YY=             -8.3828   ZZ=            -14.7145
   XY=              2.8045   XZ=              0.0000   YZ=              0.0000

 Normal termination of Gaussian 16 at Fri Aug 26 20:22:41 2022.
