 Gaussian 16, Revision A.03,
 Gaussian 16:  ES64L-G16RevA.03 25-Dec-2016

 ------------------
 #p CCSD(T)/cc-pVTZ
 ------------------

 ------------
 H2O_H2O_1392
 ------------
 Symbolic Z-matrix:
 Charge =  0 Multiplicity = 1

                         Standard orientation:
 ---------------------------------------------------------------------
 Center     Atomic      Atomic             Coordinates (Angstroms)
 Number     Number       Type             X           Y           Z
 ---------------------------------------------------------------------
      1          8           0        0.037530    1.660383    0.000000
      2          1           0        0.034531    0.677786    0.000000
      3          1           0       -0.890986    1.981885    0.000000
      4          8           0        0.037530   -1.481489   -0.000000
      5          1           0        0.917468   -1.918770   -0.000000
      6          1           0       -0.661489   -2.172053   -0.000000
 ---------------------------------------------------------------------

 SCF Done:  E(RHF) =  -152.114178467     A.U. after   10 cycles
 E2 =    -0.5273469903D+00 EUMP2 =    -0.15264152545699D+03
 CCSD(T)
 CCSD(T)= -0.15266849954D+03

 The electronic state is 1-A'.
 Alpha  occ. eigenvalues --  -20.58108 -20.52691  -1.35419  -1.30173  -0.72749
 Alpha  occ. eigenvalues --   -0.67947  -0.59252  -0.53466  -0.52543  -0.47323
 Alpha virt. eigenvalues --    0.12070   0.17854   0.18865   0.29707   0.49852
 Alpha virt. eigenvalues --    0.54465   0.55940   0.60306   0.68778   0.72083
 Alpha virt. eigenvalues --    0.73884   0.76999   0.81750   0.82912   0.84839

 Mulliken charges:
               1
     1  O   -0.547911
     2  H    0.281071
     3  H    0.247010
     4  O   -0.504711
     5  H    0.265734
     6  H    0.258806
 Sum of Mulliken charges =   0.00000

 Dipole moment (field-independent basis, Debye):
    X=             -1.2566    Y=             -3.5539    Z=             -0.0000  Tot=              3.7695
 Quadrupole moment (field-independent basis, Debye-Ang):
   XX=             -9.1596   YY=             -8.3806   ZZ=            -14.7353
   XY=             -3.8327   XZ=             -0.0000   YZ=              0.0000

 Normal termination of Gaussian 16 at Sat Aug 27 00:18:24 2022.
