 Gaussian 16, Revision A.03,
 Gaussian 16:  ES64L-G16RevA.03 25-Dec-2016

 ------------------
 #p CCSD(T)/cc-pVTZ
 ------------------

 ------------
 H2O_H2O_4659
 ------------
 Symbolic Z-matrix:
 Charge =  0 Multiplicity = 1

                         Standard orientation:
 ---------------------------------------------------------------------
 Center     Atomic      Atomic             Coordinates (Angstroms)
 Number     Number       Type             X           Y           Z
 ---------------------------------------------------------------------
      1          8           0        0.066742    2.963566   -0.000000
      2          1           0        0.065969    1.980965   -0.000000
      3          1           0       -0.862500    3.282963   -0.000000
      4          8           0        0.066742   -2.790433    0.000000
      5          1           0        0.612003   -3.607866    0.000000
      6          1           0       -0.883343   -3.041123    0.000000
 ---------------------------------------------------------------------

 SCF Done:  E(RHF) =  -152.108163679     A.U. after   10 cycles
 E2 =    -0.5258248564D+00 EUMP2 =    -0.15263398853585D+03
 CCSD(T)
 CCSD(T)= -0.15266119169D+03

 The electronic state is 1-A'.
 Alpha  occ. eigenvalues --  -20.56165 -20.55041  -1.33467  -1.32347  -0.70874
 Alpha  occ. eigenvalues --   -0.69746  -0.56949  -0.55811  -0.50583  -0.49467
 Alpha virt. eigenvalues --    0.13366   0.14812   0.19622   0.20991   0.53603
 Alpha virt. eigenvalues --    0.54831   0.56659   0.57754   0.66938   0.68613
 Alpha virt. eigenvalues --    0.78303   0.79395   0.79603   0.80500   0.82418

 Mulliken charges:
               1
     1  O   -0.512478
     2  H    0.259656
     3  H    0.252747
     4  O   -0.513350
     5  H    0.258274
     6  H    0.255152
 Sum of Mulliken charges =  -0.00000

 Dipole moment (field-independent basis, Debye):
    X=             -2.2896    Y=             -3.0352    Z=              0.0000  Tot=              3.8020
 Quadrupole moment (field-independent basis, Debye-Ang):
   XX=             -9.5599   YY=             -6.5551   ZZ=            -14.7139
   XY=             -4.4914   XZ=              0.0000   YZ=             -0.0000

 Normal termination of Gaussian 16 at Sun Aug 28 04:42:17 2022.
