 Gaussian 16, Revision A.03,
 Gaussian 16:  ES64L-G16RevA.03 25-Dec-2016

 ------------------
 #p CCSD(T)/cc-pVTZ
 ------------------

 -----------
 H2O_H2O_683
 -----------
 Symbolic Z-matrix:
 Charge =  0 Multiplicity = 1

                         Standard orientation:
 ---------------------------------------------------------------------
 Center     Atomic      Atomic             Coordinates (Angstroms)
 Number     Number       Type             X           Y           Z
 ---------------------------------------------------------------------
      1          8           0        0.070254    1.376416    0.000000
      2          1           0        0.068759    0.393816    0.000000
      3          1           0       -0.858753    1.696496    0.000000
      4          8           0        0.070254   -1.206263   -0.000000
      5          1           0        0.560260   -2.057967   -0.000000
      6          1           0       -0.894330   -1.393568   -0.000000
 ---------------------------------------------------------------------

 SCF Done:  E(RHF) =  -152.105940475     A.U. after   11 cycles
 E2 =    -0.5307751347D+00 EUMP2 =    -0.15263671560923D+03
 CCSD(T)
 CCSD(T)= -0.15266333669D+03

 The electronic state is 1-A'.
 Alpha  occ. eigenvalues --  -20.59613 -20.50612  -1.37628  -1.28623  -0.75059
 Alpha  occ. eigenvalues --   -0.69109  -0.59370  -0.54433  -0.51264  -0.45639
 Alpha virt. eigenvalues --    0.11384   0.17078   0.19947   0.32844   0.48119
 Alpha virt. eigenvalues --    0.53826   0.59627   0.61677   0.70532   0.72239
 Alpha virt. eigenvalues --    0.73765   0.77707   0.80517   0.83461   0.84122

 Mulliken charges:
               1
     1  O   -0.581491
     2  H    0.304009
     3  H    0.226267
     4  O   -0.439763
     5  H    0.245808
     6  H    0.245170
 Sum of Mulliken charges =  -0.00000

 Dipole moment (field-independent basis, Debye):
    X=             -2.2719    Y=             -3.8523    Z=             -0.0000  Tot=              4.4724
 Quadrupole moment (field-independent basis, Debye-Ang):
   XX=             -9.7017   YY=             -9.1293   ZZ=            -14.6877
   XY=             -2.9233   XZ=             -0.0000   YZ=              0.0000

 Normal termination of Gaussian 16 at Fri Aug 26 19:49:41 2022.
