 Gaussian 16, Revision A.03,
 Gaussian 16:  ES64L-G16RevA.03 25-Dec-2016

 ------------------
 #p CCSD(T)/cc-pVTZ
 ------------------

 -----------
 H2O_H2O_883
 -----------
 Symbolic Z-matrix:
 Charge =  0 Multiplicity = 1

                         Standard orientation:
 ---------------------------------------------------------------------
 Center     Atomic      Atomic             Coordinates (Angstroms)
 Number     Number       Type             X           Y           Z
 ---------------------------------------------------------------------
      1          8           0        0.070246    1.456197    0.000000
      2          1           0        0.068838    0.473597    0.000000
      3          1           0       -0.858789    1.776196    0.000000
      4          8           0        0.070246   -1.286032   -0.000000
      5          1           0        0.560327   -2.137693   -0.000000
      6          1           0       -0.894321   -1.473423   -0.000000
 ---------------------------------------------------------------------

 SCF Done:  E(RHF) =  -152.110325569     A.U. after   10 cycles
 E2 =    -0.5294984259D+00 EUMP2 =    -0.15263982399462D+03
 CCSD(T)
 CCSD(T)= -0.15266661544D+03

 The electronic state is 1-A'.
 Alpha  occ. eigenvalues --  -20.59082 -20.51592  -1.36749  -1.29346  -0.74182
 Alpha  occ. eigenvalues --   -0.68362  -0.59670  -0.53711  -0.52276  -0.46415
 Alpha virt. eigenvalues --    0.11564   0.17173   0.19701   0.32147   0.48147
 Alpha virt. eigenvalues --    0.54308   0.59248   0.60002   0.69845   0.72432
 Alpha virt. eigenvalues --    0.73841   0.77050   0.81352   0.82852   0.84227

 Mulliken charges:
               1
     1  O   -0.565731
     2  H    0.298811
     3  H    0.231908
     4  O   -0.462098
     5  H    0.248821
     6  H    0.248289
 Sum of Mulliken charges =  -0.00000

 Dipole moment (field-independent basis, Debye):
    X=             -2.2994    Y=             -3.6677    Z=             -0.0000  Tot=              4.3289
 Quadrupole moment (field-independent basis, Debye-Ang):
   XX=             -9.7075   YY=             -8.9063   ZZ=            -14.7079
   XY=             -3.0088   XZ=             -0.0000   YZ=              0.0000

 Normal termination of Gaussian 16 at Fri Aug 26 21:07:08 2022.
