 Gaussian 16, Revision A.03,
 Gaussian 16:  ES64L-G16RevA.03 25-Dec-2016

 ------------------
 #p CCSD(T)/cc-pVTZ
 ------------------

 ------------
 H2O_H2O_1369
 ------------
 Symbolic Z-matrix:
 Charge =  0 Multiplicity = 1

                         Standard orientation:
 ---------------------------------------------------------------------
 Center     Atomic      Atomic             Coordinates (Angstroms)
 Number     Number       Type             X           Y           Z
 ---------------------------------------------------------------------
      1          8           0        0.030283    1.648592    0.000000
      2          1           0        0.026871    0.665997    0.000000
      3          1           0       -0.898097    1.970485    0.000000
      4          8           0        0.030283   -1.473050    0.000000
      5          1           0        0.959636   -1.792127    0.000000
      6          1           0       -0.572945   -2.248692    0.000000
 ---------------------------------------------------------------------

 SCF Done:  E(RHF) =  -152.114079608     A.U. after   10 cycles
 E2 =    -0.5273863943D+00 EUMP2 =    -0.15264146600274D+03
 CCSD(T)
 CCSD(T)= -0.15266843699D+03

 The electronic state is 1-A'.
 Alpha  occ. eigenvalues --  -20.58124 -20.52711  -1.35452  -1.30199  -0.72813
 Alpha  occ. eigenvalues --   -0.67969  -0.59288  -0.53480  -0.52569  -0.47350
 Alpha virt. eigenvalues --    0.12091   0.17900   0.18862   0.29821   0.49968
 Alpha virt. eigenvalues --    0.54400   0.55878   0.60746   0.68722   0.72620
 Alpha virt. eigenvalues --    0.73772   0.77057   0.81755   0.82828   0.84666

 Mulliken charges:
               1
     1  O   -0.549631
     2  H    0.280927
     3  H    0.248611
     4  O   -0.502090
     5  H    0.265241
     6  H    0.256941
 Sum of Mulliken charges =  -0.00000

 Dipole moment (field-independent basis, Debye):
    X=             -1.0160    Y=             -3.4977    Z=              0.0000  Tot=              3.6423
 Quadrupole moment (field-independent basis, Debye-Ang):
   XX=             -9.2283   YY=             -8.4341   ZZ=            -14.7340
   XY=             -3.9477   XZ=             -0.0000   YZ=             -0.0000

 Normal termination of Gaussian 16 at Sat Aug 27 00:10:00 2022.
