 Gaussian 16, Revision A.03,
 Gaussian 16:  ES64L-G16RevA.03 25-Dec-2016

 ------------------
 #p CCSD(T)/cc-pVTZ
 ------------------

 ------------
 H2O_H2O_3481
 ------------
 Symbolic Z-matrix:
 Charge =  0 Multiplicity = 1

                         Standard orientation:
 ---------------------------------------------------------------------
 Center     Atomic      Atomic             Coordinates (Angstroms)
 Number     Number       Type             X           Y           Z
 ---------------------------------------------------------------------
      1          8           0        0.076755    2.489498   -0.000000
      2          1           0        0.076184    1.506896   -0.000000
      3          1           0       -0.852553    2.808704   -0.000000
      4          8           0        0.076755   -2.326284    0.000000
      5          1           0        0.452253   -3.234307    0.000000
      6          1           0       -0.903969   -2.387006    0.000000
 ---------------------------------------------------------------------

 SCF Done:  E(RHF) =  -152.108608968     A.U. after   10 cycles
 E2 =    -0.5259124984D+00 EUMP2 =    -0.15263452146636D+03
 CCSD(T)
 CCSD(T)= -0.15266170111D+03

 The electronic state is 1-A'.
 Alpha  occ. eigenvalues --  -20.56457 -20.54867  -1.33751  -1.32176  -0.71163
 Alpha  occ. eigenvalues --   -0.69566  -0.57244  -0.55643  -0.50868  -0.49298
 Alpha virt. eigenvalues --    0.12403   0.15422   0.19370   0.21970   0.53385
 Alpha virt. eigenvalues --    0.55079   0.56429   0.58096   0.66999   0.69206
 Alpha virt. eigenvalues --    0.78037   0.78682   0.79554   0.80546   0.82810

 Mulliken charges:
               1
     1  O   -0.513316
     2  H    0.261320
     3  H    0.250908
     4  O   -0.512909
     5  H    0.259861
     6  H    0.254136
 Sum of Mulliken charges =  -0.00000

 Dipole moment (field-independent basis, Debye):
    X=             -2.6222    Y=             -2.9036    Z=              0.0000  Tot=              3.9124
 Quadrupole moment (field-independent basis, Debye-Ang):
   XX=             -9.9526   YY=             -7.6514   ZZ=            -14.7154
   XY=             -3.4751   XZ=              0.0000   YZ=             -0.0000

 Normal termination of Gaussian 16 at Fri Aug 26 21:56:08 2022.
