 Gaussian 16, Revision A.03,
 Gaussian 16:  ES64L-G16RevA.03 25-Dec-2016

 ------------------
 #p CCSD(T)/cc-pVTZ
 ------------------

 ------------
 H2O_H2O_2508
 ------------
 Symbolic Z-matrix:
 Charge =  0 Multiplicity = 1

                         Standard orientation:
 ---------------------------------------------------------------------
 Center     Atomic      Atomic             Coordinates (Angstroms)
 Number     Number       Type             X           Y           Z
 ---------------------------------------------------------------------
      1          8           0        0.070207    2.104405    0.000000
      2          1           0        0.069251    1.121804    0.000000
      3          1           0       -0.858975    2.423976    0.000000
      4          8           0        0.070207   -1.934175   -0.000000
      5          1           0        0.560680   -2.785610   -0.000000
      6          1           0       -0.894274   -2.122010   -0.000000
 ---------------------------------------------------------------------

 SCF Done:  E(RHF) =  -152.110197174     A.U. after   10 cycles
 E2 =    -0.5261611778D+00 EUMP2 =    -0.15263635835182D+03
 CCSD(T)
 CCSD(T)= -0.15266347833D+03

 The electronic state is 1-A'.
 Alpha  occ. eigenvalues --  -20.56940 -20.54340  -1.34209  -1.31664  -0.71621
 Alpha  occ. eigenvalues --   -0.69046  -0.57766  -0.55136  -0.51336  -0.48798
 Alpha virt. eigenvalues --    0.12112   0.16240   0.19418   0.23961   0.53152
 Alpha virt. eigenvalues --    0.55662   0.56081   0.58694   0.68856   0.70557
 Alpha virt. eigenvalues --    0.77378   0.78969   0.80067   0.80942   0.83337

 Mulliken charges:
               1
     1  O   -0.519496
     2  H    0.265696
     3  H    0.248420
     4  O   -0.508866
     5  H    0.259883
     6  H    0.254362
 Sum of Mulliken charges =  -0.00000

 Dipole moment (field-independent basis, Debye):
    X=             -2.3843    Y=             -3.1163    Z=             -0.0000  Tot=              3.9238
 Quadrupole moment (field-independent basis, Debye-Ang):
   XX=             -9.6905   YY=             -7.8103   ZZ=            -14.7204
   XY=             -3.5641   XZ=             -0.0000   YZ=              0.0000

 CCSD(T)=-152.6634783\RMSD=6.822e-09\PG=CS [SG(H4O2)]\\@
 Normal termination of Gaussian 16 at Fri Aug 26 15:15:16 2022.
