 Gaussian 16, Revision A.03,
 Gaussian 16:  ES64L-G16RevA.03 25-Dec-2016

 ------------------
 #p CCSD(T)/cc-pVTZ
 ------------------

 -----------
 H2O_H2O_977
 -----------
 Symbolic Z-matrix:
 Charge =  0 Multiplicity = 1

                         Standard orientation:
 ---------------------------------------------------------------------
 Center     Atomic      Atomic             Coordinates (Angstroms)
 Number     Number       Type             X           Y           Z
 ---------------------------------------------------------------------
      1          8           0        0.088240   -1.482031    0.000000
      2          1           0        0.087956   -0.499430    0.000000
      3          1           0       -0.841161   -1.800966    0.000000
      4          8           0        0.088240    1.337731    0.000000
      5          1           0        0.216214    2.311964    0.000000
      6          1           0       -0.874840    1.142836    0.000000
 ---------------------------------------------------------------------

 SCF Done:  E(RHF) =  -152.107372381     A.U. after   10 cycles
 E2 =    -0.5295365140D+00 EUMP2 =    -0.15263690889525D+03
 CCSD(T)
 CCSD(T)= -0.15266383520D+03

 The electronic state is 1-A'.
 Alpha  occ. eigenvalues --  -20.58770 -20.53063  -1.36435  -1.30629  -0.74536
 Alpha  occ. eigenvalues --   -0.68167  -0.59597  -0.53770  -0.53344  -0.47691
 Alpha virt. eigenvalues --    0.11473   0.16535   0.20431   0.30916   0.48369
 Alpha virt. eigenvalues --    0.53407   0.58336   0.60669   0.68551   0.71961
 Alpha virt. eigenvalues --    0.74218   0.77866   0.80362   0.82026   0.83271

 Mulliken charges:
               1
     1  O   -0.541186
     2  H    0.285689
     3  H    0.230749
     4  O   -0.446554
     5  H    0.235720
     6  H    0.235581
 Sum of Mulliken charges =  -0.00000

 Dipole moment (field-independent basis, Debye):
    X=             -2.9012    Y=              3.0546    Z=              0.0000  Tot=              4.2127
 Quadrupole moment (field-independent basis, Debye-Ang):
   XX=            -10.6062   YY=             -9.0527   ZZ=            -14.6950
   XY=              2.3857   XZ=              0.0000   YZ=              0.0000

 Normal termination of Gaussian 16 at Fri Aug 26 21:41:38 2022.
