 Gaussian 16, Revision A.03,
 Gaussian 16:  ES64L-G16RevA.03 25-Dec-2016

 ------------------
 #p CCSD(T)/cc-pVTZ
 ------------------

 ------------
 H2O_H2O_1602
 ------------
 Symbolic Z-matrix:
 Charge =  0 Multiplicity = 1

                         Standard orientation:
 ---------------------------------------------------------------------
 Center     Atomic      Atomic             Coordinates (Angstroms)
 Number     Number       Type             X           Y           Z
 ---------------------------------------------------------------------
      1          8           0        0.088236   -1.731334    0.000000
      2          1           0        0.087995   -0.748732    0.000000
      3          1           0       -0.841178   -2.050228    0.000000
      4          8           0        0.088236    1.587026    0.000000
      5          1           0        0.216253    2.561253    0.000000
      6          1           0       -0.874851    1.392172    0.000000
 ---------------------------------------------------------------------

 SCF Done:  E(RHF) =  -152.109979183     A.U. after   10 cycles
 E2 =    -0.5273034465D+00 EUMP2 =    -0.15263728262951D+03
 CCSD(T)
 CCSD(T)= -0.15266436482D+03

 The electronic state is 1-A'.
 Alpha  occ. eigenvalues --  -20.57744 -20.54234  -1.35074  -1.31589  -0.72686
 Alpha  occ. eigenvalues --   -0.68900  -0.58622  -0.54968  -0.52151  -0.48699
 Alpha virt. eigenvalues --    0.11582   0.16406   0.20141   0.27415   0.50284
 Alpha virt. eigenvalues --    0.54950   0.57627   0.57755   0.68373   0.74433
 Alpha virt. eigenvalues --    0.74632   0.77712   0.80576   0.82378   0.83494

 Mulliken charges:
               1
     1  O   -0.522695
     2  H    0.271813
     3  H    0.241016
     4  O   -0.489203
     5  H    0.252984
     6  H    0.246085
 Sum of Mulliken charges =  -0.00000

 Dipole moment (field-independent basis, Debye):
    X=             -2.9549    Y=              2.7856    Z=              0.0000  Tot=              4.0609
 Quadrupole moment (field-independent basis, Debye-Ang):
   XX=            -10.5960   YY=             -8.8436   ZZ=            -14.7164
   XY=              2.4637   XZ=              0.0000   YZ=              0.0000

 Normal termination of Gaussian 16 at Sat Aug 27 23:48:42 2022.
