 Gaussian 16, Revision A.03,
 Gaussian 16:  ES64L-G16RevA.03 25-Dec-2016

 ------------------
 #p CCSD(T)/cc-pVTZ
 ------------------

 ------------
 H2O_H2O_2635
 ------------
 Symbolic Z-matrix:
 Charge =  0 Multiplicity = 1

                         Standard orientation:
 ---------------------------------------------------------------------
 Center     Atomic      Atomic             Coordinates (Angstroms)
 Number     Number       Type             X           Y           Z
 ---------------------------------------------------------------------
      1          8           0        0.063245    2.157125    0.000000
      2          1           0        0.062027    1.174524    0.000000
      3          1           0       -0.865852    2.476944   -0.000000
      4          8           0        0.063245   -1.981630    0.000000
      5          1           0        0.660449   -2.761922    0.000000
      6          1           0       -0.868551   -2.293500   -0.000000
 ---------------------------------------------------------------------

 SCF Done:  E(RHF) =  -152.110225811     A.U. after   10 cycles
 E2 =    -0.5260809958D+00 EUMP2 =    -0.15263630680676D+03
 CCSD(T)
 CCSD(T)= -0.15266343039D+03

 The electronic state is 1-A'.
 Alpha  occ. eigenvalues --  -20.56859 -20.54318  -1.34129  -1.31643  -0.71533
 Alpha  occ. eigenvalues --   -0.69029  -0.57688  -0.55122  -0.51258  -0.48778
 Alpha virt. eigenvalues --    0.12254   0.16204   0.19394   0.23602   0.53087
 Alpha virt. eigenvalues --    0.55633   0.56125   0.58867   0.68949   0.69991
 Alpha virt. eigenvalues --    0.77539   0.78963   0.80065   0.80304   0.83386

 Mulliken charges:
               1
     1  O   -0.519861
     2  H    0.265610
     3  H    0.249419
     4  O   -0.510708
     5  H    0.260146
     6  H    0.255393
 Sum of Mulliken charges =   0.00000

 Dipole moment (field-independent basis, Debye):
    X=             -2.1505    Y=             -3.1988    Z=             -0.0000  Tot=              3.8544
 Quadrupole moment (field-independent basis, Debye-Ang):
   XX=             -9.4605   YY=             -7.5749   ZZ=            -14.7207
   XY=             -3.8977   XZ=              0.0000   YZ=             -0.0000

 CCSD(T)=-152.6634304\RMSD=6.802e-09\PG=CS [SG(H4O2)]\\@
 Normal termination of Gaussian 16 at Fri Aug 26 16:11:53 2022.
