 Gaussian 16, Revision A.03,
 Gaussian 16:  ES64L-G16RevA.03 25-Dec-2016

 ------------------
 #p CCSD(T)/cc-pVTZ
 ------------------

 -----------
 H2O_H2O_146
 -----------
 Symbolic Z-matrix:
 Charge =  0 Multiplicity = 1

                         Standard orientation:
 ---------------------------------------------------------------------
 Center     Atomic      Atomic             Coordinates (Angstroms)
 Number     Number       Type             X           Y           Z
 ---------------------------------------------------------------------
      1          8           0       -0.023461    1.157103    0.000000
      2          1           0       -0.017940    0.174517    0.000000
      3          1           0        0.904226    1.480987    0.000000
      4          8           0       -0.023461   -0.986854    0.000000
      5          1           0       -0.986090   -1.183962    0.000000
      6          1           0        0.475184   -1.833530    0.000000
 ---------------------------------------------------------------------

 SCF Done:  E(RHF) =  -152.055979868     A.U. after   11 cycles
 E2 =    -0.5352990998D+00 EUMP2 =    -0.15259127896750D+03
 CCSD(T)
 CCSD(T)= -0.15261696408D+03

 The electronic state is 1-A'.
 Alpha  occ. eigenvalues --  -20.61552 -20.45341  -1.42615  -1.25152  -0.80282
 Alpha  occ. eigenvalues --   -0.73869  -0.57815  -0.56173  -0.45526  -0.41817
 Alpha virt. eigenvalues --    0.10730   0.17080   0.20691   0.33653   0.47168
 Alpha virt. eigenvalues --    0.52116   0.60513   0.68771   0.71107   0.71212
 Alpha virt. eigenvalues --    0.76739   0.77815   0.80339   0.84530   0.86180

 Mulliken charges:
               1
     1  O   -0.668162
     2  H    0.285811
     3  H    0.221860
     4  O   -0.335741
     5  H    0.263538
     6  H    0.232694
 Sum of Mulliken charges =  -0.00000

 Dipole moment (field-independent basis, Debye):
    X=              0.7180    Y=             -4.7105    Z=              0.0000  Tot=              4.7649
 Quadrupole moment (field-independent basis, Debye-Ang):
   XX=             -9.2598   YY=            -10.0000   ZZ=            -14.5755
   XY=              2.8352   XZ=              0.0000   YZ=              0.0000

 Normal termination of Gaussian 16 at Fri Aug 26 16:10:58 2022.
