 Gaussian 16, Revision A.03,
 Gaussian 16:  ES64L-G16RevA.03 25-Dec-2016

 ------------------
 #p CCSD(T)/cc-pVTZ
 ------------------

 ------------
 H2O_H2O_1024
 ------------
 Symbolic Z-matrix:
 Charge =  0 Multiplicity = 1

                         Standard orientation:
 ---------------------------------------------------------------------
 Center     Atomic      Atomic             Coordinates (Angstroms)
 Number     Number       Type             X           Y           Z
 ---------------------------------------------------------------------
      1          8           0        0.013662   -1.500121    0.000000
      2          1           0        0.008918   -0.517531    0.000000
      3          1           0       -0.914281   -1.823272    0.000000
      4          8           0        0.013662    1.340908    0.000000
      5          1           0        0.996252    1.345653    0.000000
      6          1           0       -0.309489    2.268853    0.000000
 ---------------------------------------------------------------------

 SCF Done:  E(RHF) =  -152.111813739     A.U. after   10 cycles
 E2 =    -0.5286111783D+00 EUMP2 =    -0.15264042491750D+03
 CCSD(T)
 CCSD(T)= -0.15266730282D+03

 The electronic state is 1-A'.
 Alpha  occ. eigenvalues --  -20.58662 -20.52212  -1.36244  -1.29859  -0.73960
 Alpha  occ. eigenvalues --   -0.67860  -0.59888  -0.53247  -0.52879  -0.46981
 Alpha virt. eigenvalues --    0.12016   0.18053   0.19076   0.31896   0.49096
 Alpha virt. eigenvalues --    0.54473   0.55880   0.63423   0.68367   0.72519
 Alpha virt. eigenvalues --    0.74536   0.76350   0.81252   0.82494   0.84223

 Mulliken charges:
               1
     1  O   -0.568656
     2  H    0.286865
     3  H    0.251533
     4  O   -0.467914
     5  H    0.260038
     6  H    0.238133
 Sum of Mulliken charges =  -0.00000

 Dipole moment (field-independent basis, Debye):
    X=             -0.4678    Y=              3.3544    Z=              0.0000  Tot=              3.3869
 Quadrupole moment (field-independent basis, Debye-Ang):
   XX=             -9.6363   YY=             -8.8713   ZZ=            -14.7150
   XY=              4.0167   XZ=              0.0000   YZ=              0.0000

 Normal termination of Gaussian 16 at Fri Aug 26 21:58:21 2022.
