 Gaussian 16, Revision A.03,
 Gaussian 16:  ES64L-G16RevA.03 25-Dec-2016

 ------------------
 #p CCSD(T)/cc-pVTZ
 ------------------

 -----------
 H2O_H2O_338
 -----------
 Symbolic Z-matrix:
 Charge =  0 Multiplicity = 1

                         Standard orientation:
 ---------------------------------------------------------------------
 Center     Atomic      Atomic             Coordinates (Angstroms)
 Number     Number       Type             X           Y           Z
 ---------------------------------------------------------------------
      1          8           0        0.052433    1.242020   -0.000000
      2          1           0        0.049438    0.259423   -0.000000
      3          1           0       -0.876084    1.563518   -0.000000
      4          8           0        0.052433   -1.062286    0.000000
      5          1           0        0.789214   -1.712409    0.000000
      6          1           0       -0.801497   -1.548404    0.000000
 ---------------------------------------------------------------------

 SCF Done:  E(RHF) =  -152.087023036     A.U. after   11 cycles
 E2 =    -0.5332203670D+00 EUMP2 =    -0.15262024340300D+03
 CCSD(T)
 CCSD(T)= -0.15264633414D+03

 The electronic state is 1-A'.
 Alpha  occ. eigenvalues --  -20.60876 -20.47291  -1.40131  -1.26302  -0.76279
 Alpha  occ. eigenvalues --   -0.73576  -0.57215  -0.56367  -0.47792  -0.43113
 Alpha virt. eigenvalues --    0.10931   0.17092   0.20376   0.33418   0.47388
 Alpha virt. eigenvalues --    0.53016   0.62393   0.63791   0.70986   0.71996
 Alpha virt. eigenvalues --    0.76768   0.79659   0.80536   0.82282   0.83951

 Mulliken charges:
               1
     1  O   -0.631564
     2  H    0.309437
     3  H    0.216883
     4  O   -0.396137
     5  H    0.254446
     6  H    0.246935
 Sum of Mulliken charges =  -0.00000

 Dipole moment (field-independent basis, Debye):
    X=             -1.6431    Y=             -4.5508    Z=              0.0000  Tot=              4.8383
 Quadrupole moment (field-independent basis, Debye-Ang):
   XX=             -9.1994   YY=             -9.7082   ZZ=            -14.6389
   XY=             -2.8897   XZ=              0.0000   YZ=             -0.0000

 Normal termination of Gaussian 16 at Fri Aug 26 17:32:19 2022.
