 Gaussian 16, Revision A.03,
 Gaussian 16:  ES64L-G16RevA.03 25-Dec-2016

 ------------------
 #p CCSD(T)/cc-pVTZ
 ------------------

 ------------
 H2O_H2O_1715
 ------------
 Symbolic Z-matrix:
 Charge =  0 Multiplicity = 1

                         Standard orientation:
 ---------------------------------------------------------------------
 Center     Atomic      Atomic             Coordinates (Angstroms)
 Number     Number       Type             X           Y           Z
 ---------------------------------------------------------------------
      1          8           0        0.044913    1.790804   -0.000000
      2          1           0        0.042512    0.808205   -0.000000
      3          1           0       -0.883799    2.111740   -0.000000
      4          8           0        0.044913   -1.610458    0.000000
      5          1           0        0.860581   -2.158356    0.000000
      6          1           0       -0.737900   -2.204352    0.000000
 ---------------------------------------------------------------------

 SCF Done:  E(RHF) =  -152.113317583     A.U. after   10 cycles
 E2 =    -0.5267549151D+00 EUMP2 =    -0.15264007249821D+03
 CCSD(T)
 CCSD(T)= -0.15266710193D+03

 The electronic state is 1-A'.
 Alpha  occ. eigenvalues --  -20.57673 -20.53281  -1.34932  -1.30679  -0.72293
 Alpha  occ. eigenvalues --   -0.68194  -0.58709  -0.54088  -0.52070  -0.47833
 Alpha virt. eigenvalues --    0.12144   0.17361   0.19045   0.27780   0.50729
 Alpha virt. eigenvalues --    0.54662   0.56284   0.59265   0.69042   0.72270
 Alpha virt. eigenvalues --    0.75198   0.76968   0.81158   0.83228   0.84655

 Mulliken charges:
               1
     1  O   -0.535935
     2  H    0.273232
     3  H    0.247714
     4  O   -0.507466
     5  H    0.263963
     6  H    0.258491
 Sum of Mulliken charges =  -0.00000

 Dipole moment (field-independent basis, Debye):
    X=             -1.5122    Y=             -3.4666    Z=              0.0000  Tot=              3.7821
 Quadrupole moment (field-independent basis, Debye-Ang):
   XX=             -9.1613   YY=             -8.0881   ZZ=            -14.7334
   XY=             -3.9310   XZ=              0.0000   YZ=             -0.0000

 Normal termination of Gaussian 16 at Sun Aug 28 00:54:32 2022.
