 Gaussian 16, Revision A.03,
 Gaussian 16:  ES64L-G16RevA.03 25-Dec-2016

 ------------------
 #p CCSD(T)/cc-pVTZ
 ------------------

 ------------
 H2O_H2O_3466
 ------------
 Symbolic Z-matrix:
 Charge =  0 Multiplicity = 1

                         Standard orientation:
 ---------------------------------------------------------------------
 Center     Atomic      Atomic             Coordinates (Angstroms)
 Number     Number       Type             X           Y           Z
 ---------------------------------------------------------------------
      1          8           0        0.041131    2.488612    0.000000
      2          1           0        0.039297    1.506012    0.000000
      3          1           0       -0.887766    2.809012    0.000000
      4          8           0        0.041131   -2.308678   -0.000000
      5          1           0        0.891170   -2.801566   -0.000000
      6          1           0       -0.700793   -2.952926   -0.000000
 ---------------------------------------------------------------------

 SCF Done:  E(RHF) =  -152.109293033     A.U. after   10 cycles
 E2 =    -0.5258569912D+00 EUMP2 =    -0.15263515002458D+03
 CCSD(T)
 CCSD(T)= -0.15266231475D+03

 The electronic state is 1-A'.
 Alpha  occ. eigenvalues --  -20.56452 -20.54635  -1.33741  -1.31950  -0.71143
 Alpha  occ. eigenvalues --   -0.69348  -0.57265  -0.55434  -0.50867  -0.49082
 Alpha virt. eigenvalues --    0.12752   0.15571   0.19545   0.21874   0.53391
 Alpha virt. eigenvalues --    0.55142   0.56491   0.58047   0.67090   0.69338
 Alpha virt. eigenvalues --    0.78037   0.79030   0.79534   0.79755   0.83064

 Mulliken charges:
               1
     1  O   -0.517189
     2  H    0.262990
     3  H    0.252801
     4  O   -0.515758
     5  H    0.259559
     6  H    0.257597
 Sum of Mulliken charges =  -0.00000

 Dipole moment (field-independent basis, Debye):
    X=             -1.4058    Y=             -3.2047    Z=             -0.0000  Tot=              3.4995
 Quadrupole moment (field-independent basis, Debye-Ang):
   XX=             -9.1491   YY=             -6.9021   ZZ=            -14.7180
   XY=             -5.2679   XZ=             -0.0000   YZ=              0.0000

 Normal termination of Gaussian 16 at Fri Aug 26 21:51:13 2022.
