 Gaussian 16, Revision A.03,
 Gaussian 16:  ES64L-G16RevA.03 25-Dec-2016

 ------------------
 #p CCSD(T)/cc-pVTZ
 ------------------

 ------------
 H2O_H2O_4599
 ------------
 Symbolic Z-matrix:
 Charge =  0 Multiplicity = 1

                         Standard orientation:
 ---------------------------------------------------------------------
 Center     Atomic      Atomic             Coordinates (Angstroms)
 Number     Number       Type             X           Y           Z
 ---------------------------------------------------------------------
      1          8           0       -0.013470    2.926132    0.000000
      2          1           0       -0.011102    1.943534    0.000000
      3          1           0        0.915253    3.247038    0.000000
      4          8           0       -0.013470   -2.766854    0.000000
      5          1           0       -0.996068   -2.769222    0.000000
      6          1           0        0.307436   -3.695577    0.000000
 ---------------------------------------------------------------------

 SCF Done:  E(RHF) =  -152.108363069     A.U. after   10 cycles
 E2 =    -0.5258002511D+00 EUMP2 =    -0.15263416331998D+03
 CCSD(T)
 CCSD(T)= -0.15266136333D+03

 The electronic state is 1-A'.
 Alpha  occ. eigenvalues --  -20.56163 -20.55109  -1.33466  -1.32416  -0.70873
 Alpha  occ. eigenvalues --   -0.69823  -0.56955  -0.55888  -0.50584  -0.49539
 Alpha virt. eigenvalues --    0.13248   0.14842   0.19385   0.21267   0.53450
 Alpha virt. eigenvalues --    0.54883   0.56680   0.57748   0.66900   0.68569
 Alpha virt. eigenvalues --    0.78301   0.79321   0.79592   0.80814   0.82172

 Mulliken charges:
               1
     1  O   -0.514038
     2  H    0.258959
     3  H    0.255001
     4  O   -0.514516
     5  H    0.256700
     6  H    0.257894
 Sum of Mulliken charges =  -0.00000

 Dipole moment (field-independent basis, Debye):
    X=              0.4639    Y=             -2.7917    Z=              0.0000  Tot=              2.8299
 Quadrupole moment (field-independent basis, Debye-Ang):
   XX=             -9.6486   YY=             -7.4351   ZZ=            -14.7145
   XY=              7.9306   XZ=              0.0000   YZ=              0.0000

 Normal termination of Gaussian 16 at Sun Aug 28 04:14:25 2022.
