 Gaussian 16, Revision A.03,
 Gaussian 16:  ES64L-G16RevA.03 25-Dec-2016

 ------------------
 #p CCSD(T)/cc-pVTZ
 ------------------

 -----------
 H2O_H2O_825
 -----------
 Symbolic Z-matrix:
 Charge =  0 Multiplicity = 1

                         Standard orientation:
 ---------------------------------------------------------------------
 Center     Atomic      Atomic             Coordinates (Angstroms)
 Number     Number       Type             X           Y           Z
 ---------------------------------------------------------------------
      1          8           0        0.092949   -1.415946    0.000000
      2          1           0        0.092949   -0.433344    0.000000
      3          1           0       -0.836544   -1.734612    0.000000
      4          8           0        0.092949    1.283159    0.000000
      5          1           0        0.092949    2.265760    0.000000
      6          1           0       -0.836544    0.964491    0.000000
 ---------------------------------------------------------------------

 SCF Done:  E(RHF) =  -152.102123540     A.U. after   10 cycles
 E2 =    -0.5307831473D+00 EUMP2 =    -0.15263290668746D+03
 CCSD(T)
 CCSD(T)= -0.15265977780D+03

 The electronic state is 1-A'.
 Alpha  occ. eigenvalues --  -20.59076 -20.53046  -1.37043  -1.30690  -0.75754
 Alpha  occ. eigenvalues --   -0.67922  -0.59758  -0.53769  -0.53761  -0.47716
 Alpha virt. eigenvalues --    0.11412   0.16388   0.20907   0.31329   0.48119
 Alpha virt. eigenvalues --    0.52485   0.58537   0.62312   0.68590   0.71179
 Alpha virt. eigenvalues --    0.73752   0.78459   0.79205   0.82243   0.82747

 Mulliken charges:
               1
     1  O   -0.540828
     2  H    0.285542
     3  H    0.225653
     4  O   -0.433024
     5  H    0.235328
     6  H    0.227328
 Sum of Mulliken charges =  -0.00000

 Dipole moment (field-independent basis, Debye):
    X=             -3.0392    Y=              2.9233    Z=              0.0000  Tot=              4.2170
 Quadrupole moment (field-independent basis, Debye-Ang):
   XX=            -10.9001   YY=             -9.2987   ZZ=            -14.6732
   XY=              2.0615   XZ=              0.0000   YZ=              0.0000

 Normal termination of Gaussian 16 at Fri Aug 26 20:44:48 2022.
