 Gaussian 16, Revision A.03,
 Gaussian 16:  ES64L-G16RevA.03 25-Dec-2016

 ------------------
 #p CCSD(T)/cc-pVTZ
 ------------------

 -----------
 H2O_H2O_437
 -----------
 Symbolic Z-matrix:
 Charge =  0 Multiplicity = 1

                         Standard orientation:
 ---------------------------------------------------------------------
 Center     Atomic      Atomic             Coordinates (Angstroms)
 Number     Number       Type             X           Y           Z
 ---------------------------------------------------------------------
      1          8           0        0.056103    1.281380    0.000000
      2          1           0        0.053471    0.298782    0.000000
      3          1           0       -0.872533    1.602535    0.000000
      4          8           0        0.056103   -1.102614   -0.000000
      5          1           0        0.749044   -1.799277   -0.000000
      6          1           0       -0.827633   -1.532168   -0.000000
 ---------------------------------------------------------------------

 SCF Done:  E(RHF) =  -152.095444815     A.U. after   11 cycles
 E2 =    -0.5324006326D+00 EUMP2 =    -0.15262784544758D+03
 CCSD(T)
 CCSD(T)= -0.15265411055D+03

 The electronic state is 1-A'.
 Alpha  occ. eigenvalues --  -20.60482 -20.48305  -1.39235  -1.26965  -0.75808
 Alpha  occ. eigenvalues --   -0.72003  -0.57990  -0.55720  -0.48865  -0.43856
 Alpha virt. eigenvalues --    0.11101   0.17211   0.20152   0.33409   0.47637
 Alpha virt. eigenvalues --    0.53327   0.61824   0.62937   0.71213   0.72170
 Alpha virt. eigenvalues --    0.74911   0.79053   0.80621   0.82713   0.84006

 Mulliken charges:
               1
     1  O   -0.617711
     2  H    0.311658
     3  H    0.220522
     4  O   -0.416533
     5  H    0.254135
     6  H    0.247930
 Sum of Mulliken charges =  -0.00000

 Dipole moment (field-independent basis, Debye):
    X=             -1.7769    Y=             -4.3668    Z=             -0.0000  Tot=              4.7145
 Quadrupole moment (field-independent basis, Debye-Ang):
   XX=             -9.2715   YY=             -9.5271   ZZ=            -14.6588
   XY=             -2.9462   XZ=             -0.0000   YZ=             -0.0000

 Normal termination of Gaussian 16 at Fri Aug 26 18:15:35 2022.
