 Gaussian 16, Revision A.03,
 Gaussian 16:  ES64L-G16RevA.03 25-Dec-2016

 ------------------
 #p CCSD(T)/cc-pVTZ
 ------------------

 -----------
 H2O_H2O_905
 -----------
 Symbolic Z-matrix:
 Charge =  0 Multiplicity = 1

                         Standard orientation:
 ---------------------------------------------------------------------
 Center     Atomic      Atomic             Coordinates (Angstroms)
 Number     Number       Type             X           Y           Z
 ---------------------------------------------------------------------
      1          8           0        0.079877   -1.460108    0.000000
      2          1           0        0.079072   -0.477507    0.000000
      3          1           0       -0.849354   -1.779535    0.000000
      4          8           0        0.079877    1.301097    0.000000
      5          1           0        0.394963    2.231811    0.000000
      6          1           0       -0.902717    1.297313    0.000000
 ---------------------------------------------------------------------

 SCF Done:  E(RHF) =  -152.108853219     A.U. after   10 cycles
 E2 =    -0.5296225810D+00 EUMP2 =    -0.15263847580002D+03
 CCSD(T)
 CCSD(T)= -0.15266531445D+03

 The electronic state is 1-A'.
 Alpha  occ. eigenvalues --  -20.58983 -20.52194  -1.36670  -1.29871  -0.74434
 Alpha  occ. eigenvalues --   -0.68204  -0.59684  -0.53599  -0.52886  -0.46936
 Alpha virt. eigenvalues --    0.11504   0.16820   0.20034   0.31695   0.48250
 Alpha virt. eigenvalues --    0.53970   0.58721   0.60580   0.69405   0.72248
 Alpha virt. eigenvalues --    0.74431   0.77316   0.80779   0.82583   0.83784

 Mulliken charges:
               1
     1  O   -0.555257
     2  H    0.292430
     3  H    0.230532
     4  O   -0.448240
     5  H    0.238591
     6  H    0.241943
 Sum of Mulliken charges =   0.00000

 Dipole moment (field-independent basis, Debye):
    X=             -2.6172    Y=              3.4122    Z=              0.0000  Tot=              4.3004
 Quadrupole moment (field-independent basis, Debye-Ang):
   XX=            -10.1388   YY=             -8.9422   ZZ=            -14.7001
   XY=              2.7469   XZ=              0.0000   YZ=              0.0000

 Normal termination of Gaussian 16 at Fri Aug 26 21:15:19 2022.
