 Gaussian 16, Revision A.03,
 Gaussian 16:  ES64L-G16RevA.03 25-Dec-2016

 ------------------
 #p CCSD(T)/cc-pVTZ
 ------------------

 -----------
 H2O_H2O_467
 -----------
 Symbolic Z-matrix:
 Charge =  0 Multiplicity = 1

                         Standard orientation:
 ---------------------------------------------------------------------
 Center     Atomic      Atomic             Coordinates (Angstroms)
 Number     Number       Type             X           Y           Z
 ---------------------------------------------------------------------
      1          8           0        0.037614    1.291389   -0.000000
      2          1           0        0.033694    0.308795   -0.000000
      3          1           0       -0.890601    1.613760   -0.000000
      4          8           0        0.037614   -1.112565    0.000000
      5          1           0        0.917142   -1.550670    0.000000
      6          1           0       -0.662051   -1.802475    0.000000
 ---------------------------------------------------------------------

 SCF Done:  E(RHF) =  -152.097714464     A.U. after   11 cycles
 E2 =    -0.5319595744D+00 EUMP2 =    -0.15262967403857D+03
 CCSD(T)
 CCSD(T)= -0.15265597747D+03

 The electronic state is 1-A'.
 Alpha  occ. eigenvalues --  -20.60351 -20.48366  -1.39001  -1.26985  -0.75663
 Alpha  occ. eigenvalues --   -0.71547  -0.58313  -0.55550  -0.48885  -0.43904
 Alpha virt. eigenvalues --    0.11244   0.17673   0.19850   0.33729   0.47203
 Alpha virt. eigenvalues --    0.53511   0.60493   0.66007   0.69516   0.72220
 Alpha virt. eigenvalues --    0.74668   0.78631   0.80657   0.82921   0.83859

 Mulliken charges:
               1
     1  O   -0.622769
     2  H    0.310580
     3  H    0.228463
     4  O   -0.425002
     5  H    0.261501
     6  H    0.247227
 Sum of Mulliken charges =  -0.00000

 Dipole moment (field-independent basis, Debye):
    X=             -1.1998    Y=             -4.3407    Z=              0.0000  Tot=              4.5035
 Quadrupole moment (field-independent basis, Debye-Ang):
   XX=             -9.1237   YY=             -9.4953   ZZ=            -14.6664
   XY=             -3.0562   XZ=              0.0000   YZ=             -0.0000

 Normal termination of Gaussian 16 at Fri Aug 26 18:27:52 2022.
