 Gaussian 16, Revision A.03,
 Gaussian 16:  ES64L-G16RevA.03 25-Dec-2016

 ------------------
 #p CCSD(T)/cc-pVTZ
 ------------------

 ------------
 H2O_H2O_2516
 ------------
 Symbolic Z-matrix:
 Charge =  0 Multiplicity = 1

                         Standard orientation:
 ---------------------------------------------------------------------
 Center     Atomic      Atomic             Coordinates (Angstroms)
 Number     Number       Type             X           Y           Z
 ---------------------------------------------------------------------
      1          8           0        0.041162    2.109665    0.000000
      2          1           0        0.038985    1.127066    0.000000
      3          1           0       -0.887622    2.430390   -0.000000
      4          8           0        0.041162   -1.929760    0.000000
      5          1           0        0.891029   -2.422945    0.000000
      6          1           0       -0.700987   -2.573748   -0.000000
 ---------------------------------------------------------------------

 SCF Done:  E(RHF) =  -152.110953527     A.U. after   10 cycles
 E2 =    -0.5260792833D+00 EUMP2 =    -0.15263703281066D+03
 CCSD(T)
 CCSD(T)= -0.15266413977D+03

 The electronic state is 1-A'.
 Alpha  occ. eigenvalues --  -20.56932 -20.54128  -1.34195  -1.31461  -0.71589
 Alpha  occ. eigenvalues --   -0.68860  -0.57792  -0.54950  -0.51331  -0.48606
 Alpha virt. eigenvalues --    0.12360   0.16443   0.19319   0.24114   0.52731
 Alpha virt. eigenvalues --    0.55550   0.56376   0.58932   0.69056   0.70634
 Alpha virt. eigenvalues --    0.77393   0.78711   0.80233   0.80834   0.83706

 Mulliken charges:
               1
     1  O   -0.523710
     2  H    0.266532
     3  H    0.251159
     4  O   -0.511691
     5  H    0.260562
     6  H    0.257150
 Sum of Mulliken charges =  -0.00000

 Dipole moment (field-independent basis, Debye):
    X=             -1.3992    Y=             -3.2968    Z=             -0.0000  Tot=              3.5815
 Quadrupole moment (field-independent basis, Debye-Ang):
   XX=             -9.1497   YY=             -7.5158   ZZ=            -14.7233
   XY=             -4.5875   XZ=              0.0000   YZ=             -0.0000

 Normal termination of Gaussian 16 at Fri Aug 26 15:18:20 2022.
