 Gaussian 16, Revision A.03,
 Gaussian 16:  ES64L-G16RevA.03 25-Dec-2016

 ------------------
 #p CCSD(T)/cc-pVTZ
 ------------------

 -----------
 H2O_H2O_679
 -----------
 Symbolic Z-matrix:
 Charge =  0 Multiplicity = 1

                         Standard orientation:
 ---------------------------------------------------------------------
 Center     Atomic      Atomic             Coordinates (Angstroms)
 Number     Number       Type             X           Y           Z
 ---------------------------------------------------------------------
      1          8           0        0.082826   -1.367893    0.000000
      2          1           0        0.082159   -0.385292    0.000000
      3          1           0       -0.846450   -1.687191    0.000000
      4          8           0        0.082826    1.213424    0.000000
      5          1           0        0.336498    2.162717    0.000000
      6          1           0       -0.897426    1.145520    0.000000
 ---------------------------------------------------------------------

 SCF Done:  E(RHF) =  -152.102679571     A.U. after   11 cycles
 E2 =    -0.5312678634D+00 EUMP2 =    -0.15263394743411D+03
 CCSD(T)
 CCSD(T)= -0.15266061747D+03

 The electronic state is 1-A'.
 Alpha  occ. eigenvalues --  -20.59547 -20.51402  -1.37679  -1.29311  -0.75824
 Alpha  occ. eigenvalues --   -0.68451  -0.59583  -0.54375  -0.52090  -0.46322
 Alpha virt. eigenvalues --    0.11328   0.16659   0.20396   0.32411   0.48306
 Alpha virt. eigenvalues --    0.53140   0.58878   0.62796   0.69987   0.71871
 Alpha virt. eigenvalues --    0.74159   0.78066   0.79385   0.83351   0.83535

 Mulliken charges:
               1
     1  O   -0.566623
     2  H    0.294517
     3  H    0.223196
     4  O   -0.421270
     5  H    0.234510
     6  H    0.235670
 Sum of Mulliken charges =  -0.00000

 Dipole moment (field-independent basis, Debye):
    X=             -2.6815    Y=              3.5127    Z=              0.0000  Tot=              4.4192
 Quadrupole moment (field-independent basis, Debye-Ang):
   XX=            -10.2862   YY=             -9.1679   ZZ=            -14.6731
   XY=              2.5747   XZ=              0.0000   YZ=              0.0000

 Normal termination of Gaussian 16 at Fri Aug 26 19:48:17 2022.
