 Gaussian 16, Revision A.03,
 Gaussian 16:  ES64L-G16RevA.03 25-Dec-2016

 ------------------
 #p CCSD(T)/cc-pVTZ
 ------------------

 ------------
 H2O_H2O_2757
 ------------
 Symbolic Z-matrix:
 Charge =  0 Multiplicity = 1

                         Standard orientation:
 ---------------------------------------------------------------------
 Center     Atomic      Atomic             Coordinates (Angstroms)
 Number     Number       Type             X           Y           Z
 ---------------------------------------------------------------------
      1          8           0        0.073540    2.202333    0.000000
      2          1           0        0.072762    1.219732    0.000000
      3          1           0       -0.855700    2.521735    0.000000
      4          8           0        0.073540   -2.035399   -0.000000
      5          1           0        0.507437   -2.917011   -0.000000
      6          1           0       -0.901139   -2.159928   -0.000000
 ---------------------------------------------------------------------

 SCF Done:  E(RHF) =  -152.109587529     A.U. after   10 cycles
 E2 =    -0.5260704705D+00 EUMP2 =    -0.15263565799969D+03
 CCSD(T)
 CCSD(T)= -0.15266279818D+03

 The electronic state is 1-A'.
 Alpha  occ. eigenvalues --  -20.56783 -20.54538  -1.34061  -1.31855  -0.71475
 Alpha  occ. eigenvalues --   -0.69237  -0.57589  -0.55327  -0.51184  -0.48984
 Alpha virt. eigenvalues --    0.12118   0.15991   0.19441   0.23228   0.53618
 Alpha virt. eigenvalues --    0.55359   0.56243   0.58613   0.68727   0.69552
 Alpha virt. eigenvalues --    0.77658   0.79037   0.79867   0.80296   0.83113

 Mulliken charges:
               1
     1  O   -0.517037
     2  H    0.264258
     3  H    0.249118
     4  O   -0.510259
     5  H    0.259852
     6  H    0.254068
 Sum of Mulliken charges =  -0.00000

 Dipole moment (field-independent basis, Debye):
    X=             -2.5020    Y=             -3.0264    Z=             -0.0000  Tot=              3.9267
 Quadrupole moment (field-independent basis, Debye-Ang):
   XX=             -9.8192   YY=             -7.8002   ZZ=            -14.7184
   XY=             -3.4806   XZ=             -0.0000   YZ=             -0.0000

 Normal termination of Gaussian 16 at Fri Aug 26 17:06:20 2022.
