 Gaussian 16, Revision A.03,
 Gaussian 16:  ES64L-G16RevA.03 25-Dec-2016

 ------------------
 #p CCSD(T)/cc-pVTZ
 ------------------

 -----------
 H2O_H2O_577
 -----------
 Symbolic Z-matrix:
 Charge =  0 Multiplicity = 1

                         Standard orientation:
 ---------------------------------------------------------------------
 Center     Atomic      Atomic             Coordinates (Angstroms)
 Number     Number       Type             X           Y           Z
 ---------------------------------------------------------------------
      1          8           0        0.088242   -1.322477    0.000000
      2          1           0        0.087922   -0.339876    0.000000
      3          1           0       -0.841147   -1.641447    0.000000
      4          8           0        0.088242    1.178183    0.000000
      5          1           0        0.216180    2.152421    0.000000
      6          1           0       -0.874830    0.983253    0.000000
 ---------------------------------------------------------------------

 SCF Done:  E(RHF) =  -152.095685423     A.U. after   11 cycles
 E2 =    -0.5324803926D+00 EUMP2 =    -0.15262816581517D+03
 CCSD(T)
 CCSD(T)= -0.15265475160D+03

 The electronic state is 1-A'.
 Alpha  occ. eigenvalues --  -20.59800 -20.51340  -1.38341  -1.29345  -0.77104
 Alpha  occ. eigenvalues --   -0.68252  -0.59543  -0.54779  -0.52062  -0.46326
 Alpha virt. eigenvalues --    0.11252   0.16456   0.20801   0.32361   0.48484
 Alpha virt. eigenvalues --    0.52324   0.58936   0.64230   0.70374   0.71495
 Alpha virt. eigenvalues --    0.74001   0.78243   0.78501   0.83030   0.83593

 Mulliken charges:
               1
     1  O   -0.564874
     2  H    0.289366
     3  H    0.217820
     4  O   -0.404160
     5  H    0.231569
     6  H    0.230280
 Sum of Mulliken charges =   0.00000

 Dipole moment (field-independent basis, Debye):
    X=             -2.8437    Y=              3.4023    Z=              0.0000  Tot=              4.4342
 Quadrupole moment (field-independent basis, Debye-Ang):
   XX=            -10.5892   YY=             -9.3302   ZZ=            -14.6494
   XY=              2.3062   XZ=              0.0000   YZ=              0.0000

 Normal termination of Gaussian 16 at Fri Aug 26 19:10:51 2022.
