 Gaussian 16, Revision A.03,
 Gaussian 16:  ES64L-G16RevA.03 25-Dec-2016

 ------------------
 #p CCSD(T)/cc-pVTZ
 ------------------

 ------------
 H2O_H2O_1990
 ------------
 Symbolic Z-matrix:
 Charge =  0 Multiplicity = 1

                         Standard orientation:
 ---------------------------------------------------------------------
 Center     Atomic      Atomic             Coordinates (Angstroms)
 Number     Number       Type             X           Y           Z
 ---------------------------------------------------------------------
      1          8           0        0.044900    1.900501   -0.000000
      2          1           0        0.042645    0.917903   -0.000000
      3          1           0       -0.883860    2.221300   -0.000000
      4          8           0        0.044900   -1.720143    0.000000
      5          1           0        0.860649   -2.267920    0.000000
      6          1           0       -0.737826   -2.314152    0.000000
 ---------------------------------------------------------------------

 SCF Done:  E(RHF) =  -152.112423518     A.U. after   10 cycles
 E2 =    -0.5264258724D+00 EUMP2 =    -0.15263884939012D+03
 CCSD(T)
 CCSD(T)= -0.15266591068D+03

 The electronic state is 1-A'.
 Alpha  occ. eigenvalues --  -20.57371 -20.53645  -1.34622  -1.31008  -0.72001
 Alpha  occ. eigenvalues --   -0.68443  -0.58323  -0.54464  -0.51762  -0.48161
 Alpha virt. eigenvalues --    0.12222   0.17027   0.19151   0.26323   0.51577
 Alpha virt. eigenvalues --    0.54989   0.56421   0.58996   0.69074   0.72350
 Alpha virt. eigenvalues --    0.76206   0.77501   0.80762   0.83426   0.84338

 Mulliken charges:
               1
     1  O   -0.530198
     2  H    0.269686
     3  H    0.249029
     4  O   -0.508241
     5  H    0.262211
     6  H    0.257513
 Sum of Mulliken charges =  -0.00000

 Dipole moment (field-independent basis, Debye):
    X=             -1.5180    Y=             -3.3974    Z=              0.0000  Tot=              3.7211
 Quadrupole moment (field-independent basis, Debye-Ang):
   XX=             -9.1603   YY=             -7.8750   ZZ=            -14.7294
   XY=             -4.1170   XZ=              0.0000   YZ=             -0.0000

 Normal termination of Gaussian 16 at Sun Aug 28 03:22:18 2022.
