 Gaussian 16, Revision A.03,
 Gaussian 16:  ES64L-G16RevA.03 25-Dec-2016

 ------------------
 #p CCSD(T)/cc-pVTZ
 ------------------

 ------------
 H2O_H2O_1793
 ------------
 Symbolic Z-matrix:
 Charge =  0 Multiplicity = 1

                         Standard orientation:
 ---------------------------------------------------------------------
 Center     Atomic      Atomic             Coordinates (Angstroms)
 Number     Number       Type             X           Y           Z
 ---------------------------------------------------------------------
      1          8           0        0.033852    1.819163    0.000000
      2          1           0        0.030950    0.836566    0.000000
      3          1           0       -0.894696    2.140573    0.000000
      4          8           0        0.033852   -1.641687    0.000000
      5          1           0        0.940544   -2.020391    0.000000
      6          1           0       -0.618432   -2.376555    0.000000
 ---------------------------------------------------------------------

 SCF Done:  E(RHF) =  -152.113101368     A.U. after   10 cycles
 E2 =    -0.5266217822D+00 EUMP2 =    -0.15263972314976D+03
 CCSD(T)
 CCSD(T)= -0.15266676271D+03

 The electronic state is 1-A'.
 Alpha  occ. eigenvalues --  -20.57565 -20.53433  -1.34825  -1.30820  -0.72202
 Alpha  occ. eigenvalues --   -0.68305  -0.58585  -0.54248  -0.51964  -0.47977
 Alpha virt. eigenvalues --    0.12202   0.17303   0.19065   0.27351   0.51350
 Alpha virt. eigenvalues --    0.54508   0.56232   0.59281   0.69060   0.72575
 Alpha virt. eigenvalues --    0.75486   0.77317   0.81007   0.83293   0.84552

 Mulliken charges:
               1
     1  O   -0.535239
     2  H    0.271406
     3  H    0.250061
     4  O   -0.508176
     5  H    0.263169
     6  H    0.258779
 Sum of Mulliken charges =  -0.00000

 Dipole moment (field-independent basis, Debye):
    X=             -1.1433    Y=             -3.3897    Z=              0.0000  Tot=              3.5773
 Quadrupole moment (field-independent basis, Debye-Ang):
   XX=             -9.1878   YY=             -8.0736   ZZ=            -14.7323
   XY=             -4.2335   XZ=              0.0000   YZ=              0.0000

 Normal termination of Gaussian 16 at Sun Aug 28 01:37:52 2022.
