 Gaussian 16, Revision A.03,
 Gaussian 16:  ES64L-G16RevA.03 25-Dec-2016

 ------------------
 #p CCSD(T)/cc-pVTZ
 ------------------

 ------------
 H2O_H2O_3197
 ------------
 Symbolic Z-matrix:
 Charge =  0 Multiplicity = 1

                         Standard orientation:
 ---------------------------------------------------------------------
 Center     Atomic      Atomic             Coordinates (Angstroms)
 Number     Number       Type             X           Y           Z
 ---------------------------------------------------------------------
      1          8           0       -0.019859    2.371956    0.000000
      2          1           0       -0.017148    1.389359    0.000000
      3          1           0        0.908752    2.693186    0.000000
      4          8           0       -0.019859   -2.204852    0.000000
      5          1           0       -0.993696   -2.335794    0.000000
      6          1           0        0.419831   -3.083589    0.000000
 ---------------------------------------------------------------------

 SCF Done:  E(RHF) =  -152.109568762     A.U. after   10 cycles
 E2 =    -0.5258843559D+00 EUMP2 =    -0.15263545311739D+03
 CCSD(T)
 CCSD(T)= -0.15266260818D+03

 The electronic state is 1-A'.
 Alpha  occ. eigenvalues --  -20.56542 -20.54663  -1.33831  -1.31981  -0.71236
 Alpha  occ. eigenvalues --   -0.69386  -0.57363  -0.55470  -0.50957  -0.49116
 Alpha virt. eigenvalues --    0.12429   0.15758   0.19311   0.22597   0.53487
 Alpha virt. eigenvalues --    0.55468   0.56479   0.58157   0.67584   0.69337
 Alpha virt. eigenvalues --    0.77942   0.78729   0.79721   0.80394   0.83070

 Mulliken charges:
               1
     1  O   -0.518873
     2  H    0.262577
     3  H    0.254347
     4  O   -0.515605
     5  H    0.258730
     6  H    0.258825
 Sum of Mulliken charges =  -0.00000

 Dipole moment (field-independent basis, Debye):
    X=              0.6806    Y=             -2.9908    Z=              0.0000  Tot=              3.0672
 Quadrupole moment (field-independent basis, Debye-Ang):
   XX=             -9.4467   YY=             -7.5820   ZZ=            -14.7187
   XY=              6.0425   XZ=              0.0000   YZ=              0.0000

 CCSD(T)=-152.6626082\RMSD=6.905e-09\PG=CS [SG(H4O2)]\\@
 Normal termination of Gaussian 16 at Fri Aug 26 20:20:37 2022.
