 Gaussian 16, Revision A.03,
 Gaussian 16:  ES64L-G16RevA.03 25-Dec-2016

 ------------------
 #p CCSD(T)/cc-pVTZ
 ------------------

 ------------
 H2O_H2O_3723
 ------------
 Symbolic Z-matrix:
 Charge =  0 Multiplicity = 1

                         Standard orientation:
 ---------------------------------------------------------------------
 Center     Atomic      Atomic             Coordinates (Angstroms)
 Number     Number       Type             X           Y           Z
 ---------------------------------------------------------------------
      1          8           0       -0.016604    2.579354    0.000000
      2          1           0       -0.014011    1.596756    0.000000
      3          1           0        0.912045    2.900472    0.000000
      4          8           0       -0.016604   -2.415955    0.000000
      5          1           0       -0.996930   -2.482807    0.000000
      6          1           0        0.364563   -3.321613    0.000000
 ---------------------------------------------------------------------

 SCF Done:  E(RHF) =  -152.108944867     A.U. after   10 cycles
 E2 =    -0.5258255099D+00 EUMP2 =    -0.15263477037699D+03
 CCSD(T)
 CCSD(T)= -0.15266194933D+03

 The electronic state is 1-A'.
 Alpha  occ. eigenvalues --  -20.56356 -20.54881  -1.33654  -1.32193  -0.71060
 Alpha  occ. eigenvalues --   -0.69599  -0.57164  -0.55675  -0.50776  -0.49322
 Alpha virt. eigenvalues --    0.12676   0.15353   0.19279   0.21953   0.53247
 Alpha virt. eigenvalues --    0.55242   0.56582   0.57892   0.66768   0.69150
 Alpha virt. eigenvalues --    0.78121   0.78830   0.79525   0.80660   0.82844

 Mulliken charges:
               1
     1  O   -0.516396
     2  H    0.260886
     3  H    0.254800
     4  O   -0.516006
     5  H    0.257846
     6  H    0.258870
 Sum of Mulliken charges =   0.00000

 Dipole moment (field-independent basis, Debye):
    X=              0.5705    Y=             -2.8933    Z=              0.0000  Tot=              2.9490
 Quadrupole moment (field-independent basis, Debye-Ang):
   XX=             -9.5428   YY=             -7.5289   ZZ=            -14.7166
   XY=              6.7709   XZ=              0.0000   YZ=              0.0000

 CCSD(T)=-152.6619493\RMSD=7.044e-09\PG=CS [SG(H4O2)]\\@
 Normal termination of Gaussian 16 at Fri Aug 26 23:18:53 2022.
