 Gaussian 16, Revision A.03,
 Gaussian 16:  ES64L-G16RevA.03 25-Dec-2016

 ------------------
 #p CCSD(T)/cc-pVTZ
 ------------------

 ------------
 H2O_H2O_2900
 ------------
 Symbolic Z-matrix:
 Charge =  0 Multiplicity = 1

                         Standard orientation:
 ---------------------------------------------------------------------
 Center     Atomic      Atomic             Coordinates (Angstroms)
 Number     Number       Type             X           Y           Z
 ---------------------------------------------------------------------
      1          8           0        0.092949   -2.243616    0.000000
      2          1           0        0.092949   -1.261014    0.000000
      3          1           0       -0.836544   -2.562282    0.000000
      4          8           0        0.092949    2.110829    0.000000
      5          1           0        0.092949    3.093430    0.000000
      6          1           0       -0.836544    1.792162    0.000000
 ---------------------------------------------------------------------

 SCF Done:  E(RHF) =  -152.108110275     A.U. after   10 cycles
 E2 =    -0.5261187213D+00 EUMP2 =    -0.15263422899616D+03
 CCSD(T)
 CCSD(T)= -0.15266141042D+03

 The electronic state is 1-A'.
 Alpha  occ. eigenvalues --  -20.56699 -20.55138  -1.33993  -1.32438  -0.71434
 Alpha  occ. eigenvalues --   -0.69813  -0.57460  -0.55887  -0.51099  -0.49551
 Alpha virt. eigenvalues --    0.11470   0.15612   0.19468   0.23481   0.54295
 Alpha virt. eigenvalues --    0.54771   0.56462   0.58066   0.68235   0.69007
 Alpha virt. eigenvalues --    0.77765   0.78434   0.79340   0.80906   0.82722

 Mulliken charges:
               1
     1  O   -0.510749
     2  H    0.260418
     3  H    0.248899
     4  O   -0.507381
     5  H    0.259699
     6  H    0.249114
 Sum of Mulliken charges =  -0.00000

 Dipole moment (field-independent basis, Debye):
    X=             -3.1624    Y=              2.3881    Z=              0.0000  Tot=              3.9628
 Quadrupole moment (field-independent basis, Debye-Ang):
   XX=            -10.8603   YY=             -9.2103   ZZ=            -14.7127
   XY=              2.1482   XZ=              0.0000   YZ=              0.0000

 Normal termination of Gaussian 16 at Fri Aug 26 18:12:14 2022.
