 Gaussian 16, Revision A.03,
 Gaussian 16:  ES64L-G16RevA.03 25-Dec-2016

 ------------------
 #p CCSD(T)/cc-pVTZ
 ------------------

 ------------
 H2O_H2O_3134
 ------------
 Symbolic Z-matrix:
 Charge =  0 Multiplicity = 1

                         Standard orientation:
 ---------------------------------------------------------------------
 Center     Atomic      Atomic             Coordinates (Angstroms)
 Number     Number       Type             X           Y           Z
 ---------------------------------------------------------------------
      1          8           0        0.066760    2.355264    0.000000
      2          1           0        0.065780    1.372663    0.000000
      3          1           0       -0.862415    2.674857    0.000000
      4          8           0        0.066760   -2.182160    0.000000
      5          1           0        0.611850   -2.999708    0.000000
      6          1           0       -0.883377   -2.432650    0.000000
 ---------------------------------------------------------------------

 SCF Done:  E(RHF) =  -152.109293912     A.U. after   10 cycles
 E2 =    -0.5259471363D+00 EUMP2 =    -0.15263524104815D+03
 CCSD(T)
 CCSD(T)= -0.15266239765D+03

 The electronic state is 1-A'.
 Alpha  occ. eigenvalues --  -20.56593 -20.54612  -1.33877  -1.31927  -0.71285
 Alpha  occ. eigenvalues --   -0.69315  -0.57396  -0.55404  -0.51001  -0.49055
 Alpha virt. eigenvalues --    0.12402   0.15746   0.19454   0.22379   0.53442
 Alpha virt. eigenvalues --    0.55237   0.56338   0.58409   0.67756   0.69330
 Alpha virt. eigenvalues --    0.77902   0.78845   0.79783   0.79898   0.83062

 Mulliken charges:
               1
     1  O   -0.516170
     2  H    0.263309
     3  H    0.250608
     4  O   -0.513145
     5  H    0.260108
     6  H    0.255291
 Sum of Mulliken charges =  -0.00000

 Dipole moment (field-independent basis, Debye):
    X=             -2.2771    Y=             -3.1055    Z=              0.0000  Tot=              3.8508
 Quadrupole moment (field-independent basis, Debye-Ang):
   XX=             -9.5647   YY=             -7.3800   ZZ=            -14.7178
   XY=             -3.9362   XZ=              0.0000   YZ=              0.0000

 Normal termination of Gaussian 16 at Fri Aug 26 19:57:32 2022.
