 Gaussian 16, Revision A.03,
 Gaussian 16:  ES64L-G16RevA.03 25-Dec-2016

 ------------------
 #p CCSD(T)/cc-pVTZ
 ------------------

 -----------
 H2O_H2O_817
 -----------
 Symbolic Z-matrix:
 Charge =  0 Multiplicity = 1

                         Standard orientation:
 ---------------------------------------------------------------------
 Center     Atomic      Atomic             Coordinates (Angstroms)
 Number     Number       Type             X           Y           Z
 ---------------------------------------------------------------------
      1          8           0        0.037576    1.431010    0.000000
      2          1           0        0.034065    0.448415    0.000000
      3          1           0       -0.890772    1.752997   -0.000000
      4          8           0        0.037576   -1.252155    0.000000
      5          1           0        0.917286   -1.689896    0.000000
      6          1           0       -0.661803   -1.942355   -0.000000
 ---------------------------------------------------------------------

 SCF Done:  E(RHF) =  -152.111150089     A.U. after   10 cycles
 E2 =    -0.5295096449D+00 EUMP2 =    -0.15264065973417D+03
 CCSD(T)
 CCSD(T)= -0.15266737198D+03

 The electronic state is 1-A'.
 Alpha  occ. eigenvalues --  -20.59272 -20.50697  -1.37004  -1.28609  -0.74110
 Alpha  occ. eigenvalues --   -0.68682  -0.59679  -0.53969  -0.51343  -0.45682
 Alpha virt. eigenvalues --    0.11708   0.18225   0.19016   0.32908   0.48017
 Alpha virt. eigenvalues --    0.54397   0.57720   0.63149   0.68781   0.72208
 Alpha virt. eigenvalues --    0.72476   0.77839   0.81822   0.83061   0.84489

 Mulliken charges:
               1
     1  O   -0.586397
     2  H    0.305423
     3  H    0.239018
     4  O   -0.476922
     5  H    0.264986
     6  H    0.253892
 Sum of Mulliken charges =  -0.00000

 Dipole moment (field-independent basis, Debye):
    X=             -1.2308    Y=             -3.9270    Z=             -0.0000  Tot=              4.1154
 Quadrupole moment (field-independent basis, Debye-Ang):
   XX=             -9.1448   YY=             -8.9937   ZZ=            -14.7131
   XY=             -3.3631   XZ=              0.0000   YZ=             -0.0000

 Normal termination of Gaussian 16 at Fri Aug 26 20:41:51 2022.
