 Gaussian 16, Revision A.03,
 Gaussian 16:  ES64L-G16RevA.03 25-Dec-2016

 ------------------
 #p CCSD(T)/cc-pVTZ
 ------------------

 ------------
 H2O_H2O_1113
 ------------
 Symbolic Z-matrix:
 Charge =  0 Multiplicity = 1

                         Standard orientation:
 ---------------------------------------------------------------------
 Center     Atomic      Atomic             Coordinates (Angstroms)
 Number     Number       Type             X           Y           Z
 ---------------------------------------------------------------------
      1          8           0        0.052375    1.551182    0.000000
      2          1           0        0.050014    0.568584    0.000000
      3          1           0       -0.876350    1.872082    0.000000
      4          8           0        0.052375   -1.371381   -0.000000
      5          1           0        0.789575   -2.021029   -0.000000
      6          1           0       -0.801240   -1.858050   -0.000000
 ---------------------------------------------------------------------

 SCF Done:  E(RHF) =  -152.113750763     A.U. after   10 cycles
 E2 =    -0.5282428794D+00 EUMP2 =    -0.15264199364236D+03
 CCSD(T)
 CCSD(T)= -0.15266888520D+03

 The electronic state is 1-A'.
 Alpha  occ. eigenvalues --  -20.58615 -20.51968  -1.36039  -1.29582  -0.73286
 Alpha  occ. eigenvalues --   -0.67988  -0.59629  -0.53120  -0.52695  -0.46703
 Alpha virt. eigenvalues --    0.11850   0.17821   0.19048   0.31328   0.48618
 Alpha virt. eigenvalues --    0.54762   0.56793   0.60236   0.69529   0.71567
 Alpha virt. eigenvalues --    0.72991   0.77155   0.82357   0.82546   0.84889

 Mulliken charges:
               1
     1  O   -0.559383
     2  H    0.293183
     3  H    0.240336
     4  O   -0.496634
     5  H    0.264838
     6  H    0.257660
 Sum of Mulliken charges =  -0.00000

 Dipole moment (field-independent basis, Debye):
    X=             -1.7345    Y=             -3.7139    Z=             -0.0000  Tot=              4.0989
 Quadrupole moment (field-independent basis, Debye-Ang):
   XX=             -9.2311   YY=             -8.6423   ZZ=            -14.7297
   XY=             -3.4180   XZ=             -0.0000   YZ=              0.0000

 CCSD(T)=-152.6688852\RMSD=7.247e-09\PG=CS [SG(H4O2)]\\@
 Normal termination of Gaussian 16 at Fri Aug 26 22:32:37 2022.
