 Gaussian 16, Revision A.03,
 Gaussian 16:  ES64L-G16RevA.03 25-Dec-2016

 ------------------
 #p CCSD(T)/cc-pVTZ
 ------------------

 ------------
 H2O_H2O_2756
 ------------
 Symbolic Z-matrix:
 Charge =  0 Multiplicity = 1

                         Standard orientation:
 ---------------------------------------------------------------------
 Center     Atomic      Atomic             Coordinates (Angstroms)
 Number     Number       Type             X           Y           Z
 ---------------------------------------------------------------------
      1          8           0        0.076762    2.200306    0.000000
      2          1           0        0.076113    1.217705    0.000000
      3          1           0       -0.852521    2.519586    0.000000
      4          8           0        0.076762   -2.037104    0.000000
      5          1           0        0.452188   -2.945157    0.000000
      6          1           0       -0.903966   -2.097748    0.000000
 ---------------------------------------------------------------------

 SCF Done:  E(RHF) =  -152.109428038     A.U. after   10 cycles
 E2 =    -0.5260833490D+00 EUMP2 =    -0.15263551138743D+03
 CCSD(T)
 CCSD(T)= -0.15266265511D+03

 The electronic state is 1-A'.
 Alpha  occ. eigenvalues --  -20.56782 -20.54600  -1.34062  -1.31916  -0.71480
 Alpha  occ. eigenvalues --   -0.69296  -0.57582  -0.55384  -0.51183  -0.49042
 Alpha virt. eigenvalues --    0.12042   0.15952   0.19457   0.23239   0.53769
 Alpha virt. eigenvalues --    0.55270   0.56287   0.58526   0.68685   0.69550
 Alpha virt. eigenvalues --    0.77657   0.79006   0.79814   0.80433   0.83046

 Mulliken charges:
               1
     1  O   -0.516313
     2  H    0.263905
     3  H    0.248930
     4  O   -0.509759
     5  H    0.259751
     6  H    0.253487
 Sum of Mulliken charges =  -0.00000

 Dipole moment (field-independent basis, Debye):
    X=             -2.6112    Y=             -2.9576    Z=              0.0000  Tot=              3.9454
 Quadrupole moment (field-independent basis, Debye-Ang):
   XX=             -9.9596   YY=             -7.9368   ZZ=            -14.7178
   XY=             -3.3105   XZ=              0.0000   YZ=              0.0000

 Normal termination of Gaussian 16 at Fri Aug 26 17:05:53 2022.
