 Gaussian 16, Revision A.03,
 Gaussian 16:  ES64L-G16RevA.03 25-Dec-2016

 ------------------
 #p CCSD(T)/cc-pVTZ
 ------------------

 ------------
 H2O_H2O_2543
 ------------
 Symbolic Z-matrix:
 Charge =  0 Multiplicity = 1

                         Standard orientation:
 ---------------------------------------------------------------------
 Center     Atomic      Atomic             Coordinates (Angstroms)
 Number     Number       Type             X           Y           Z
 ---------------------------------------------------------------------
      1          8           0        0.033814    2.118334   -0.000000
      2          1           0        0.031339    1.135736   -0.000000
      3          1           0       -0.894874    2.439340   -0.000000
      4          8           0        0.033814   -1.940829    0.000000
      5          1           0        0.940669   -2.319139    0.000000
      6          1           0       -0.618151   -2.675982    0.000000
 ---------------------------------------------------------------------

 SCF Done:  E(RHF) =  -152.110905495     A.U. after   10 cycles
 E2 =    -0.5260606219D+00 EUMP2 =    -0.15263696611698D+03
 CCSD(T)
 CCSD(T)= -0.15266407524D+03

 The electronic state is 1-A'.
 Alpha  occ. eigenvalues --  -20.56906 -20.54177  -1.34172  -1.31509  -0.71568
 Alpha  occ. eigenvalues --   -0.68911  -0.57766  -0.54999  -0.51308  -0.48654
 Alpha virt. eigenvalues --    0.12357   0.16415   0.19311   0.24058   0.52958
 Alpha virt. eigenvalues --    0.55544   0.56412   0.58803   0.69040   0.70495
 Alpha virt. eigenvalues --    0.77429   0.78846   0.80186   0.80791   0.83646

 Mulliken charges:
               1
     1  O   -0.523942
     2  H    0.266184
     3  H    0.252060
     4  O   -0.512252
     5  H    0.260410
     6  H    0.257541
 Sum of Mulliken charges =  -0.00000

 Dipole moment (field-independent basis, Debye):
    X=             -1.1505    Y=             -3.2482    Z=              0.0000  Tot=              3.4459
 Quadrupole moment (field-independent basis, Debye-Ang):
   XX=             -9.1861   YY=             -7.5661   ZZ=            -14.7231
   XY=             -4.8508   XZ=              0.0000   YZ=             -0.0000

 CCSD(T)=-152.6640752\RMSD=6.634e-09\PG=CS [SG(H4O2)]\\@
 Normal termination of Gaussian 16 at Fri Aug 26 15:29:46 2022.
