 Gaussian 16, Revision A.03,
 Gaussian 16:  ES64L-G16RevA.03 25-Dec-2016

 ------------------
 #p CCSD(T)/cc-pVTZ
 ------------------

 ------------
 H2O_H2O_4578
 ------------
 Symbolic Z-matrix:
 Charge =  0 Multiplicity = 1

                         Standard orientation:
 ---------------------------------------------------------------------
 Center     Atomic      Atomic             Coordinates (Angstroms)
 Number     Number       Type             X           Y           Z
 ---------------------------------------------------------------------
      1          8           0        0.085597   -2.920871    0.000000
      2          1           0        0.085377   -1.938270    0.000000
      3          1           0       -0.843825   -3.239745    0.000000
      4          8           0        0.085597    2.771264    0.000000
      5          1           0        0.277078    3.735028    0.000000
      6          1           0       -0.888176    2.639838    0.000000
 ---------------------------------------------------------------------

 SCF Done:  E(RHF) =  -152.107832272     A.U. after   10 cycles
 E2 =    -0.5258565276D+00 EUMP2 =    -0.15263368879959D+03
 CCSD(T)
 CCSD(T)= -0.15266089898D+03

 The electronic state is 1-A'.
 Alpha  occ. eigenvalues --  -20.56190 -20.55223  -1.33492  -1.32525  -0.70904
 Alpha  occ. eigenvalues --   -0.69923  -0.56959  -0.55982  -0.50605  -0.49641
 Alpha virt. eigenvalues --    0.13048   0.14740   0.19209   0.21306   0.53366
 Alpha virt. eigenvalues --    0.54825   0.56589   0.57696   0.66934   0.68505
 Alpha virt. eigenvalues --    0.78285   0.79228   0.79602   0.80996   0.81921

 Mulliken charges:
               1
     1  O   -0.510595
     2  H    0.258252
     3  H    0.252278
     4  O   -0.511583
     5  H    0.258258
     6  H    0.253391
 Sum of Mulliken charges =   0.00000

 Dipole moment (field-independent basis, Debye):
    X=             -2.9359    Y=              2.6237    Z=              0.0000  Tot=              3.9374
 Quadrupole moment (field-independent basis, Debye-Ang):
   XX=            -10.3968   YY=             -8.1060   ZZ=            -14.7126
   XY=              2.9500   XZ=              0.0000   YZ=              0.0000

 Normal termination of Gaussian 16 at Sun Aug 28 04:06:32 2022.
