 Gaussian 16, Revision A.03,
 Gaussian 16:  ES64L-G16RevA.03 25-Dec-2016

 ------------------
 #p CCSD(T)/cc-pVTZ
 ------------------

 ------------
 H2O_H2O_3955
 ------------
 Symbolic Z-matrix:
 Charge =  0 Multiplicity = 1

                         Standard orientation:
 ---------------------------------------------------------------------
 Center     Atomic      Atomic             Coordinates (Angstroms)
 Number     Number       Type             X           Y           Z
 ---------------------------------------------------------------------
      1          8           0        0.079847    2.676714    0.000000
      2          1           0        0.079419    1.694113    0.000000
      3          1           0       -0.849507    2.995785    0.000000
      4          8           0        0.079847   -2.517642    0.000000
      5          1           0        0.395288   -3.448234    0.000000
      6          1           0       -0.902749   -2.514235    0.000000
 ---------------------------------------------------------------------

 SCF Done:  E(RHF) =  -152.108204046     A.U. after   10 cycles
 E2 =    -0.5258710326D+00 EUMP2 =    -0.15263407507878D+03
 CCSD(T)
 CCSD(T)= -0.15266127174D+03

 The electronic state is 1-A'.
 Alpha  occ. eigenvalues --  -20.56316 -20.55032  -1.33616  -1.32338  -0.71028
 Alpha  occ. eigenvalues --   -0.69731  -0.57096  -0.55800  -0.50731  -0.49456
 Alpha virt. eigenvalues --    0.12688   0.15100   0.19291   0.21599   0.53228
 Alpha virt. eigenvalues --    0.55013   0.56512   0.57886   0.66714   0.68950
 Alpha virt. eigenvalues --    0.78166   0.78998   0.79404   0.80796   0.82637

 Mulliken charges:
               1
     1  O   -0.511978
     2  H    0.259966
     3  H    0.251628
     4  O   -0.512846
     5  H    0.259317
     6  H    0.253913
 Sum of Mulliken charges =  -0.00000

 Dipole moment (field-independent basis, Debye):
    X=             -2.7333    Y=             -2.8081    Z=             -0.0000  Tot=              3.9187
 Quadrupole moment (field-independent basis, Debye-Ang):
   XX=            -10.0959   YY=             -7.6933   ZZ=            -14.7139
   XY=             -3.3545   XZ=             -0.0000   YZ=             -0.0000

 Normal termination of Gaussian 16 at Sat Aug 27 00:40:14 2022.
