 Gaussian 16, Revision A.03,
 Gaussian 16:  ES64L-G16RevA.03 25-Dec-2016

 ------------------
 #p CCSD(T)/cc-pVTZ
 ------------------

 ------------
 H2O_H2O_2882
 ------------
 Symbolic Z-matrix:
 Charge =  0 Multiplicity = 1

                         Standard orientation:
 ---------------------------------------------------------------------
 Center     Atomic      Atomic             Coordinates (Angstroms)
 Number     Number       Type             X           Y           Z
 ---------------------------------------------------------------------
      1          8           0        0.073539    2.252194   -0.000000
      2          1           0        0.072779    1.269593   -0.000000
      3          1           0       -0.855708    2.571579   -0.000000
      4          8           0        0.073539   -2.085257    0.000000
      5          1           0        0.507450   -2.966862    0.000000
      6          1           0       -0.901138   -2.209805    0.000000
 ---------------------------------------------------------------------

 SCF Done:  E(RHF) =  -152.109397317     A.U. after   10 cycles
 E2 =    -0.5260294394D+00 EUMP2 =    -0.15263542675621D+03
 CCSD(T)
 CCSD(T)= -0.15266257458D+03

 The electronic state is 1-A'.
 Alpha  occ. eigenvalues --  -20.56714 -20.54596  -1.33995  -1.31912  -0.71409
 Alpha  occ. eigenvalues --   -0.69295  -0.57516  -0.55384  -0.51118  -0.49040
 Alpha virt. eigenvalues --    0.12162   0.15891   0.19436   0.22926   0.53664
 Alpha virt. eigenvalues --    0.55267   0.56282   0.58561   0.68445   0.69352
 Alpha virt. eigenvalues --    0.77756   0.78938   0.79807   0.80227   0.83055

 Mulliken charges:
               1
     1  O   -0.516292
     2  H    0.263704
     3  H    0.249529
     4  O   -0.511067
     5  H    0.259937
     6  H    0.254189
 Sum of Mulliken charges =  -0.00000

 Dipole moment (field-independent basis, Debye):
    X=             -2.5041    Y=             -3.0144    Z=              0.0000  Tot=              3.9188
 Quadrupole moment (field-independent basis, Debye-Ang):
   XX=             -9.8179   YY=             -7.7435   ZZ=            -14.7179
   XY=             -3.5145   XZ=              0.0000   YZ=             -0.0000

 Normal termination of Gaussian 16 at Fri Aug 26 17:59:50 2022.
