 Gaussian 16, Revision A.03,
 Gaussian 16:  ES64L-G16RevA.03 25-Dec-2016

 ------------------
 #p CCSD(T)/cc-pVTZ
 ------------------

 ------------
 H2O_H2O_2038
 ------------
 Symbolic Z-matrix:
 Charge =  0 Multiplicity = 1

                         Standard orientation:
 ---------------------------------------------------------------------
 Center     Atomic      Atomic             Coordinates (Angstroms)
 Number     Number       Type             X           Y           Z
 ---------------------------------------------------------------------
      1          8           0        0.052332    1.920169    0.000000
      2          1           0        0.050446    0.937569    0.000000
      3          1           0       -0.876548    2.240618    0.000000
      4          8           0        0.052332   -1.740317    0.000000
      5          1           0        0.789847   -2.389606    0.000000
      6          1           0       -0.801049   -2.227398    0.000000
 ---------------------------------------------------------------------

 SCF Done:  E(RHF) =  -152.112112521     A.U. after   10 cycles
 E2 =    -0.5264027364D+00 EUMP2 =    -0.15263851525785D+03
 CCSD(T)
 CCSD(T)= -0.15266558364D+03

 The electronic state is 1-A'.
 Alpha  occ. eigenvalues --  -20.57327 -20.53728  -1.34579  -1.31084  -0.71963
 Alpha  occ. eigenvalues --   -0.68506  -0.58257  -0.54543  -0.51717  -0.48233
 Alpha virt. eigenvalues --    0.12196   0.16914   0.19199   0.26039   0.51604
 Alpha virt. eigenvalues --    0.55191   0.56349   0.58966   0.69027   0.72274
 Alpha virt. eigenvalues --    0.76358   0.77670   0.80682   0.83444   0.84146

 Mulliken charges:
               1
     1  O   -0.528233
     2  H    0.269240
     3  H    0.248221
     4  O   -0.507760
     5  H    0.261873
     6  H    0.256659
 Sum of Mulliken charges =  -0.00000

 Dipole moment (field-independent basis, Debye):
    X=             -1.7696    Y=             -3.3770    Z=              0.0000  Tot=              3.8125
 Quadrupole moment (field-independent basis, Debye-Ang):
   XX=             -9.2313   YY=             -7.8498   ZZ=            -14.7280
   XY=             -3.9594   XZ=             -0.0000   YZ=              0.0000

 Normal termination of Gaussian 16 at Sun Aug 28 03:47:00 2022.
