 Gaussian 16, Revision A.03,
 Gaussian 16:  ES64L-G16RevA.03 25-Dec-2016

 ------------------
 #p CCSD(T)/cc-pVTZ
 ------------------

 ------------
 H2O_H2O_3987
 ------------
 Symbolic Z-matrix:
 Charge =  0 Multiplicity = 1

                         Standard orientation:
 ---------------------------------------------------------------------
 Center     Atomic      Atomic             Coordinates (Angstroms)
 Number     Number       Type             X           Y           Z
 ---------------------------------------------------------------------
      1          8           0        0.055973    2.697474    0.000000
      2          1           0        0.054770    1.714873    0.000000
      3          1           0       -0.873129    3.017278   -0.000000
      4          8           0        0.055973   -2.518545    0.000000
      5          1           0        0.749927   -3.214199    0.000000
      6          1           0       -0.827138   -2.949384   -0.000000
 ---------------------------------------------------------------------

 SCF Done:  E(RHF) =  -152.108660800     A.U. after   10 cycles
 E2 =    -0.5258302352D+00 EUMP2 =    -0.15263449103521D+03
 CCSD(T)
 CCSD(T)= -0.15266167780D+03

 The electronic state is 1-A'.
 Alpha  occ. eigenvalues --  -20.56298 -20.54831  -1.33596  -1.32140  -0.71000
 Alpha  occ. eigenvalues --   -0.69538  -0.57097  -0.55614  -0.50716  -0.49265
 Alpha virt. eigenvalues --    0.13048   0.15187   0.19617   0.21321   0.53522
 Alpha virt. eigenvalues --    0.54920   0.56570   0.57842   0.66682   0.69095
 Alpha virt. eigenvalues --    0.78178   0.79309   0.79584   0.79834   0.82867

 Mulliken charges:
               1
     1  O   -0.514557
     2  H    0.261559
     3  H    0.252527
     4  O   -0.515076
     5  H    0.259227
     6  H    0.256319
 Sum of Mulliken charges =  -0.00000

 Dipole moment (field-independent basis, Debye):
    X=             -1.9165    Y=             -3.1590    Z=             -0.0000  Tot=              3.6949
 Quadrupole moment (field-independent basis, Debye-Ang):
   XX=             -9.2855   YY=             -6.6250   ZZ=            -14.7157
   XY=             -4.8605   XZ=              0.0000   YZ=             -0.0000

 Normal termination of Gaussian 16 at Sat Aug 27 00:51:06 2022.
