 Gaussian 16, Revision A.03,
 Gaussian 16:  ES64L-G16RevA.03 25-Dec-2016

 ------------------
 #p CCSD(T)/cc-pVTZ
 ------------------

 -----------
 H2O_H2O_456
 -----------
 Symbolic Z-matrix:
 Charge =  0 Multiplicity = 1

                         Standard orientation:
 ---------------------------------------------------------------------
 Center     Atomic      Atomic             Coordinates (Angstroms)
 Number     Number       Type             X           Y           Z
 ---------------------------------------------------------------------
      1          8           0        0.076803   -1.282849    0.000000
      2          1           0        0.075659   -0.300249    0.000000
      3          1           0       -0.852319   -1.602598    0.000000
      4          8           0        0.076803    1.119725    0.000000
      5          1           0        0.451771    2.027968    0.000000
      6          1           0       -0.903956    1.179875    0.000000
 ---------------------------------------------------------------------

 SCF Done:  E(RHF) =  -152.093265983     A.U. after   11 cycles
 E2 =    -0.5329807402D+00 EUMP2 =    -0.15262624672279D+03
 CCSD(T)
 CCSD(T)= -0.15265259337D+03

 The electronic state is 1-A'.
 Alpha  occ. eigenvalues --  -20.60308 -20.49503  -1.39125  -1.27905  -0.77067
 Alpha  occ. eigenvalues --   -0.70072  -0.58568  -0.55498  -0.50142  -0.44830
 Alpha virt. eigenvalues --    0.11094   0.16656   0.20527   0.32910   0.48570
 Alpha virt. eigenvalues --    0.52888   0.59521   0.63988   0.71998   0.72260
 Alpha virt. eigenvalues --    0.74259   0.78657   0.78880   0.83873   0.84377

 Mulliken charges:
               1
     1  O   -0.593535
     2  H    0.297040
     3  H    0.215718
     4  O   -0.392505
     5  H    0.235179
     6  H    0.238103
 Sum of Mulliken charges =  -0.00000

 Dipole moment (field-independent basis, Debye):
    X=             -2.4423    Y=              3.9688    Z=              0.0000  Tot=              4.6601
 Quadrupole moment (field-independent basis, Debye-Ang):
   XX=             -9.9663   YY=             -9.4071   ZZ=            -14.6442
   XY=              2.6832   XZ=              0.0000   YZ=              0.0000

 Normal termination of Gaussian 16 at Fri Aug 26 18:23:22 2022.
