 Gaussian 16, Revision A.03,
 Gaussian 16:  ES64L-G16RevA.03 25-Dec-2016

 ------------------
 #p CCSD(T)/cc-pVTZ
 ------------------

 ------------
 H2O_H2O_4590
 ------------
 Symbolic Z-matrix:
 Charge =  0 Multiplicity = 1

                         Standard orientation:
 ---------------------------------------------------------------------
 Center     Atomic      Atomic             Coordinates (Angstroms)
 Number     Number       Type             X           Y           Z
 ---------------------------------------------------------------------
      1          8           0        0.044824    2.937618    0.000000
      2          1           0        0.043390    1.955018    0.000000
      3          1           0       -0.884203    3.257641    0.000000
      4          8           0        0.044824   -2.757185    0.000000
      5          1           0        0.861030   -3.304280    0.000000
      6          1           0       -0.737406   -3.351847    0.000000
 ---------------------------------------------------------------------

 SCF Done:  E(RHF) =  -152.108397633     A.U. after   10 cycles
 E2 =    -0.5258058959D+00 EUMP2 =    -0.15263420352921D+03
 CCSD(T)
 CCSD(T)= -0.15266140160D+03

 The electronic state is 1-A'.
 Alpha  occ. eigenvalues --  -20.56169 -20.54959  -1.33470  -1.32266  -0.70874
 Alpha  occ. eigenvalues --   -0.69668  -0.56963  -0.55737  -0.50589  -0.49389
 Alpha virt. eigenvalues --    0.13409   0.14902   0.19713   0.21011   0.53677
 Alpha virt. eigenvalues --    0.54842   0.56678   0.57796   0.66880   0.68707
 Alpha virt. eigenvalues --    0.78296   0.79468   0.79703   0.80197   0.82620

 Mulliken charges:
               1
     1  O   -0.513847
     2  H    0.260293
     3  H    0.253451
     4  O   -0.514554
     5  H    0.258093
     6  H    0.256564
 Sum of Mulliken charges =  -0.00000

 Dipole moment (field-independent basis, Debye):
    X=             -1.5377    Y=             -3.1650    Z=              0.0000  Tot=              3.5187
 Quadrupole moment (field-independent basis, Debye-Ang):
   XX=             -9.1569   YY=             -6.1561   ZZ=            -14.7148
   XY=             -5.8474   XZ=              0.0000   YZ=              0.0000

 Normal termination of Gaussian 16 at Sun Aug 28 04:10:53 2022.
