 Gaussian 16, Revision A.03,
 Gaussian 16:  ES64L-G16RevA.03 25-Dec-2016

 ------------------
 #p CCSD(T)/cc-pVTZ
 ------------------

 ------------
 H2O_H2O_1280
 ------------
 Symbolic Z-matrix:
 Charge =  0 Multiplicity = 1

                         Standard orientation:
 ---------------------------------------------------------------------
 Center     Atomic      Atomic             Coordinates (Angstroms)
 Number     Number       Type             X           Y           Z
 ---------------------------------------------------------------------
      1          8           0        0.079871   -1.609693    0.000000
      2          1           0        0.079145   -0.627092    0.000000
      3          1           0       -0.849386   -1.929047    0.000000
      4          8           0        0.079871    1.450670    0.000000
      5          1           0        0.395030    2.381358    0.000000
      6          1           0       -0.902723    1.446964    0.000000
 ---------------------------------------------------------------------

 SCF Done:  E(RHF) =  -152.111368740     A.U. after   10 cycles
 E2 =    -0.5279803813D+00 EUMP2 =    -0.15263934912085D+03
 CCSD(T)
 CCSD(T)= -0.15266634192D+03

 The electronic state is 1-A'.
 Alpha  occ. eigenvalues --  -20.58242 -20.53255  -1.35636  -1.30714  -0.73215
 Alpha  occ. eigenvalues --   -0.68298  -0.59230  -0.53983  -0.52698  -0.47823
 Alpha virt. eigenvalues --    0.11671   0.16794   0.19814   0.29599   0.48986
 Alpha virt. eigenvalues --    0.54774   0.58175   0.58496   0.69354   0.73282
 Alpha virt. eigenvalues --    0.74627   0.76883   0.81472   0.82129   0.83917

 Mulliken charges:
               1
     1  O   -0.537206
     2  H    0.281388
     3  H    0.237836
     4  O   -0.478027
     5  H    0.247427
     6  H    0.248583
 Sum of Mulliken charges =  -0.00000

 Dipole moment (field-independent basis, Debye):
    X=             -2.6553    Y=              3.1932    Z=              0.0000  Tot=              4.1530
 Quadrupole moment (field-independent basis, Debye-Ang):
   XX=            -10.1374   YY=             -8.6849   ZZ=            -14.7191
   XY=              2.8411   XZ=              0.0000   YZ=              0.0000

 Normal termination of Gaussian 16 at Fri Aug 26 23:34:32 2022.
