 Gaussian 16, Revision A.03,
 Gaussian 16:  ES64L-G16RevA.03 25-Dec-2016

 ------------------
 #p CCSD(T)/cc-pVTZ
 ------------------

 ------------
 H2O_H2O_3763
 ------------
 Symbolic Z-matrix:
 Charge =  0 Multiplicity = 1

                         Standard orientation:
 ---------------------------------------------------------------------
 Center     Atomic      Atomic             Coordinates (Angstroms)
 Number     Number       Type             X           Y           Z
 ---------------------------------------------------------------------
      1          8           0        0.052284    2.608259    0.000000
      2          1           0        0.050914    1.625658    0.000000
      3          1           0       -0.876763    2.928221    0.000000
      4          8           0        0.052284   -2.428352   -0.000000
      5          1           0        0.790139   -3.077255   -0.000000
      6          1           0       -0.800840   -2.915880   -0.000000
 ---------------------------------------------------------------------

 SCF Done:  E(RHF) =  -152.108886795     A.U. after   10 cycles
 E2 =    -0.5258402011D+00 EUMP2 =    -0.15263472699565D+03
 CCSD(T)
 CCSD(T)= -0.15266190557D+03

 The electronic state is 1-A'.
 Alpha  occ. eigenvalues --  -20.56359 -20.54750  -1.33653  -1.32062  -0.71057
 Alpha  occ. eigenvalues --   -0.69459  -0.57163  -0.55539  -0.50775  -0.49189
 Alpha virt. eigenvalues --    0.12920   0.15339   0.19599   0.21504   0.53489
 Alpha virt. eigenvalues --    0.54968   0.56532   0.57898   0.66754   0.69230
 Alpha virt. eigenvalues --    0.78124   0.79225   0.79611   0.79655   0.82950

 Mulliken charges:
               1
     1  O   -0.515436
     2  H    0.262193
     3  H    0.252465
     4  O   -0.515407
     5  H    0.259477
     6  H    0.256708
 Sum of Mulliken charges =   0.00000

 Dipole moment (field-independent basis, Debye):
    X=             -1.7888    Y=             -3.1870    Z=             -0.0000  Tot=              3.6547
 Quadrupole moment (field-independent basis, Debye-Ang):
   XX=             -9.2254   YY=             -6.7177   ZZ=            -14.7165
   XY=             -4.9320   XZ=             -0.0000   YZ=             -0.0000

 Normal termination of Gaussian 16 at Fri Aug 26 23:32:19 2022.
