 Gaussian 16, Revision A.03,
 Gaussian 16:  ES64L-G16RevA.03 25-Dec-2016

 ------------------
 #p CCSD(T)/cc-pVTZ
 ------------------

 ------------
 H2O_H2O_3096
 ------------
 Symbolic Z-matrix:
 Charge =  0 Multiplicity = 1

                         Standard orientation:
 ---------------------------------------------------------------------
 Center     Atomic      Atomic             Coordinates (Angstroms)
 Number     Number       Type             X           Y           Z
 ---------------------------------------------------------------------
      1          8           0       -0.023211    2.333851    0.000000
      2          1           0       -0.020579    1.351253    0.000000
      3          1           0        0.905425    2.655006    0.000000
      4          8           0       -0.023211   -2.163465    0.000000
      5          1           0       -0.986415   -2.357741    0.000000
      6          1           0        0.472942   -3.011603    0.000000
 ---------------------------------------------------------------------

 SCF Done:  E(RHF) =  -152.109758485     A.U. after   10 cycles
 E2 =    -0.5259019396D+00 EUMP2 =    -0.15263566042511D+03
 CCSD(T)
 CCSD(T)= -0.15266280863D+03

 The electronic state is 1-A'.
 Alpha  occ. eigenvalues --  -20.56589 -20.54581  -1.33874  -1.31900  -0.71278
 Alpha  occ. eigenvalues --   -0.69304  -0.57414  -0.55391  -0.51002  -0.49037
 Alpha virt. eigenvalues --    0.12436   0.15855   0.19347   0.22709   0.53473
 Alpha virt. eigenvalues --    0.55495   0.56457   0.58272   0.67889   0.69349
 Alpha virt. eigenvalues --    0.77893   0.78818   0.79796   0.80189   0.83141

 Mulliken charges:
               1
     1  O   -0.519560
     2  H    0.263238
     3  H    0.253942
     4  O   -0.515340
     5  H    0.259127
     6  H    0.258593
 Sum of Mulliken charges =  -0.00000

 Dipole moment (field-independent basis, Debye):
    X=              0.7941    Y=             -3.0583    Z=              0.0000  Tot=              3.1597
 Quadrupole moment (field-independent basis, Debye-Ang):
   XX=             -9.3612   YY=             -7.4974   ZZ=            -14.7194
   XY=              5.7745   XZ=              0.0000   YZ=              0.0000

 Normal termination of Gaussian 16 at Fri Aug 26 19:44:48 2022.
