 Gaussian 16, Revision A.03,
 Gaussian 16:  ES64L-G16RevA.03 25-Dec-2016

 ------------------
 #p CCSD(T)/cc-pVTZ
 ------------------

 -----------
 H2O_H2O_777
 -----------
 Symbolic Z-matrix:
 Charge =  0 Multiplicity = 1

                         Standard orientation:
 ---------------------------------------------------------------------
 Center     Atomic      Atomic             Coordinates (Angstroms)
 Number     Number       Type             X           Y           Z
 ---------------------------------------------------------------------
      1          8           0        0.088241   -1.402254    0.000000
      2          1           0        0.087940   -0.419653    0.000000
      3          1           0       -0.841155   -1.721205    0.000000
      4          8           0        0.088241    1.257957    0.000000
      5          1           0        0.216198    2.232192    0.000000
      6          1           0       -0.874835    1.063045    0.000000
 ---------------------------------------------------------------------

 SCF Done:  E(RHF) =  -152.103489613     A.U. after   10 cycles
 E2 =    -0.5308032921D+00 EUMP2 =    -0.15263429290478D+03
 CCSD(T)
 CCSD(T)= -0.15266108913D+03

 The electronic state is 1-A'.
 Alpha  occ. eigenvalues --  -20.59238 -20.52346  -1.37220  -1.30082  -0.75616
 Alpha  occ. eigenvalues --   -0.68050  -0.59752  -0.53963  -0.53056  -0.47110
 Alpha virt. eigenvalues --    0.11387   0.16523   0.20584   0.31822   0.48257
 Alpha virt. eigenvalues --    0.52871   0.58616   0.62376   0.69036   0.71603
 Alpha virt. eigenvalues --    0.74082   0.78114   0.79410   0.82717   0.83144

 Mulliken charges:
               1
     1  O   -0.551829
     2  H    0.289618
     3  H    0.225202
     4  O   -0.429030
     5  H    0.234095
     6  H    0.231943
 Sum of Mulliken charges =   0.00000

 Dipole moment (field-independent basis, Debye):
    X=             -2.8756    Y=              3.2044    Z=              0.0000  Tot=              4.3055
 Quadrupole moment (field-independent basis, Debye-Ang):
   XX=            -10.6016   YY=             -9.1716   ZZ=            -14.6770
   XY=              2.3501   XZ=              0.0000   YZ=              0.0000

 Normal termination of Gaussian 16 at Fri Aug 26 20:26:51 2022.
