 Gaussian 16, Revision A.03,
 Gaussian 16:  ES64L-G16RevA.03 25-Dec-2016

 ------------------
 #p CCSD(T)/cc-pVTZ
 ------------------

 ------------
 H2O_H2O_4515
 ------------
 Symbolic Z-matrix:
 Charge =  0 Multiplicity = 1

                         Standard orientation:
 ---------------------------------------------------------------------
 Center     Atomic      Atomic             Coordinates (Angstroms)
 Number     Number       Type             X           Y           Z
 ---------------------------------------------------------------------
      1          8           0        0.044826    2.907702   -0.000000
      2          1           0        0.043377    1.925101   -0.000000
      3          1           0       -0.884196    3.227738   -0.000000
      4          8           0        0.044826   -2.727269    0.000000
      5          1           0        0.861023   -3.274378    0.000000
      6          1           0       -0.737414   -3.321920    0.000000
 ---------------------------------------------------------------------

 SCF Done:  E(RHF) =  -152.108434423     A.U. after   10 cycles
 E2 =    -0.5258063688D+00 EUMP2 =    -0.15263424079202D+03
 CCSD(T)
 CCSD(T)= -0.15266143766D+03

 The electronic state is 1-A'.
 Alpha  occ. eigenvalues --  -20.56182 -20.54942  -1.33483  -1.32250  -0.70887
 Alpha  occ. eigenvalues --   -0.69651  -0.56977  -0.55721  -0.50602  -0.49373
 Alpha virt. eigenvalues --    0.13376   0.14934   0.19705   0.21041   0.53664
 Alpha virt. eigenvalues --    0.54850   0.56668   0.57800   0.66840   0.68755
 Alpha virt. eigenvalues --    0.78284   0.79482   0.79689   0.80120   0.82677

 Mulliken charges:
               1
     1  O   -0.513997
     2  H    0.260460
     3  H    0.253411
     4  O   -0.514709
     5  H    0.258202
     6  H    0.256634
 Sum of Mulliken charges =  -0.00000

 Dipole moment (field-independent basis, Debye):
    X=             -1.5374    Y=             -3.1670    Z=              0.0000  Tot=              3.5204
 Quadrupole moment (field-independent basis, Debye-Ang):
   XX=             -9.1569   YY=             -6.2053   ZZ=            -14.7149
   XY=             -5.7976   XZ=              0.0000   YZ=             -0.0000

 Normal termination of Gaussian 16 at Sun Aug 28 03:30:30 2022.
