 Gaussian 16, Revision A.03,
 Gaussian 16:  ES64L-G16RevA.03 25-Dec-2016

 ------------------
 #p CCSD(T)/cc-pVTZ
 ------------------

 -----------
 H2O_H2O_522
 -----------
 Symbolic Z-matrix:
 Charge =  0 Multiplicity = 1

                         Standard orientation:
 ---------------------------------------------------------------------
 Center     Atomic      Atomic             Coordinates (Angstroms)
 Number     Number       Type             X           Y           Z
 ---------------------------------------------------------------------
      1          8           0       -0.020060    1.304919    0.000000
      2          1           0       -0.014982    0.322331    0.000000
      3          1           0        0.907774    1.628385    0.000000
      4          8           0       -0.020060   -1.137911    0.000000
      5          1           0       -0.993580   -1.271198    0.000000
      6          1           0        0.421745   -2.015586    0.000000
 ---------------------------------------------------------------------

 SCF Done:  E(RHF) =  -152.099158733     A.U. after   11 cycles
 E2 =    -0.5317283261D+00 EUMP2 =    -0.15263088705932D+03
 CCSD(T)
 CCSD(T)= -0.15265728503D+03

 The electronic state is 1-A'.
 Alpha  occ. eigenvalues --  -20.60043 -20.49258  -1.38616  -1.27656  -0.76337
 Alpha  occ. eigenvalues --   -0.69583  -0.59226  -0.55167  -0.49741  -0.44639
 Alpha virt. eigenvalues --    0.11489   0.17993   0.19569   0.33955   0.47658
 Alpha virt. eigenvalues --    0.53449   0.58557   0.68271   0.69517   0.72163
 Alpha virt. eigenvalues --    0.74348   0.76907   0.79327   0.83865   0.84213

 Mulliken charges:
               1
     1  O   -0.616632
     2  H    0.299051
     3  H    0.239363
     4  O   -0.417447
     5  H    0.259756
     6  H    0.235910
 Sum of Mulliken charges =  -0.00000

 Dipole moment (field-independent basis, Debye):
    X=              0.6527    Y=             -4.0065    Z=              0.0000  Tot=              4.0593
 Quadrupole moment (field-independent basis, Debye-Ang):
   XX=             -9.3981   YY=             -9.3679   ZZ=            -14.6662
   XY=              3.3012   XZ=              0.0000   YZ=              0.0000

 Normal termination of Gaussian 16 at Fri Aug 26 18:49:03 2022.
