 Gaussian 16, Revision A.03,
 Gaussian 16:  ES64L-G16RevA.03 25-Dec-2016

 ------------------
 #p CCSD(T)/cc-pVTZ
 ------------------

 ------------
 H2O_H2O_3574
 ------------
 Symbolic Z-matrix:
 Charge =  0 Multiplicity = 1

                         Standard orientation:
 ---------------------------------------------------------------------
 Center     Atomic      Atomic             Coordinates (Angstroms)
 Number     Number       Type             X           Y           Z
 ---------------------------------------------------------------------
      1          8           0       -0.013502    2.517279    0.000000
      2          1           0       -0.010737    1.534682    0.000000
      3          1           0        0.915091    2.838560    0.000000
      4          8           0       -0.013502   -2.358012    0.000000
      5          1           0       -0.996100   -2.360776    0.000000
      6          1           0        0.307778   -3.286605    0.000000
 ---------------------------------------------------------------------

 SCF Done:  E(RHF) =  -152.109032053     A.U. after   10 cycles
 E2 =    -0.5258387383D+00 EUMP2 =    -0.15263487079098D+03
 CCSD(T)
 CCSD(T)= -0.15266204602D+03

 The electronic state is 1-A'.
 Alpha  occ. eigenvalues --  -20.56399 -20.54881  -1.33697  -1.32193  -0.71105
 Alpha  occ. eigenvalues --   -0.69601  -0.57209  -0.55676  -0.50819  -0.49323
 Alpha virt. eigenvalues --    0.12503   0.15445   0.19190   0.22257   0.53278
 Alpha virt. eigenvalues --    0.55340   0.56561   0.57922   0.66889   0.69196
 Alpha virt. eigenvalues --    0.78080   0.78725   0.79523   0.80819   0.82865

 Mulliken charges:
               1
     1  O   -0.516800
     2  H    0.260831
     3  H    0.255065
     4  O   -0.515891
     5  H    0.257675
     6  H    0.259121
 Sum of Mulliken charges =   0.00000

 Dipole moment (field-independent basis, Debye):
    X=              0.4650    Y=             -2.8264    Z=              0.0000  Tot=              2.8644
 Quadrupole moment (field-independent basis, Debye-Ang):
   XX=             -9.6478   YY=             -7.7905   ZZ=            -14.7168
   XY=              6.8118   XZ=              0.0000   YZ=              0.0000

 CCSD(T)=-152.662046\RMSD=7.023e-09\PG=CS [SG(H4O2)]\\@
 Normal termination of Gaussian 16 at Fri Aug 26 22:28:16 2022.
