 Gaussian 16, Revision A.03,
 Gaussian 16:  ES64L-G16RevA.03 25-Dec-2016

 ------------------
 #p CCSD(T)/cc-pVTZ
 ------------------

 -----------
 H2O_H2O_356
 -----------
 Symbolic Z-matrix:
 Charge =  0 Multiplicity = 1

                         Standard orientation:
 ---------------------------------------------------------------------
 Center     Atomic      Atomic             Coordinates (Angstroms)
 Number     Number       Type             X           Y           Z
 ---------------------------------------------------------------------
      1          8           0        0.076806   -1.242959    0.000000
      2          1           0        0.075623   -0.260358    0.000000
      3          1           0       -0.852303   -1.562744    0.000000
      4          8           0        0.076806    1.079840    0.000000
      5          1           0        0.451738    1.988098    0.000000
      6          1           0       -0.903955    1.139951    0.000000
 ---------------------------------------------------------------------

 SCF Done:  E(RHF) =  -152.084769622     A.U. after   11 cycles
 E2 =    -0.5340281748D+00 EUMP2 =    -0.15261879779642D+03
 CCSD(T)
 CCSD(T)= -0.15264497082D+03

 The electronic state is 1-A'.
 Alpha  occ. eigenvalues --  -20.60682 -20.48673  -1.40022  -1.27349  -0.78061
 Alpha  occ. eigenvalues --   -0.70888  -0.57915  -0.56109  -0.49290  -0.44220
 Alpha virt. eigenvalues --    0.10950   0.16519   0.20742   0.32828   0.48782
 Alpha virt. eigenvalues --    0.52563   0.59701   0.64443   0.71911   0.72616
 Alpha virt. eigenvalues --    0.75466   0.78050   0.79500   0.83996   0.84739

 Mulliken charges:
               1
     1  O   -0.602927
     2  H    0.293354
     3  H    0.210671
     4  O   -0.372504
     5  H    0.233684
     6  H    0.237721
 Sum of Mulliken charges =   0.00000

 Dipole moment (field-independent basis, Debye):
    X=             -2.4198    Y=              4.1153    Z=              0.0000  Tot=              4.7740
 Quadrupole moment (field-independent basis, Debye-Ang):
   XX=             -9.9560   YY=             -9.5492   ZZ=            -14.6223
   XY=              2.6384   XZ=              0.0000   YZ=              0.0000

 Normal termination of Gaussian 16 at Fri Aug 26 17:39:53 2022.
