 Gaussian 16, Revision A.03,
 Gaussian 16:  ES64L-G16RevA.03 25-Dec-2016

 ------------------
 #p CCSD(T)/cc-pVTZ
 ------------------

 -----------
 H2O_H2O_367
 -----------
 Symbolic Z-matrix:
 Charge =  0 Multiplicity = 1

                         Standard orientation:
 ---------------------------------------------------------------------
 Center     Atomic      Atomic             Coordinates (Angstroms)
 Number     Number       Type             X           Y           Z
 ---------------------------------------------------------------------
      1          8           0        0.037626    1.251496   -0.000000
      2          1           0        0.033572    0.268903   -0.000000
      3          1           0       -0.890545    1.573995    0.000000
      4          8           0        0.037626   -1.072683   -0.000000
      5          1           0        0.917094   -1.510908   -0.000000
      6          1           0       -0.662134   -1.762496    0.000000
 ---------------------------------------------------------------------

 SCF Done:  E(RHF) =  -152.089685098     A.U. after   11 cycles
 E2 =    -0.5328343958D+00 EUMP2 =    -0.15262251949360D+03
 CCSD(T)
 CCSD(T)= -0.15264865633D+03

 The electronic state is 1-A'.
 Alpha  occ. eigenvalues --  -20.60732 -20.47458  -1.39860  -1.26397  -0.76318
 Alpha  occ. eigenvalues --   -0.72837  -0.57598  -0.56169  -0.47923  -0.43241
 Alpha virt. eigenvalues --    0.11062   0.17449   0.20137   0.33733   0.47025
 Alpha virt. eigenvalues --    0.53177   0.61146   0.66573   0.69796   0.72067
 Alpha virt. eigenvalues --    0.76364   0.78891   0.80268   0.82801   0.83826

 Mulliken charges:
               1
     1  O   -0.634572
     2  H    0.307755
     3  H    0.224203
     4  O   -0.402991
     5  H    0.260605
     6  H    0.244999
 Sum of Mulliken charges =  -0.00000

 Dipole moment (field-independent basis, Debye):
    X=             -1.1872    Y=             -4.4962    Z=              0.0000  Tot=              4.6503
 Quadrupole moment (field-independent basis, Debye-Ang):
   XX=             -9.1155   YY=             -9.6626   ZZ=            -14.6458
   XY=             -2.9639   XZ=             -0.0000   YZ=              0.0000

 Normal termination of Gaussian 16 at Fri Aug 26 17:44:22 2022.
