 Gaussian 16, Revision A.03,
 Gaussian 16:  ES64L-G16RevA.03 25-Dec-2016

 ------------------
 #p CCSD(T)/cc-pVTZ
 ------------------

 -----------
 H2O_H2O_781
 -----------
 Symbolic Z-matrix:
 Charge =  0 Multiplicity = 1

                         Standard orientation:
 ---------------------------------------------------------------------
 Center     Atomic      Atomic             Coordinates (Angstroms)
 Number     Number       Type             X           Y           Z
 ---------------------------------------------------------------------
      1          8           0        0.076793   -1.412493    0.000000
      2          1           0        0.075761   -0.429892    0.000000
      3          1           0       -0.852364   -1.732136    0.000000
      4          8           0        0.076793    1.249352    0.000000
      5          1           0        0.451865    2.157551    0.000000
      6          1           0       -0.903958    1.309613    0.000000
 ---------------------------------------------------------------------

 SCF Done:  E(RHF) =  -152.107294637     A.U. after   10 cycles
 E2 =    -0.5302891029D+00 EUMP2 =    -0.15263758373963D+03
 CCSD(T)
 CCSD(T)= -0.15266431944D+03

 The electronic state is 1-A'.
 Alpha  occ. eigenvalues --  -20.59307 -20.51481  -1.37164  -1.29307  -0.74867
 Alpha  occ. eigenvalues --   -0.68472  -0.59633  -0.54022  -0.52157  -0.46349
 Alpha virt. eigenvalues --    0.11438   0.16899   0.20031   0.32338   0.48181
 Alpha virt. eigenvalues --    0.53831   0.59030   0.61370   0.69863   0.72178
 Alpha virt. eigenvalues --    0.74242   0.77477   0.80461   0.83094   0.83908

 Mulliken charges:
               1
     1  O   -0.566899
     2  H    0.297532
     3  H    0.227819
     4  O   -0.440665
     5  H    0.240083
     6  H    0.242131
 Sum of Mulliken charges =  -0.00000

 Dipole moment (field-independent basis, Debye):
    X=             -2.4995    Y=              3.6027    Z=              0.0000  Tot=              4.3849
 Quadrupole moment (field-independent basis, Debye-Ang):
   XX=             -9.9852   YY=             -9.0307   ZZ=            -14.6923
   XY=              2.8074   XZ=              0.0000   YZ=              0.0000

 Normal termination of Gaussian 16 at Fri Aug 26 20:28:19 2022.
