 Gaussian 16, Revision A.03,
 Gaussian 16:  ES64L-G16RevA.03 25-Dec-2016

 ------------------
 #p CCSD(T)/cc-pVTZ
 ------------------

 -----------
 H2O_H2O_838
 -----------
 Symbolic Z-matrix:
 Charge =  0 Multiplicity = 1

                         Standard orientation:
 ---------------------------------------------------------------------
 Center     Atomic      Atomic             Coordinates (Angstroms)
 Number     Number       Type             X           Y           Z
 ---------------------------------------------------------------------
      1          8           0       -0.052393    1.441482    0.000000
      2          1           0       -0.049840    0.458883    0.000000
      3          1           0        0.876269    1.762562    0.000000
      4          8           0       -0.052393   -1.261701    0.000000
      5          1           0       -0.789465   -1.911491    0.000000
      6          1           0        0.801318   -1.748202    0.000000
 ---------------------------------------------------------------------

 SCF Done:  E(RHF) =  -152.111308644     A.U. after   10 cycles
 E2 =    -0.5294774087D+00 EUMP2 =    -0.15264078605226D+03
 CCSD(T)
 CCSD(T)= -0.15266751891D+03

 The electronic state is 1-A'.
 Alpha  occ. eigenvalues --  -20.59236 -20.50866  -1.36925  -1.28737  -0.74010
 Alpha  occ. eigenvalues --   -0.68679  -0.59622  -0.53903  -0.51534  -0.45807
 Alpha virt. eigenvalues --    0.11640   0.17812   0.19288   0.32688   0.48009
 Alpha virt. eigenvalues --    0.54378   0.58586   0.61047   0.69915   0.71861
 Alpha virt. eigenvalues --    0.72498   0.77709   0.82040   0.82880   0.84619

 Mulliken charges:
               1
     1  O   -0.580033
     2  H    0.306284
     3  H    0.235004
     4  O   -0.479488
     5  H    0.263067
     6  H    0.255164
 Sum of Mulliken charges =  -0.00000

 Dipole moment (field-independent basis, Debye):
    X=              1.7127    Y=             -3.9200    Z=              0.0000  Tot=              4.2779
 Quadrupole moment (field-independent basis, Debye-Ang):
   XX=             -9.2248   YY=             -8.9597   ZZ=            -14.7144
   XY=              3.2442   XZ=              0.0000   YZ=              0.0000

 Normal termination of Gaussian 16 at Fri Aug 26 20:49:25 2022.
