 Gaussian 16, Revision A.03,
 Gaussian 16:  ES64L-G16RevA.03 25-Dec-2016

 ------------------
 #p CCSD(T)/cc-pVTZ
 ------------------

 ------------
 H2O_H2O_2709
 ------------
 Symbolic Z-matrix:
 Charge =  0 Multiplicity = 1

                         Standard orientation:
 ---------------------------------------------------------------------
 Center     Atomic      Atomic             Coordinates (Angstroms)
 Number     Number       Type             X           Y           Z
 ---------------------------------------------------------------------
      1          8           0        0.066767    2.185736   -0.000000
      2          1           0        0.065708    1.203135   -0.000000
      3          1           0       -0.862382    2.505404   -0.000000
      4          8           0        0.066767   -2.012642    0.000000
      5          1           0        0.611790   -2.830233    0.000000
      6          1           0       -0.883390   -2.263056    0.000000
 ---------------------------------------------------------------------

 SCF Done:  E(RHF) =  -152.109956551     A.U. after   10 cycles
 E2 =    -0.5260642573D+00 EUMP2 =    -0.15263602080818D+03
 CCSD(T)
 CCSD(T)= -0.15266315194D+03

 The electronic state is 1-A'.
 Alpha  occ. eigenvalues --  -20.56813 -20.54406  -1.34086  -1.31727  -0.71494
 Alpha  occ. eigenvalues --   -0.69112  -0.57632  -0.55204  -0.51213  -0.48860
 Alpha virt. eigenvalues --    0.12228   0.16104   0.19414   0.23368   0.53293
 Alpha virt. eigenvalues --    0.55538   0.56166   0.58777   0.68878   0.69696
 Alpha virt. eigenvalues --    0.77614   0.79047   0.79984   0.80142   0.83271

 Mulliken charges:
               1
     1  O   -0.518695
     2  H    0.265055
     3  H    0.249401
     4  O   -0.510826
     5  H    0.260044
     6  H    0.255020
 Sum of Mulliken charges =  -0.00000

 Dipole moment (field-independent basis, Debye):
    X=             -2.2713    Y=             -3.1456    Z=              0.0000  Tot=              3.8798
 Quadrupole moment (field-independent basis, Debye-Ang):
   XX=             -9.5677   YY=             -7.6108   ZZ=            -14.7198
   XY=             -3.7813   XZ=              0.0000   YZ=             -0.0000

 Normal termination of Gaussian 16 at Fri Aug 26 16:43:56 2022.
