 Gaussian 16, Revision A.03,
 Gaussian 16:  ES64L-G16RevA.03 25-Dec-2016

 ------------------
 #p CCSD(T)/cc-pVTZ
 ------------------

 -----------
 H2O_H2O_819
 -----------
 Symbolic Z-matrix:
 Charge =  0 Multiplicity = 1

                         Standard orientation:
 ---------------------------------------------------------------------
 Center     Atomic      Atomic             Coordinates (Angstroms)
 Number     Number       Type             X           Y           Z
 ---------------------------------------------------------------------
      1          8           0        0.030333    1.429194    0.000000
      2          1           0        0.026362    0.446601    0.000000
      3          1           0       -0.897864    1.751614    0.000000
      4          8           0        0.030333   -1.253686   -0.000000
      5          1           0        0.959505   -1.573291   -0.000000
      6          1           0       -0.573336   -2.028986   -0.000000
 ---------------------------------------------------------------------

 SCF Done:  E(RHF) =  -152.110901717     A.U. after   10 cycles
 E2 =    -0.5295070070D+00 EUMP2 =    -0.15264040872432D+03
 CCSD(T)
 CCSD(T)= -0.15266712564D+03

 The electronic state is 1-A'.
 Alpha  occ. eigenvalues --  -20.59238 -20.50800  -1.36989  -1.28702  -0.74233
 Alpha  occ. eigenvalues --   -0.68520  -0.59770  -0.53943  -0.51434  -0.45780
 Alpha virt. eigenvalues --    0.11756   0.18354   0.18914   0.32946   0.48116
 Alpha virt. eigenvalues --    0.54408   0.57336   0.64186   0.68359   0.72449
 Alpha virt. eigenvalues --    0.72695   0.77580   0.81485   0.83205   0.84337

 Mulliken charges:
               1
     1  O   -0.587015
     2  H    0.302438
     3  H    0.241694
     4  O   -0.470916
     5  H    0.263987
     6  H    0.249812
 Sum of Mulliken charges =  -0.00000

 Dipole moment (field-independent basis, Debye):
    X=             -0.9973    Y=             -3.8562    Z=             -0.0000  Tot=              3.9831
 Quadrupole moment (field-independent basis, Debye-Ang):
   XX=             -9.2120   YY=             -8.9922   ZZ=            -14.7109
   XY=             -3.4465   XZ=             -0.0000   YZ=             -0.0000

 Normal termination of Gaussian 16 at Fri Aug 26 20:42:37 2022.
