 Gaussian 16, Revision A.03,
 Gaussian 16:  ES64L-G16RevA.03 25-Dec-2016

 ------------------
 #p CCSD(T)/cc-pVTZ
 ------------------

 ------------
 H2O_H2O_1104
 ------------
 Symbolic Z-matrix:
 Charge =  0 Multiplicity = 1

                         Standard orientation:
 ---------------------------------------------------------------------
 Center     Atomic      Atomic             Coordinates (Angstroms)
 Number     Number       Type             X           Y           Z
 ---------------------------------------------------------------------
      1          8           0        0.082820   -1.537423    0.000000
      2          1           0        0.082231   -0.554821    0.000000
      3          1           0       -0.846482   -1.856647    0.000000
      4          8           0        0.082820    1.382940    0.000000
      5          1           0        0.336568    2.332213    0.000000
      6          1           0       -0.897437    1.315115    0.000000
 ---------------------------------------------------------------------

 SCF Done:  E(RHF) =  -152.110132894     A.U. after   10 cycles
 E2 =    -0.5287167970D+00 EUMP2 =    -0.15263884969076D+03
 CCSD(T)
 CCSD(T)= -0.15266579947D+03

 The electronic state is 1-A'.
 Alpha  occ. eigenvalues --  -20.58544 -20.53012  -1.36052  -1.30535  -0.73792
 Alpha  occ. eigenvalues --   -0.68223  -0.59472  -0.53722  -0.53056  -0.47623
 Alpha virt. eigenvalues --    0.11572   0.16716   0.20038   0.30507   0.48578
 Alpha virt. eigenvalues --    0.54252   0.58381   0.59403   0.69048   0.72604
 Alpha virt. eigenvalues --    0.74570   0.77244   0.81298   0.81916   0.83702

 Mulliken charges:
               1
     1  O   -0.541813
     2  H    0.285214
     3  H    0.234392
     4  O   -0.461219
     5  H    0.239903
     6  H    0.243522
 Sum of Mulliken charges =  -0.00000

 Dipole moment (field-independent basis, Debye):
    X=             -2.7363    Y=              3.1883    Z=              0.0000  Tot=              4.2016
 Quadrupole moment (field-independent basis, Debye-Ang):
   XX=            -10.2943   YY=             -8.8479   ZZ=            -14.7095
   XY=              2.6787   XZ=              0.0000   YZ=              0.0000

 CCSD(T)=-152.6657995\RMSD=7.629e-09\PG=CS [SG(H4O2)]\\@
 Normal termination of Gaussian 16 at Fri Aug 26 22:29:16 2022.
