 Gaussian 16, Revision A.03,
 Gaussian 16:  ES64L-G16RevA.03 25-Dec-2016

 ------------------
 #p CCSD(T)/cc-pVTZ
 ------------------

 ------------
 H2O_H2O_1456
 ------------
 Symbolic Z-matrix:
 Charge =  0 Multiplicity = 1

                         Standard orientation:
 ---------------------------------------------------------------------
 Center     Atomic      Atomic             Coordinates (Angstroms)
 Number     Number       Type             X           Y           Z
 ---------------------------------------------------------------------
      1          8           0        0.076779    1.681749    0.000000
      2          1           0        0.075920    0.699148    0.000000
      3          1           0       -0.852435    2.001227    0.000000
      4          8           0        0.076779   -1.518580   -0.000000
      5          1           0        0.452012   -2.426714   -0.000000
      6          1           0       -0.903963   -1.579015   -0.000000
 ---------------------------------------------------------------------

 SCF Done:  E(RHF) =  -152.111885682     A.U. after   10 cycles
 E2 =    -0.5274360343D+00 EUMP2 =    -0.15263932171659D+03
 CCSD(T)
 CCSD(T)= -0.15266634346D+03

 The electronic state is 1-A'.
 Alpha  occ. eigenvalues --  -20.57981 -20.53445  -1.35309  -1.30860  -0.72797
 Alpha  occ. eigenvalues --   -0.68371  -0.58973  -0.54195  -0.52403  -0.47984
 Alpha virt. eigenvalues --    0.11768   0.16846   0.19633   0.28663   0.49488
 Alpha virt. eigenvalues --    0.55089   0.57365   0.58492   0.69522   0.74030
 Alpha virt. eigenvalues --    0.74240   0.76917   0.81219   0.82622   0.84031

 Mulliken charges:
               1
     1  O   -0.533116
     2  H    0.277173
     3  H    0.240594
     4  O   -0.491174
     5  H    0.254744
     6  H    0.251779
 Sum of Mulliken charges =  -0.00000

 Dipole moment (field-independent basis, Debye):
    X=             -2.5659    Y=             -3.2063    Z=             -0.0000  Tot=              4.1066
 Quadrupole moment (field-independent basis, Debye-Ang):
   XX=             -9.9842   YY=             -8.5223   ZZ=            -14.7246
   XY=             -3.0038   XZ=             -0.0000   YZ=             -0.0000

 CCSD(T)=-152.6663435\RMSD=7.062e-09\PG=CS [SG(H4O2)]\\@
 Normal termination of Gaussian 16 at Sat Aug 27 00:41:44 2022.
