 Gaussian 16, Revision A.03,
 Gaussian 16:  ES64L-G16RevA.03 25-Dec-2016

 ------------------
 #p CCSD(T)/cc-pVTZ
 ------------------

 ------------
 H2O_H2O_3580
 ------------
 Symbolic Z-matrix:
 Charge =  0 Multiplicity = 1

                         Standard orientation:
 ---------------------------------------------------------------------
 Center     Atomic      Atomic             Coordinates (Angstroms)
 Number     Number       Type             X           Y           Z
 ---------------------------------------------------------------------
      1          8           0        0.079849    2.527133   -0.000000
      2          1           0        0.079395    1.544531   -0.000000
      3          1           0       -0.849497    2.846229   -0.000000
      4          8           0        0.079849   -2.368065    0.000000
      5          1           0        0.395266   -3.298667    0.000000
      6          1           0       -0.902747   -2.364632    0.000000
 ---------------------------------------------------------------------

 SCF Done:  E(RHF) =  -152.108424906     A.U. after   10 cycles
 E2 =    -0.5259074911D+00 EUMP2 =    -0.15263433239746D+03
 CCSD(T)
 CCSD(T)= -0.15266151827D+03

 The electronic state is 1-A'.
 Alpha  occ. eigenvalues --  -20.56425 -20.54944  -1.33720  -1.32252  -0.71134
 Alpha  occ. eigenvalues --   -0.69642  -0.57207  -0.55716  -0.50836  -0.49372
 Alpha virt. eigenvalues --    0.12388   0.15334   0.19309   0.21939   0.53321
 Alpha virt. eigenvalues --    0.55062   0.56448   0.58038   0.66884   0.69133
 Alpha virt. eigenvalues --    0.78068   0.78707   0.79484   0.80743   0.82731

 Mulliken charges:
               1
     1  O   -0.512553
     2  H    0.260707
     3  H    0.250999
     4  O   -0.512625
     5  H    0.259747
     6  H    0.253725
 Sum of Mulliken charges =  -0.00000

 Dipole moment (field-independent basis, Debye):
    X=             -2.7290    Y=             -2.8241    Z=              0.0000  Tot=              3.9272
 Quadrupole moment (field-independent basis, Debye-Ang):
   XX=            -10.0982   YY=             -7.8190   ZZ=            -14.7147
   XY=             -3.2853   XZ=              0.0000   YZ=             -0.0000

 Normal termination of Gaussian 16 at Fri Aug 26 22:30:17 2022.
