 Gaussian 16, Revision A.03,
 Gaussian 16:  ES64L-G16RevA.03 25-Dec-2016

 ------------------
 #p CCSD(T)/cc-pVTZ
 ------------------

 ------------
 H2O_H2O_3324
 ------------
 Symbolic Z-matrix:
 Charge =  0 Multiplicity = 1

                         Standard orientation:
 ---------------------------------------------------------------------
 Center     Atomic      Atomic             Coordinates (Angstroms)
 Number     Number       Type             X           Y           Z
 ---------------------------------------------------------------------
      1          8           0       -0.013512    2.417559    0.000000
      2          1           0       -0.010629    1.434961    0.000000
      3          1           0        0.915043    2.738950    0.000000
      4          8           0       -0.013512   -2.258294    0.000000
      5          1           0       -0.996110   -2.261177    0.000000
      6          1           0        0.307880   -3.186849    0.000000
 ---------------------------------------------------------------------

 SCF Done:  E(RHF) =  -152.109292543     A.U. after   10 cycles
 E2 =    -0.5258670425D+00 EUMP2 =    -0.15263515958547D+03
 CCSD(T)
 CCSD(T)= -0.15266232463D+03

 The electronic state is 1-A'.
 Alpha  occ. eigenvalues --  -20.56486 -20.54803  -1.33780  -1.32117  -0.71189
 Alpha  occ. eigenvalues --   -0.69525  -0.57300  -0.55603  -0.50904  -0.49250
 Alpha virt. eigenvalues --    0.12358   0.15629   0.19194   0.22611   0.53471
 Alpha virt. eigenvalues --    0.55456   0.56502   0.58024   0.67258   0.69283
 Alpha virt. eigenvalues --    0.77997   0.78636   0.79593   0.80787   0.82965

 Mulliken charges:
               1
     1  O   -0.517912
     2  H    0.261440
     3  H    0.255044
     4  O   -0.515682
     5  H    0.257919
     6  H    0.259192
 Sum of Mulliken charges =  -0.00000

 Dipole moment (field-independent basis, Debye):
    X=              0.4655    Y=             -2.8402    Z=              0.0000  Tot=              2.8781
 Quadrupole moment (field-independent basis, Debye-Ang):
   XX=             -9.6479   YY=             -7.8754   ZZ=            -14.7177
   XY=              6.5388   XZ=              0.0000   YZ=              0.0000

 Normal termination of Gaussian 16 at Fri Aug 26 21:04:20 2022.
