 Gaussian 16, Revision A.03,
 Gaussian 16:  ES64L-G16RevA.03 25-Dec-2016

 ------------------
 #p CCSD(T)/cc-pVTZ
 ------------------

 ------------
 H2O_H2O_2258
 ------------
 Symbolic Z-matrix:
 Charge =  0 Multiplicity = 1

                         Standard orientation:
 ---------------------------------------------------------------------
 Center     Atomic      Atomic             Coordinates (Angstroms)
 Number     Number       Type             X           Y           Z
 ---------------------------------------------------------------------
      1          8           0        0.070212    2.004682    0.000000
      2          1           0        0.069206    1.022081    0.000000
      3          1           0       -0.858955    2.324300   -0.000000
      4          8           0        0.070212   -1.834459    0.000000
      5          1           0        0.560642   -2.685920    0.000000
      6          1           0       -0.894280   -2.022245   -0.000000
 ---------------------------------------------------------------------

 SCF Done:  E(RHF) =  -152.110745216     A.U. after   10 cycles
 E2 =    -0.5263053080D+00 EUMP2 =    -0.15263705052387D+03
 CCSD(T)
 CCSD(T)= -0.15266415128D+03

 The electronic state is 1-A'.
 Alpha  occ. eigenvalues --  -20.57125 -20.54167  -1.34389  -1.31499  -0.71803
 Alpha  occ. eigenvalues --   -0.68884  -0.57978  -0.54963  -0.51517  -0.48636
 Alpha virt. eigenvalues --    0.12052   0.16457   0.19406   0.24853   0.52512
 Alpha virt. eigenvalues --    0.55878   0.55901   0.58559   0.68842   0.71699
 Alpha virt. eigenvalues --    0.76926   0.78666   0.80268   0.82684   0.83525

 Mulliken charges:
               1
     1  O   -0.521570
     2  H    0.266831
     3  H    0.247332
     4  O   -0.506922
     5  H    0.260142
     6  H    0.254187
 Sum of Mulliken charges =  -0.00000

 Dipole moment (field-independent basis, Debye):
    X=             -2.3789    Y=             -3.1519    Z=             -0.0000  Tot=              3.9489
 Quadrupole moment (field-independent basis, Debye-Ang):
   XX=             -9.6939   YY=             -7.9415   ZZ=            -14.7224
   XY=             -3.4844   XZ=              0.0000   YZ=             -0.0000

 Normal termination of Gaussian 16 at Sun Aug 28 05:49:24 2022.
