 Gaussian 16, Revision A.03,
 Gaussian 16:  ES64L-G16RevA.03 25-Dec-2016

 ------------------
 #p CCSD(T)/cc-pVTZ
 ------------------

 ------------
 H2O_H2O_4981
 ------------
 Symbolic Z-matrix:
 Charge =  0 Multiplicity = 1

                         Standard orientation:
 ---------------------------------------------------------------------
 Center     Atomic      Atomic             Coordinates (Angstroms)
 Number     Number       Type             X           Y           Z
 ---------------------------------------------------------------------
      1          8           0        0.076746    3.087822   -0.000000
      2          1           0        0.076289    2.105221   -0.000000
      3          1           0       -0.852599    3.406921    0.000000
      4          8           0        0.076746   -2.924591   -0.000000
      5          1           0        0.452348   -3.832571   -0.000000
      6          1           0       -0.903971   -2.985426    0.000000
 ---------------------------------------------------------------------

 SCF Done:  E(RHF) =  -152.107923521     A.U. after   10 cycles
 E2 =    -0.5258358865D+00 EUMP2 =    -0.15263375940750D+03
 CCSD(T)
 CCSD(T)= -0.15266096872D+03

 The electronic state is 1-A'.
 Alpha  occ. eigenvalues --  -20.56122 -20.55171  -1.33424  -1.32475  -0.70833
 Alpha  occ. eigenvalues --   -0.69874  -0.56895  -0.55934  -0.50538  -0.49592
 Alpha virt. eigenvalues --    0.13431   0.14640   0.19550   0.20904   0.53624
 Alpha virt. eigenvalues --    0.54743   0.56680   0.57659   0.67110   0.68389
 Alpha virt. eigenvalues --    0.78347   0.79275   0.79725   0.80723   0.81912

 Mulliken charges:
               1
     1  O   -0.511293
     2  H    0.258502
     3  H    0.252767
     4  O   -0.512085
     5  H    0.257792
     6  H    0.254318
 Sum of Mulliken charges =  -0.00000

 Dipole moment (field-independent basis, Debye):
    X=             -2.6348    Y=             -2.8552    Z=              0.0000  Tot=              3.8851
 Quadrupole moment (field-independent basis, Debye-Ang):
   XX=             -9.9470   YY=             -7.0468   ZZ=            -14.7131
   XY=             -3.8156   XZ=              0.0000   YZ=              0.0000

 Normal termination of Gaussian 16 at Sun Aug 28 07:25:13 2022.
