 Gaussian 16, Revision A.03,
 Gaussian 16:  ES64L-G16RevA.03 25-Dec-2016

 ------------------
 #p CCSD(T)/cc-pVTZ
 ------------------

 ------------
 H2O_H2O_3527
 ------------
 Symbolic Z-matrix:
 Charge =  0 Multiplicity = 1

                         Standard orientation:
 ---------------------------------------------------------------------
 Center     Atomic      Atomic             Coordinates (Angstroms)
 Number     Number       Type             X           Y           Z
 ---------------------------------------------------------------------
      1          8           0        0.088231   -2.499179    0.000000
      2          1           0        0.088066   -1.516578    0.000000
      3          1           0       -0.841209   -2.818002    0.000000
      4          8           0        0.088231    2.354857    0.000000
      5          1           0        0.216323    3.329075    0.000000
      6          1           0       -0.874872    2.160079    0.000000
 ---------------------------------------------------------------------

 SCF Done:  E(RHF) =  -152.108092748     A.U. after   10 cycles
 E2 =    -0.5259419405D+00 EUMP2 =    -0.15263403468885D+03
 CCSD(T)
 CCSD(T)= -0.15266122828D+03

 The electronic state is 1-A'.
 Alpha  occ. eigenvalues --  -20.56446 -20.55107  -1.33743  -1.32411  -0.71163
 Alpha  occ. eigenvalues --   -0.69800  -0.57216  -0.55868  -0.50855  -0.49526
 Alpha virt. eigenvalues --    0.12033   0.15303   0.19133   0.22371   0.53392
 Alpha virt. eigenvalues --    0.54973   0.56452   0.58019   0.66952   0.68982
 Alpha virt. eigenvalues --    0.78050   0.78681   0.79339   0.81207   0.82551

 Mulliken charges:
               1
     1  O   -0.510896
     2  H    0.259494
     3  H    0.250690
     4  O   -0.511023
     5  H    0.259633
     6  H    0.252103
 Sum of Mulliken charges =  -0.00000

 Dipole moment (field-independent basis, Debye):
    X=             -3.0143    Y=              2.5627    Z=              0.0000  Tot=              3.9564
 Quadrupole moment (field-independent basis, Debye-Ang):
   XX=            -10.5558   YY=             -8.6019   ZZ=            -14.7133
   XY=              2.6131   XZ=              0.0000   YZ=              0.0000

 Normal termination of Gaussian 16 at Fri Aug 26 22:12:42 2022.
