 Gaussian 16, Revision A.03,
 Gaussian 16:  ES64L-G16RevA.03 25-Dec-2016

 ------------------
 #p CCSD(T)/cc-pVTZ
 ------------------

 ------------
 H2O_H2O_1638
 ------------
 Symbolic Z-matrix:
 Charge =  0 Multiplicity = 1

                         Standard orientation:
 ---------------------------------------------------------------------
 Center     Atomic      Atomic             Coordinates (Angstroms)
 Number     Number       Type             X           Y           Z
 ---------------------------------------------------------------------
      1          8           0        0.052348    1.760608    0.000000
      2          1           0        0.050283    0.778009    0.000000
      3          1           0       -0.876473    2.081228    0.000000
      4          8           0        0.052348   -1.580775   -0.000000
      5          1           0        0.789744   -2.230201   -0.000000
      6          1           0       -0.801122   -2.067701   -0.000000
 ---------------------------------------------------------------------

 SCF Done:  E(RHF) =  -152.113363257     A.U. after   10 cycles
 E2 =    -0.5269024573D+00 EUMP2 =    -0.15264026571414D+03
 CCSD(T)
 CCSD(T)= -0.15266728706D+03

 The electronic state is 1-A'.
 Alpha  occ. eigenvalues --  -20.57772 -20.53195  -1.35038  -1.30605  -0.72397
 Alpha  occ. eigenvalues --   -0.68149  -0.58819  -0.53992  -0.52172  -0.47755
 Alpha virt. eigenvalues --    0.12077   0.17356   0.19077   0.28165   0.50269
 Alpha virt. eigenvalues --    0.54820   0.56281   0.59218   0.69128   0.72236
 Alpha virt. eigenvalues --    0.74888   0.76853   0.81261   0.83148   0.84649

 Mulliken charges:
               1
     1  O   -0.536469
     2  H    0.274721
     3  H    0.245969
     4  O   -0.506328
     5  H    0.264241
     6  H    0.257867
 Sum of Mulliken charges =  -0.00000

 Dipole moment (field-independent basis, Debye):
    X=             -1.7591    Y=             -3.4790    Z=             -0.0000  Tot=              3.8984
 Quadrupole moment (field-independent basis, Debye-Ang):
   XX=             -9.2338   YY=             -8.1569   ZZ=            -14.7335
   XY=             -3.7301   XZ=             -0.0000   YZ=              0.0000

 Normal termination of Gaussian 16 at Sun Aug 28 00:09:22 2022.
