 Gaussian 16, Revision A.03,
 Gaussian 16:  ES64L-G16RevA.03 25-Dec-2016

 ------------------
 #p CCSD(T)/cc-pVTZ
 ------------------

 -----------
 H2O_H2O_339
 -----------
 Symbolic Z-matrix:
 Charge =  0 Multiplicity = 1

                         Standard orientation:
 ---------------------------------------------------------------------
 Center     Atomic      Atomic             Coordinates (Angstroms)
 Number     Number       Type             X           Y           Z
 ---------------------------------------------------------------------
      1          8           0        0.048730    1.242290   -0.000000
      2          1           0        0.045461    0.259694   -0.000000
      3          1           0       -0.879698    1.564047   -0.000000
      4          8           0        0.048730   -1.062061    0.000000
      5          1           0        0.826285   -1.662820    0.000000
      6          1           0       -0.771729   -1.602759    0.000000
 ---------------------------------------------------------------------

 SCF Done:  E(RHF) =  -152.087223002     A.U. after   11 cycles
 E2 =    -0.5331446919D+00 EUMP2 =    -0.15262036769371D+03
 CCSD(T)
 CCSD(T)= -0.15264645785D+03

 The electronic state is 1-A'.
 Alpha  occ. eigenvalues --  -20.60872 -20.47228  -1.40122  -1.26254  -0.76171
 Alpha  occ. eigenvalues --   -0.73675  -0.57226  -0.56367  -0.47717  -0.43065
 Alpha virt. eigenvalues --    0.10945   0.17175   0.20331   0.33497   0.47215
 Alpha virt. eigenvalues --    0.53041   0.62275   0.64382   0.70659   0.72001
 Alpha virt. eigenvalues --    0.76834   0.79566   0.80722   0.82114   0.83910

 Mulliken charges:
               1
     1  O   -0.633749
     2  H    0.309857
     3  H    0.218234
     4  O   -0.397949
     5  H    0.256571
     6  H    0.247036
 Sum of Mulliken charges =  -0.00000

 Dipole moment (field-independent basis, Debye):
    X=             -1.5279    Y=             -4.5650    Z=              0.0000  Tot=              4.8139
 Quadrupole moment (field-independent basis, Debye-Ang):
   XX=             -9.1514   YY=             -9.7152   ZZ=            -14.6401
   XY=             -2.9023   XZ=              0.0000   YZ=             -0.0000

 Normal termination of Gaussian 16 at Fri Aug 26 17:32:46 2022.
