 Gaussian 16, Revision A.03,
 Gaussian 16:  ES64L-G16RevA.03 25-Dec-2016

 ------------------
 #p CCSD(T)/cc-pVTZ
 ------------------

 ------------
 H2O_H2O_4221
 ------------
 Symbolic Z-matrix:
 Charge =  0 Multiplicity = 1

                         Standard orientation:
 ---------------------------------------------------------------------
 Center     Atomic      Atomic             Coordinates (Angstroms)
 Number     Number       Type             X           Y           Z
 ---------------------------------------------------------------------
      1          8           0       -0.023173    2.782596    0.000000
      2          1           0       -0.020979    1.799997    0.000000
      3          1           0        0.905606    3.103338    0.000000
      4          8           0       -0.023173   -2.612190    0.000000
      5          1           0       -0.986464   -2.806038    0.000000
      6          1           0        0.472602   -3.460549    0.000000
 ---------------------------------------------------------------------

 SCF Done:  E(RHF) =  -152.108626829     A.U. after   10 cycles
 E2 =    -0.5258025829D+00 EUMP2 =    -0.15263442941218D+03
 CCSD(T)
 CCSD(T)= -0.15266162071D+03

 The electronic state is 1-A'.
 Alpha  occ. eigenvalues --  -20.56234 -20.54946  -1.33535  -1.32255  -0.70940
 Alpha  occ. eigenvalues --   -0.69660  -0.57036  -0.55732  -0.50655  -0.49381
 Alpha virt. eigenvalues --    0.13128   0.15063   0.19505   0.21337   0.53426
 Alpha virt. eigenvalues --    0.54983   0.56640   0.57817   0.66718   0.68885
 Alpha virt. eigenvalues --    0.78234   0.79286   0.79472   0.80445   0.82728

 Mulliken charges:
               1
     1  O   -0.515078
     2  H    0.260431
     3  H    0.254399
     4  O   -0.515549
     5  H    0.257763
     6  H    0.258034
 Sum of Mulliken charges =  -0.00000

 Dipole moment (field-independent basis, Debye):
    X=              0.7953    Y=             -2.9984    Z=              0.0000  Tot=              3.1021
 Quadrupole moment (field-independent basis, Debye-Ang):
   XX=             -9.3618   YY=             -6.9331   ZZ=            -14.7155
   XY=              6.8548   XZ=              0.0000   YZ=              0.0000

 Normal termination of Gaussian 16 at Sun Aug 28 00:54:57 2022.
