 Gaussian 16, Revision A.03,
 Gaussian 16:  ES64L-G16RevA.03 25-Dec-2016

 ------------------
 #p CCSD(T)/cc-pVTZ
 ------------------

 ------------
 H2O_H2O_3611
 ------------
 Symbolic Z-matrix:
 Charge =  0 Multiplicity = 1

                         Standard orientation:
 ---------------------------------------------------------------------
 Center     Atomic      Atomic             Coordinates (Angstroms)
 Number     Number       Type             X           Y           Z
 ---------------------------------------------------------------------
      1          8           0        0.059632    2.547095   -0.000000
      2          1           0        0.058482    1.564495   -0.000000
      3          1           0       -0.869487    2.866850    0.000000
      4          8           0        0.059632   -2.369638   -0.000000
      5          1           0        0.706641   -3.109155   -0.000000
      6          1           0       -0.849746   -2.741846    0.000000
 ---------------------------------------------------------------------

 SCF Done:  E(RHF) =  -152.108921531     A.U. after   10 cycles
 E2 =    -0.5258631378D+00 EUMP2 =    -0.15263478466927D+03
 CCSD(T)
 CCSD(T)= -0.15266195969D+03

 The electronic state is 1-A'.
 Alpha  occ. eigenvalues --  -20.56409 -20.54732  -1.33701  -1.32045  -0.71106
 Alpha  occ. eigenvalues --   -0.69439  -0.57210  -0.55521  -0.50823  -0.49171
 Alpha virt. eigenvalues --    0.12773   0.15421   0.19547   0.21662   0.53418
 Alpha virt. eigenvalues --    0.55032   0.56484   0.57985   0.66877   0.69277
 Alpha virt. eigenvalues --    0.78080   0.78969   0.79672   0.79791   0.82963

 Mulliken charges:
               1
     1  O   -0.515257
     2  H    0.262339
     3  H    0.251893
     4  O   -0.514870
     5  H    0.259763
     6  H    0.256131
 Sum of Mulliken charges =  -0.00000

 Dipole moment (field-independent basis, Debye):
    X=             -2.0388    Y=             -3.1516    Z=             -0.0000  Tot=              3.7535
 Quadrupole moment (field-independent basis, Debye-Ang):
   XX=             -9.3630   YY=             -6.9247   ZZ=            -14.7166
   XY=             -4.4863   XZ=             -0.0000   YZ=             -0.0000

 Normal termination of Gaussian 16 at Fri Aug 26 22:40:26 2022.
