 Gaussian 16, Revision A.03,
 Gaussian 16:  ES64L-G16RevA.03 25-Dec-2016

 ------------------
 #p CCSD(T)/cc-pVTZ
 ------------------

 ------------
 H2O_H2O_2409
 ------------
 Symbolic Z-matrix:
 Charge =  0 Multiplicity = 1

                         Standard orientation:
 ---------------------------------------------------------------------
 Center     Atomic      Atomic             Coordinates (Angstroms)
 Number     Number       Type             X           Y           Z
 ---------------------------------------------------------------------
      1          8           0        0.066773    2.066068    0.000000
      2          1           0        0.065650    1.083468    0.000000
      3          1           0       -0.862355    2.385797   -0.000000
      4          8           0        0.066773   -1.892983    0.000000
      5          1           0        0.611743   -2.710610    0.000000
      6          1           0       -0.883401   -2.143335   -0.000000
 ---------------------------------------------------------------------

 SCF Done:  E(RHF) =  -152.110570808     A.U. after   10 cycles
 E2 =    -0.5261978849D+00 EUMP2 =    -0.15263676869287D+03
 CCSD(T)
 CCSD(T)= -0.15266387817D+03

 The electronic state is 1-A'.
 Alpha  occ. eigenvalues --  -20.57011 -20.54217  -1.34276  -1.31546  -0.71684
 Alpha  occ. eigenvalues --   -0.68932  -0.57854  -0.55018  -0.51406  -0.48683
 Alpha virt. eigenvalues --    0.12142   0.16373   0.19381   0.24327   0.52819
 Alpha virt. eigenvalues --    0.55772   0.55991   0.58767   0.68877   0.71020
 Alpha virt. eigenvalues --    0.77225   0.78762   0.80187   0.81537   0.83502

 Mulliken charges:
               1
     1  O   -0.521053
     2  H    0.266413
     3  H    0.248293
     4  O   -0.508554
     5  H    0.260109
     6  H    0.254792
 Sum of Mulliken charges =  -0.00000

 Dipole moment (field-independent basis, Debye):
    X=             -2.2660    Y=             -3.1834    Z=             -0.0000  Tot=              3.9075
 Quadrupole moment (field-independent basis, Debye-Ang):
   XX=             -9.5707   YY=             -7.7784   ZZ=            -14.7218
   XY=             -3.6718   XZ=              0.0000   YZ=             -0.0000

 Normal termination of Gaussian 16 at Sun Aug 28 07:07:02 2022.
