 Gaussian 16, Revision A.03,
 Gaussian 16:  ES64L-G16RevA.03 25-Dec-2016

 ------------------
 #p CCSD(T)/cc-pVTZ
 ------------------

 ------------
 H2O_H2O_2999
 ------------
 Symbolic Z-matrix:
 Charge =  0 Multiplicity = 1

                         Standard orientation:
 ---------------------------------------------------------------------
 Center     Atomic      Atomic             Coordinates (Angstroms)
 Number     Number       Type             X           Y           Z
 ---------------------------------------------------------------------
      1          8           0       -0.013525    2.287921    0.000000
      2          1           0       -0.010473    1.305325    0.000000
      3          1           0        0.914973    2.609473    0.000000
      4          8           0       -0.013525   -2.128662    0.000000
      5          1           0       -0.996122   -2.131714    0.000000
      6          1           0        0.308027   -3.057161    0.000000
 ---------------------------------------------------------------------

 SCF Done:  E(RHF) =  -152.109716478     A.U. after   10 cycles
 E2 =    -0.5259233731D+00 EUMP2 =    -0.15263563985131D+03
 CCSD(T)
 CCSD(T)= -0.15266278888D+03

 The electronic state is 1-A'.
 Alpha  occ. eigenvalues --  -20.56621 -20.54681  -1.33910  -1.31999  -0.71321
 Alpha  occ. eigenvalues --   -0.69408  -0.57446  -0.55489  -0.51036  -0.49136
 Alpha virt. eigenvalues --    0.12230   0.15890   0.19218   0.23198   0.53818
 Alpha virt. eigenvalues --    0.55568   0.56382   0.58230   0.68056   0.69360
 Alpha virt. eigenvalues --    0.77845   0.78723   0.79706   0.80728   0.83133

 Mulliken charges:
               1
     1  O   -0.519902
     2  H    0.262500
     3  H    0.254980
     4  O   -0.514879
     5  H    0.258265
     6  H    0.259037
 Sum of Mulliken charges =  -0.00000

 Dipole moment (field-independent basis, Debye):
    X=              0.4663    Y=             -2.8627    Z=              0.0000  Tot=              2.9004
 Quadrupole moment (field-independent basis, Debye-Ang):
   XX=             -9.6482   YY=             -7.9860   ZZ=            -14.7190
   XY=              6.1839   XZ=              0.0000   YZ=              0.0000

 CCSD(T)=-152.6627889\RMSD=6.860e-09\PG=CS [SG(H4O2)]\\@
 Normal termination of Gaussian 16 at Fri Aug 26 19:09:48 2022.
