 Gaussian 16, Revision A.03,
 Gaussian 16:  ES64L-G16RevA.03 25-Dec-2016

 ------------------
 #p CCSD(T)/cc-pVTZ
 ------------------

 -----------
 H2O_H2O_560
 -----------
 Symbolic Z-matrix:
 Charge =  0 Multiplicity = 1

                         Standard orientation:
 ---------------------------------------------------------------------
 Center     Atomic      Atomic             Coordinates (Angstroms)
 Number     Number       Type             X           Y           Z
 ---------------------------------------------------------------------
      1          8           0        0.063318    1.329403    0.000000
      2          1           0        0.061287    0.346804    0.000000
      3          1           0       -0.865514    1.649990   -0.000000
      4          8           0        0.063318   -1.154014    0.000000
      5          1           0        0.659875   -1.934798    0.000000
      6          1           0       -0.868736   -1.465112   -0.000000
 ---------------------------------------------------------------------

 SCF Done:  E(RHF) =  -152.102119745     A.U. after   11 cycles
 E2 =    -0.5315337104D+00 EUMP2 =    -0.15263365345580D+03
 CCSD(T)
 CCSD(T)= -0.15266011144D+03

 The electronic state is 1-A'.
 Alpha  occ. eigenvalues --  -20.60026 -20.49517  -1.38340  -1.27811  -0.75410
 Alpha  occ. eigenvalues --   -0.70311  -0.58799  -0.55022  -0.50132  -0.44777
 Alpha virt. eigenvalues --    0.11266   0.17193   0.19995   0.33219   0.47971
 Alpha virt. eigenvalues --    0.53627   0.60609   0.62193   0.71324   0.72245
 Alpha virt. eigenvalues --    0.73530   0.78318   0.80518   0.83389   0.84154

 Mulliken charges:
               1
     1  O   -0.599207
     2  H    0.309543
     3  H    0.223634
     4  O   -0.431978
     5  H    0.250786
     6  H    0.247223
 Sum of Mulliken charges =  -0.00000

 Dipole moment (field-independent basis, Debye):
    X=             -2.0282    Y=             -4.1145    Z=             -0.0000  Tot=              4.5872
 Quadrupole moment (field-independent basis, Debye-Ang):
   XX=             -9.4587   YY=             -9.3101   ZZ=            -14.6762
   XY=             -2.9642   XZ=              0.0000   YZ=             -0.0000

 Normal termination of Gaussian 16 at Fri Aug 26 19:04:32 2022.
