 Gaussian 16, Revision A.03,
 Gaussian 16:  ES64L-G16RevA.03 25-Dec-2016

 ------------------
 #p CCSD(T)/cc-pVTZ
 ------------------

 -----------
 H2O_H2O_365
 -----------
 Symbolic Z-matrix:
 Charge =  0 Multiplicity = 1

                         Standard orientation:
 ---------------------------------------------------------------------
 Center     Atomic      Atomic             Coordinates (Angstroms)
 Number     Number       Type             X           Y           Z
 ---------------------------------------------------------------------
      1          8           0        0.045015    1.252271    0.000000
      2          1           0        0.041502    0.269676    0.000000
      3          1           0       -0.883333    1.574258    0.000000
      4          8           0        0.045015   -1.072028    0.000000
      5          1           0        0.860062   -1.620848    0.000000
      6          1           0       -0.738471   -1.665034    0.000000
 ---------------------------------------------------------------------

 SCF Done:  E(RHF) =  -152.089777408     A.U. after   11 cycles
 E2 =    -0.5328659173D+00 EUMP2 =    -0.15262264332579D+03
 CCSD(T)
 CCSD(T)= -0.15264877840D+03

 The electronic state is 1-A'.
 Alpha  occ. eigenvalues --  -20.60763 -20.47440  -1.39872  -1.26383  -0.76029
 Alpha  occ. eigenvalues --   -0.73243  -0.57463  -0.56192  -0.47931  -0.43218
 Alpha virt. eigenvalues --    0.11012   0.17313   0.20216   0.33592   0.47123
 Alpha virt. eigenvalues --    0.53150   0.61863   0.65009   0.70303   0.72062
 Alpha virt. eigenvalues --    0.76393   0.79305   0.80783   0.82207   0.83854

 Mulliken charges:
               1
     1  O   -0.632441
     2  H    0.310501
     3  H    0.220936
     4  O   -0.404797
     5  H    0.258617
     6  H    0.247184
 Sum of Mulliken charges =  -0.00000

 Dipole moment (field-independent basis, Debye):
    X=             -1.4168    Y=             -4.5258    Z=              0.0000  Tot=              4.7424
 Quadrupole moment (field-independent basis, Debye-Ang):
   XX=             -9.1228   YY=             -9.6731   ZZ=            -14.6465
   XY=             -2.9352   XZ=              0.0000   YZ=              0.0000

 Normal termination of Gaussian 16 at Fri Aug 26 17:43:32 2022.
