 Gaussian 16, Revision A.03,
 Gaussian 16:  ES64L-G16RevA.03 25-Dec-2016

 ------------------
 #p CCSD(T)/cc-pVTZ
 ------------------

 ------------
 H2O_H2O_3693
 ------------
 Symbolic Z-matrix:
 Charge =  0 Multiplicity = 1

                         Standard orientation:
 ---------------------------------------------------------------------
 Center     Atomic      Atomic             Coordinates (Angstroms)
 Number     Number       Type             X           Y           Z
 ---------------------------------------------------------------------
      1          8           0        0.033772    2.577058    0.000000
      2          1           0        0.031754    1.594459    0.000000
      3          1           0       -0.895064    2.897633    0.000000
      4          8           0        0.033772   -2.399521   -0.000000
      5          1           0        0.940804   -2.777410   -0.000000
      6          1           0       -0.617851   -3.134975   -0.000000
 ---------------------------------------------------------------------

 SCF Done:  E(RHF) =  -152.109070268     A.U. after   10 cycles
 E2 =    -0.5258305191D+00 EUMP2 =    -0.15263490078682D+03
 CCSD(T)
 CCSD(T)= -0.15266207491D+03

 The electronic state is 1-A'.
 Alpha  occ. eigenvalues --  -20.56373 -20.54737  -1.33667  -1.32050  -0.71070
 Alpha  occ. eigenvalues --   -0.69451  -0.57184  -0.55532  -0.50791  -0.49179
 Alpha virt. eigenvalues --    0.12865   0.15406   0.19545   0.21651   0.53416
 Alpha virt. eigenvalues --    0.55081   0.56550   0.57912   0.66805   0.69250
 Alpha virt. eigenvalues --    0.78108   0.79005   0.79662   0.79867   0.82970

 Mulliken charges:
               1
     1  O   -0.516577
     2  H    0.262190
     3  H    0.253502
     4  O   -0.516105
     5  H    0.259006
     6  H    0.257983
 Sum of Mulliken charges =  -0.00000

 Dipole moment (field-independent basis, Debye):
    X=             -1.1558    Y=             -3.1480    Z=             -0.0000  Tot=              3.3535
 Quadrupole moment (field-independent basis, Debye-Ang):
   XX=             -9.1862   YY=             -6.8658   ZZ=            -14.7171
   XY=             -5.7898   XZ=             -0.0000   YZ=              0.0000

 Normal termination of Gaussian 16 at Fri Aug 26 23:08:56 2022.
