 Gaussian 16, Revision A.03,
 Gaussian 16:  ES64L-G16RevA.03 25-Dec-2016

 ------------------
 #p CCSD(T)/cc-pVTZ
 ------------------

 ------------
 H2O_H2O_3445
 ------------
 Symbolic Z-matrix:
 Charge =  0 Multiplicity = 1

                         Standard orientation:
 ---------------------------------------------------------------------
 Center     Atomic      Atomic             Coordinates (Angstroms)
 Number     Number       Type             X           Y           Z
 ---------------------------------------------------------------------
      1          8           0        0.026645    2.475002    0.000000
      2          1           0        0.024290    1.492404    0.000000
      3          1           0       -0.902081    2.795896    0.000000
      4          8           0        0.026645   -2.301770   -0.000000
      5          1           0        0.975153   -2.558360   -0.000000
      6          1           0       -0.523687   -3.115798   -0.000000
 ---------------------------------------------------------------------

 SCF Done:  E(RHF) =  -152.109321819     A.U. after   10 cycles
 E2 =    -0.5258512768D+00 EUMP2 =    -0.15263517309587D+03
 CCSD(T)
 CCSD(T)= -0.15266233774D+03

 The electronic state is 1-A'.
 Alpha  occ. eigenvalues --  -20.56452 -20.54691  -1.33743  -1.32006  -0.71146
 Alpha  occ. eigenvalues --   -0.69409  -0.57267  -0.55492  -0.50868  -0.49138
 Alpha virt. eigenvalues --    0.12653   0.15580   0.19431   0.22048   0.53354
 Alpha virt. eigenvalues --    0.55278   0.56520   0.58027   0.67101   0.69315
 Alpha virt. eigenvalues --    0.78034   0.78786   0.79699   0.80091   0.83021

 Mulliken charges:
               1
     1  O   -0.517664
     2  H    0.262434
     3  H    0.253869
     4  O   -0.516059
     5  H    0.258936
     6  H    0.258484
 Sum of Mulliken charges =  -0.00000

 Dipole moment (field-independent basis, Debye):
    X=             -0.9119    Y=             -3.0850    Z=             -0.0000  Tot=              3.2170
 Quadrupole moment (field-independent basis, Debye-Ang):
   XX=             -9.2884   YY=             -7.1982   ZZ=            -14.7180
   XY=             -5.9320   XZ=             -0.0000   YZ=             -0.0000

 Normal termination of Gaussian 16 at Fri Aug 26 21:44:19 2022.
