 Gaussian 16, Revision A.03,
 Gaussian 16:  ES64L-G16RevA.03 25-Dec-2016

 ------------------
 #p CCSD(T)/cc-pVTZ
 ------------------

 ------------
 H2O_H2O_2586
 ------------
 Symbolic Z-matrix:
 Charge =  0 Multiplicity = 1

                         Standard orientation:
 ---------------------------------------------------------------------
 Center     Atomic      Atomic             Coordinates (Angstroms)
 Number     Number       Type             X           Y           Z
 ---------------------------------------------------------------------
      1          8           0        0.059653    2.138233    0.000000
      2          1           0        0.058273    1.155632    0.000000
      3          1           0       -0.869392    2.458204    0.000000
      4          8           0        0.059653   -1.960803   -0.000000
      5          1           0        0.706489   -2.700471   -0.000000
      6          1           0       -0.849812   -2.332798   -0.000000
 ---------------------------------------------------------------------

 SCF Done:  E(RHF) =  -152.110444127     A.U. after   10 cycles
 E2 =    -0.5260898420D+00 EUMP2 =    -0.15263653396867D+03
 CCSD(T)
 CCSD(T)= -0.15266365190D+03

 The electronic state is 1-A'.
 Alpha  occ. eigenvalues --  -20.56891 -20.54250  -1.34158  -1.31576  -0.71559
 Alpha  occ. eigenvalues --   -0.68965  -0.57728  -0.55057  -0.51289  -0.48714
 Alpha virt. eigenvalues --    0.12282   0.16281   0.19374   0.23777   0.52916
 Alpha virt. eigenvalues --    0.55665   0.56130   0.58933   0.68983   0.70225
 Alpha virt. eigenvalues --    0.77482   0.78863   0.80128   0.80465   0.83487

 Mulliken charges:
               1
     1  O   -0.520841
     2  H    0.266007
     3  H    0.249551
     4  O   -0.510733
     5  H    0.260266
     6  H    0.255750
 Sum of Mulliken charges =  -0.00000

 Dipole moment (field-independent basis, Debye):
    X=             -2.0277    Y=             -3.2410    Z=             -0.0000  Tot=              3.8230
 Quadrupole moment (field-independent basis, Debye-Ang):
   XX=             -9.3672   YY=             -7.5448   ZZ=            -14.7215
   XY=             -4.0127   XZ=             -0.0000   YZ=             -0.0000

 Normal termination of Gaussian 16 at Fri Aug 26 15:48:38 2022.
