 Gaussian 16, Revision A.03,
 Gaussian 16:  ES64L-G16RevA.03 25-Dec-2016

 ------------------
 #p CCSD(T)/cc-pVTZ
 ------------------

 ------------
 H2O_H2O_4176
 ------------
 Symbolic Z-matrix:
 Charge =  0 Multiplicity = 1

                         Standard orientation:
 ---------------------------------------------------------------------
 Center     Atomic      Atomic             Coordinates (Angstroms)
 Number     Number       Type             X           Y           Z
 ---------------------------------------------------------------------
      1          8           0        0.090684   -2.755402    0.000000
      2          1           0        0.090612   -1.772800    0.000000
      3          1           0       -0.838786   -3.074136    0.000000
      4          8           0        0.090684    2.616691    0.000000
      5          1           0        0.154877    3.597193    0.000000
      6          1           0       -0.857643    2.359429    0.000000
 ---------------------------------------------------------------------

 SCF Done:  E(RHF) =  -152.107755413     A.U. after   10 cycles
 E2 =    -0.5258863776D+00 EUMP2 =    -0.15263364179075D+03
 CCSD(T)
 CCSD(T)= -0.15266085163D+03

 The electronic state is 1-A'.
 Alpha  occ. eigenvalues --  -20.56273 -20.55267  -1.33574  -1.32569  -0.70991
 Alpha  occ. eigenvalues --   -0.69964  -0.57038  -0.56022  -0.50685  -0.49682
 Alpha virt. eigenvalues --    0.12501   0.14911   0.18927   0.21908   0.53148
 Alpha virt. eigenvalues --    0.54916   0.56517   0.57784   0.66795   0.68646
 Alpha virt. eigenvalues --    0.78210   0.79189   0.79380   0.81439   0.82078

 Mulliken charges:
               1
     1  O   -0.509911
     2  H    0.257990
     3  H    0.251768
     4  O   -0.510986
     5  H    0.258744
     6  H    0.252395
 Sum of Mulliken charges =  -0.00000

 Dipole moment (field-independent basis, Debye):
    X=             -3.1067    Y=              2.4410    Z=              0.0000  Tot=              3.9509
 Quadrupole moment (field-independent basis, Debye-Ang):
   XX=            -10.7014   YY=             -8.8835   ZZ=            -14.7122
   XY=              2.4074   XZ=              0.0000   YZ=              0.0000

 Normal termination of Gaussian 16 at Sun Aug 28 00:26:41 2022.
