 Gaussian 16, Revision A.03,
 Gaussian 16:  ES64L-G16RevA.03 25-Dec-2016

 ------------------
 #p CCSD(T)/cc-pVTZ
 ------------------

 ------------
 H2O_H2O_2686
 ------------
 Symbolic Z-matrix:
 Charge =  0 Multiplicity = 1

                         Standard orientation:
 ---------------------------------------------------------------------
 Center     Atomic      Atomic             Coordinates (Angstroms)
 Number     Number       Type             X           Y           Z
 ---------------------------------------------------------------------
      1          8           0        0.059650    2.178122   -0.000000
      2          1           0        0.058297    1.195521   -0.000000
      3          1           0       -0.869403    2.498068   -0.000000
      4          8           0        0.059650   -2.000690    0.000000
      5          1           0        0.706506   -2.740340    0.000000
      6          1           0       -0.849805   -2.372708    0.000000
 ---------------------------------------------------------------------

 SCF Done:  E(RHF) =  -152.110236161     A.U. after   10 cycles
 E2 =    -0.5260516466D+00 EUMP2 =    -0.15263628780804D+03
 CCSD(T)
 CCSD(T)= -0.15266341288D+03

 The electronic state is 1-A'.
 Alpha  occ. eigenvalues --  -20.56828 -20.54313  -1.34098  -1.31637  -0.71500
 Alpha  occ. eigenvalues --   -0.69025  -0.57658  -0.55119  -0.51228  -0.48774
 Alpha virt. eigenvalues --    0.12313   0.16186   0.19395   0.23466   0.53042
 Alpha virt. eigenvalues --    0.55615   0.56168   0.58888   0.68979   0.69789
 Alpha virt. eigenvalues --    0.77592   0.78977   0.80058   0.80064   0.83399

 Mulliken charges:
               1
     1  O   -0.520031
     2  H    0.265556
     3  H    0.249871
     4  O   -0.511448
     5  H    0.260237
     6  H    0.255816
 Sum of Mulliken charges =   0.00000

 Dipole moment (field-independent basis, Debye):
    X=             -2.0291    Y=             -3.2287    Z=              0.0000  Tot=              3.8134
 Quadrupole moment (field-independent basis, Debye-Ang):
   XX=             -9.3666   YY=             -7.4827   ZZ=            -14.7208
   XY=             -4.0589   XZ=              0.0000   YZ=             -0.0000

 Normal termination of Gaussian 16 at Fri Aug 26 16:33:34 2022.
