 Gaussian 16, Revision A.03,
 Gaussian 16:  ES64L-G16RevA.03 25-Dec-2016

 ------------------
 #p CCSD(T)/cc-pVTZ
 ------------------

 -----------
 H2O_H2O_109
 -----------
 Symbolic Z-matrix:
 Charge =  0 Multiplicity = 1

                         Standard orientation:
 ---------------------------------------------------------------------
 Center     Atomic      Atomic             Coordinates (Angstroms)
 Number     Number       Type             X           Y           Z
 ---------------------------------------------------------------------
      1          8           0        0.066858    1.148586   -0.000000
      2          1           0        0.064765    0.165987   -0.000000
      3          1           0       -0.861954    1.469231   -0.000000
      4          8           0        0.066858   -0.975633    0.000000
      5          1           0        0.611021   -1.793797    0.000000
      6          1           0       -0.883563   -1.225046   -0.000000
 ---------------------------------------------------------------------

 SCF Done:  E(RHF) =  -152.050269541     A.U. after   11 cycles
 E2 =    -0.5361610920D+00 EUMP2 =    -0.15258643063319D+03
 CCSD(T)
 CCSD(T)= -0.15261207274D+03

 The electronic state is 1-A'.
 Alpha  occ. eigenvalues --  -20.61821 -20.45326  -1.43097  -1.25196  -0.80282
 Alpha  occ. eigenvalues --   -0.75163  -0.58147  -0.55249  -0.45693  -0.41791
 Alpha virt. eigenvalues --    0.10445   0.16182   0.21268   0.32456   0.48571
 Alpha virt. eigenvalues --    0.51904   0.60978   0.64186   0.70990   0.71666
 Alpha virt. eigenvalues --    0.78120   0.79202   0.81467   0.83758   0.87331

 Mulliken charges:
               1
     1  O   -0.647581
     2  H    0.286903
     3  H    0.197952
     4  O   -0.317231
     5  H    0.237417
     6  H    0.242540
 Sum of Mulliken charges =  -0.00000

 Dipole moment (field-independent basis, Debye):
    X=             -2.0364    Y=             -4.7978    Z=              0.0000  Tot=              5.2121
 Quadrupole moment (field-independent basis, Debye-Ang):
   XX=             -9.5291   YY=            -10.0528   ZZ=            -14.5610
   XY=             -2.6443   XZ=              0.0000   YZ=             -0.0000

 Normal termination of Gaussian 16 at Fri Aug 26 15:55:12 2022.
