 Gaussian 16, Revision A.03,
 Gaussian 16:  ES64L-G16RevA.03 25-Dec-2016

 ------------------
 #p CCSD(T)/cc-pVTZ
 ------------------

 ------------
 H2O_H2O_1496
 ------------
 Symbolic Z-matrix:
 Charge =  0 Multiplicity = 1

                         Standard orientation:
 ---------------------------------------------------------------------
 Center     Atomic      Atomic             Coordinates (Angstroms)
 Number     Number       Type             X           Y           Z
 ---------------------------------------------------------------------
      1          8           0       -0.023301    1.695625    0.000000
      2          1           0       -0.019626    0.713031    0.000000
      3          1           0        0.904994    2.017766    0.000000
      4          8           0       -0.023301   -1.525289    0.000000
      5          1           0       -0.986300   -1.720588    0.000000
      6          1           0        0.473751   -2.372900    0.000000
 ---------------------------------------------------------------------

 SCF Done:  E(RHF) =  -152.113607468     A.U. after   10 cycles
 E2 =    -0.5270942543D+00 EUMP2 =    -0.15264070172258D+03
 CCSD(T)
 CCSD(T)= -0.15266770444D+03

 The electronic state is 1-A'.
 Alpha  occ. eigenvalues --  -20.57908 -20.53106  -1.35218  -1.30548  -0.72632
 Alpha  occ. eigenvalues --   -0.68146  -0.59041  -0.53887  -0.52339  -0.47703
 Alpha virt. eigenvalues --    0.12148   0.17646   0.19009   0.28995   0.50627
 Alpha virt. eigenvalues --    0.54309   0.55873   0.60486   0.68877   0.73340
 Alpha virt. eigenvalues --    0.74229   0.77167   0.81416   0.82914   0.84427

 Mulliken charges:
               1
     1  O   -0.544503
     2  H    0.276081
     3  H    0.251168
     4  O   -0.502693
     5  H    0.264085
     6  H    0.255863
 Sum of Mulliken charges =  -0.00000

 Dipole moment (field-independent basis, Debye):
    X=              0.7878    Y=             -3.3429    Z=              0.0000  Tot=              3.4345
 Quadrupole moment (field-independent basis, Debye-Ang):
   XX=             -9.3611   YY=             -8.3978   ZZ=            -14.7326
   XY=              4.2289   XZ=              0.0000   YZ=              0.0000

 Normal termination of Gaussian 16 at Sat Aug 27 00:56:19 2022.
