 Gaussian 16, Revision A.03,
 Gaussian 16:  ES64L-G16RevA.03 25-Dec-2016

 ------------------
 #p CCSD(T)/cc-pVTZ
 ------------------

 -----------
 H2O_H2O_296
 -----------
 Symbolic Z-matrix:
 Charge =  0 Multiplicity = 1

                         Standard orientation:
 ---------------------------------------------------------------------
 Center     Atomic      Atomic             Coordinates (Angstroms)
 Number     Number       Type             X           Y           Z
 ---------------------------------------------------------------------
      1          8           0       -0.023436    1.216940    0.000000
      2          1           0       -0.018207    0.234353    0.000000
      3          1           0        0.904348    1.540549    0.000000
      4          8           0       -0.023436   -1.046678    0.000000
      5          1           0       -0.986123   -1.243500    0.000000
      6          1           0        0.474957   -1.893502    0.000000
 ---------------------------------------------------------------------

 SCF Done:  E(RHF) =  -152.080034699     A.U. after   11 cycles
 E2 =    -0.5337594207D+00 EUMP2 =    -0.15261379412010D+03
 CCSD(T)
 CCSD(T)= -0.15263979579D+03

 The electronic state is 1-A'.
 Alpha  occ. eigenvalues --  -20.60915 -20.47074  -1.40639  -1.26202  -0.78213
 Alpha  occ. eigenvalues --   -0.72101  -0.57565  -0.56597  -0.47422  -0.43026
 Alpha virt. eigenvalues --    0.11059   0.17489   0.20219   0.33941   0.47262
 Alpha virt. eigenvalues --    0.52747   0.59990   0.68569   0.70982   0.71880
 Alpha virt. eigenvalues --    0.76772   0.78059   0.78463   0.84198   0.84373

 Mulliken charges:
               1
     1  O   -0.644846
     2  H    0.294722
     3  H    0.229132
     4  O   -0.375177
     5  H    0.261367
     6  H    0.234802
 Sum of Mulliken charges =  -0.00000

 Dipole moment (field-independent basis, Debye):
    X=              0.7377    Y=             -4.4274    Z=              0.0000  Tot=              4.4884
 Quadrupole moment (field-independent basis, Debye-Ang):
   XX=             -9.2864   YY=             -9.7279   ZZ=            -14.6205
   XY=              3.0015   XZ=              0.0000   YZ=              0.0000

 Normal termination of Gaussian 16 at Fri Aug 26 17:14:45 2022.
