 Gaussian 16, Revision A.03,
 Gaussian 16:  ES64L-G16RevA.03 25-Dec-2016

 ------------------
 #p CCSD(T)/cc-pVTZ
 ------------------

 ------------
 H2O_H2O_3926
 ------------
 Symbolic Z-matrix:
 Charge =  0 Multiplicity = 1

                         Standard orientation:
 ---------------------------------------------------------------------
 Center     Atomic      Atomic             Coordinates (Angstroms)
 Number     Number       Type             X           Y           Z
 ---------------------------------------------------------------------
      1          8           0        0.090684   -2.655682    0.000000
      2          1           0        0.090609   -1.673081    0.000000
      3          1           0       -0.838785   -2.974419    0.000000
      4          8           0        0.090684    2.516972    0.000000
      5          1           0        0.154875    3.497474    0.000000
      6          1           0       -0.857641    2.259708    0.000000
 ---------------------------------------------------------------------

 SCF Done:  E(RHF) =  -152.107817688     A.U. after   10 cycles
 E2 =    -0.5259045860D+00 EUMP2 =    -0.15263372227380D+03
 CCSD(T)
 CCSD(T)= -0.15266092836D+03

 The electronic state is 1-A'.
 Alpha  occ. eigenvalues --  -20.56332 -20.55235  -1.33632  -1.32537  -0.71051
 Alpha  occ. eigenvalues --   -0.69930  -0.57097  -0.55990  -0.50743  -0.49650
 Alpha virt. eigenvalues --    0.12255   0.15049   0.18941   0.22155   0.53140
 Alpha virt. eigenvalues --    0.54960   0.56491   0.57861   0.66766   0.68770
 Alpha virt. eigenvalues --    0.78156   0.79113   0.79220   0.81408   0.82353

 Mulliken charges:
               1
     1  O   -0.510002
     2  H    0.258324
     3  H    0.251402
     4  O   -0.510964
     5  H    0.259115
     6  H    0.252124
 Sum of Mulliken charges =  -0.00000

 Dipole moment (field-independent basis, Debye):
    X=             -3.1037    Y=              2.4480    Z=              0.0000  Tot=              3.9529
 Quadrupole moment (field-independent basis, Debye-Ang):
   XX=            -10.7029   YY=             -8.8951   ZZ=            -14.7123
   XY=              2.3983   XZ=              0.0000   YZ=              0.0000

 Normal termination of Gaussian 16 at Sat Aug 27 00:30:33 2022.
