 Gaussian 16, Revision A.03,
 Gaussian 16:  ES64L-G16RevA.03 25-Dec-2016

 ------------------
 #p CCSD(T)/cc-pVTZ
 ------------------

 ------------
 H2O_H2O_1840
 ------------
 Symbolic Z-matrix:
 Charge =  0 Multiplicity = 1

                         Standard orientation:
 ---------------------------------------------------------------------
 Center     Atomic      Atomic             Coordinates (Angstroms)
 Number     Number       Type             X           Y           Z
 ---------------------------------------------------------------------
      1          8           0        0.044907    1.840666   -0.000000
      2          1           0        0.042575    0.858068   -0.000000
      3          1           0       -0.883827    2.161538   -0.000000
      4          8           0        0.044907   -1.660315    0.000000
      5          1           0        0.860611   -2.208156    0.000000
      6          1           0       -0.737866   -2.254262    0.000000
 ---------------------------------------------------------------------

 SCF Done:  E(RHF) =  -152.112913611     A.U. after   10 cycles
 E2 =    -0.5265873467D+00 EUMP2 =    -0.15263950095813D+03
 CCSD(T)
 CCSD(T)= -0.15266654599D+03

 The electronic state is 1-A'.
 Alpha  occ. eigenvalues --  -20.57528 -20.53459  -1.34781  -1.30839  -0.72152
 Alpha  occ. eigenvalues --   -0.68308  -0.58524  -0.54274  -0.51921  -0.47993
 Alpha virt. eigenvalues --    0.12181   0.17207   0.19094   0.27094   0.51132
 Alpha virt. eigenvalues --    0.54791   0.56365   0.59105   0.69069   0.72377
 Alpha virt. eigenvalues --    0.75682   0.77170   0.80966   0.83323   0.84537

 Mulliken charges:
               1
     1  O   -0.533047
     2  H    0.271316
     3  H    0.248367
     4  O   -0.507785
     5  H    0.263118
     6  H    0.258031
 Sum of Mulliken charges =  -0.00000

 Dipole moment (field-independent basis, Debye):
    X=             -1.5151    Y=             -3.4327    Z=              0.0000  Tot=              3.7522
 Quadrupole moment (field-independent basis, Debye-Ang):
   XX=             -9.1610   YY=             -7.9892   ZZ=            -14.7316
   XY=             -4.0158   XZ=              0.0000   YZ=              0.0000

 Normal termination of Gaussian 16 at Sun Aug 28 02:04:38 2022.
