 Gaussian 16, Revision A.03,
 Gaussian 16:  ES64L-G16RevA.03 25-Dec-2016

 ------------------
 #p CCSD(T)/cc-pVTZ
 ------------------

 ------------
 H2O_H2O_4413
 ------------
 Symbolic Z-matrix:
 Charge =  0 Multiplicity = 1

                         Standard orientation:
 ---------------------------------------------------------------------
 Center     Atomic      Atomic             Coordinates (Angstroms)
 Number     Number       Type             X           Y           Z
 ---------------------------------------------------------------------
      1          8           0        0.052273    2.867535    0.000000
      2          1           0        0.051030    1.884935    0.000000
      3          1           0       -0.876817    3.187377   -0.000000
      4          8           0        0.052273   -2.687615    0.000000
      5          1           0        0.790212   -3.336422    0.000000
      6          1           0       -0.800788   -3.175255   -0.000000
 ---------------------------------------------------------------------

 SCF Done:  E(RHF) =  -152.108434278     A.U. after   10 cycles
 E2 =    -0.5258130165D+00 EUMP2 =    -0.15263424729406D+03
 CCSD(T)
 CCSD(T)= -0.15266144335D+03

 The electronic state is 1-A'.
 Alpha  occ. eigenvalues --  -20.56203 -20.54928  -1.33504  -1.32236  -0.70908
 Alpha  occ. eigenvalues --   -0.69635  -0.56998  -0.55706  -0.50622  -0.49358
 Alpha virt. eigenvalues --    0.13314   0.14968   0.19684   0.21078   0.53636
 Alpha virt. eigenvalues --    0.54858   0.56646   0.57801   0.66793   0.68818
 Alpha virt. eigenvalues --    0.78265   0.79497   0.79633   0.80053   0.82725

 Mulliken charges:
               1
     1  O   -0.513854
     2  H    0.260644
     3  H    0.253045
     4  O   -0.514629
     5  H    0.258508
     6  H    0.256285
 Sum of Mulliken charges =  -0.00000

 Dipole moment (field-independent basis, Debye):
    X=             -1.7922    Y=             -3.1611    Z=             -0.0000  Tot=              3.6338
 Quadrupole moment (field-independent basis, Debye-Ang):
   XX=             -9.2250   YY=             -6.3021   ZZ=            -14.7149
   XY=             -5.2974   XZ=             -0.0000   YZ=             -0.0000

 Normal termination of Gaussian 16 at Sun Aug 28 02:40:03 2022.
