 Gaussian 16, Revision A.03,
 Gaussian 16:  ES64L-G16RevA.03 25-Dec-2016

 ------------------
 #p CCSD(T)/cc-pVTZ
 ------------------

 -----------
 H2O_H2O_217
 -----------
 Symbolic Z-matrix:
 Charge =  0 Multiplicity = 1

                         Standard orientation:
 ---------------------------------------------------------------------
 Center     Atomic      Atomic             Coordinates (Angstroms)
 Number     Number       Type             X           Y           Z
 ---------------------------------------------------------------------
      1          8           0        0.037646    1.191657   -0.000000
      2          1           0        0.033372    0.209064   -0.000000
      3          1           0       -0.890452    1.514363   -0.000000
      4          8           0        0.037646   -1.012860    0.000000
      5          1           0        0.917016   -1.451282    0.000000
      6          1           0       -0.662268   -1.702517    0.000000
 ---------------------------------------------------------------------

 SCF Done:  E(RHF) =  -152.071295345     A.U. after   11 cycles
 E2 =    -0.5342338410D+00 EUMP2 =    -0.15260552918645D+03
 CCSD(T)
 CCSD(T)= -0.15263138079D+03

 The electronic state is 1-A'.
 Alpha  occ. eigenvalues --  -20.61362 -20.45853  -1.41524  -1.25412  -0.77678
 Alpha  occ. eigenvalues --   -0.75041  -0.57282  -0.56277  -0.46200  -0.42104
 Alpha virt. eigenvalues --    0.10744   0.17049   0.20606   0.33555   0.46804
 Alpha virt. eigenvalues --    0.52602   0.61906   0.66887   0.70144   0.71578
 Alpha virt. eigenvalues --    0.78316   0.79683   0.79978   0.82719   0.84851

 Mulliken charges:
               1
     1  O   -0.654682
     2  H    0.300356
     3  H    0.216506
     4  O   -0.363542
     5  H    0.259757
     6  H    0.241605
 Sum of Mulliken charges =  -0.00000

 Dipole moment (field-independent basis, Debye):
    X=             -1.1641    Y=             -4.7644    Z=              0.0000  Tot=              4.9046
 Quadrupole moment (field-independent basis, Debye-Ang):
   XX=             -9.1011   YY=             -9.9356   ZZ=            -14.6070
   XY=             -2.8209   XZ=              0.0000   YZ=             -0.0000

 Normal termination of Gaussian 16 at Fri Aug 26 16:40:46 2022.
