 Gaussian 16, Revision A.03,
 Gaussian 16:  ES64L-G16RevA.03 25-Dec-2016

 ------------------
 #p CCSD(T)/cc-pVTZ
 ------------------

 ------------
 H2O_H2O_3942
 ------------
 Symbolic Z-matrix:
 Charge =  0 Multiplicity = 1

                         Standard orientation:
 ---------------------------------------------------------------------
 Center     Atomic      Atomic             Coordinates (Angstroms)
 Number     Number       Type             X           Y           Z
 ---------------------------------------------------------------------
      1          8           0        0.037423    2.677562    0.000000
      2          1           0        0.035602    1.694962    0.000000
      3          1           0       -0.891479    2.997950    0.000000
      4          8           0        0.037423   -2.498578   -0.000000
      5          1           0        0.917884   -2.934804   -0.000000
      6          1           0       -0.660768   -3.189980   -0.000000
 ---------------------------------------------------------------------

 SCF Done:  E(RHF) =  -152.108839804     A.U. after   10 cycles
 E2 =    -0.5258167332D+00 EUMP2 =    -0.15263465653674D+03
 CCSD(T)
 CCSD(T)= -0.15266183932D+03

 The electronic state is 1-A'.
 Alpha  occ. eigenvalues --  -20.56304 -20.54803  -1.33601  -1.32114  -0.71004
 Alpha  occ. eigenvalues --   -0.69515  -0.57110  -0.55593  -0.50723  -0.49242
 Alpha virt. eigenvalues --    0.13042   0.15242   0.19610   0.21395   0.53507
 Alpha virt. eigenvalues --    0.54964   0.56588   0.57845   0.66684   0.69127
 Alpha virt. eigenvalues --    0.78171   0.79267   0.79605   0.79834   0.82899

 Mulliken charges:
               1
     1  O   -0.515672
     2  H    0.261705
     3  H    0.253439
     4  O   -0.515890
     5  H    0.258822
     6  H    0.257595
 Sum of Mulliken charges =   0.00000

 Dipole moment (field-independent basis, Debye):
    X=             -1.2816    Y=             -3.1616    Z=             -0.0000  Tot=              3.4115
 Quadrupole moment (field-independent basis, Debye-Ang):
   XX=             -9.1592   YY=             -6.6457   ZZ=            -14.7163
   XY=             -5.8000   XZ=             -0.0000   YZ=             -0.0000

 CCSD(T)=-152.6618393\RMSD=7.071e-09\PG=CS [SG(H4O2)]\\@
 Normal termination of Gaussian 16 at Sat Aug 27 00:35:56 2022.
