 Gaussian 16, Revision A.03,
 Gaussian 16:  ES64L-G16RevA.03 25-Dec-2016

 ------------------
 #p CCSD(T)/cc-pVTZ
 ------------------

 ------------
 H2O_H2O_1442
 ------------
 Symbolic Z-matrix:
 Charge =  0 Multiplicity = 1

                         Standard orientation:
 ---------------------------------------------------------------------
 Center     Atomic      Atomic             Coordinates (Angstroms)
 Number     Number       Type             X           Y           Z
 ---------------------------------------------------------------------
      1          8           0        0.037526    1.680328    0.000000
      2          1           0        0.034565    0.697731    0.000000
      3          1           0       -0.891002    2.001794    0.000000
      4          8           0        0.037526   -1.501431    0.000000
      5          1           0        0.917482   -1.938678    0.000000
      6          1           0       -0.661466   -2.192023    0.000000
 ---------------------------------------------------------------------

 SCF Done:  E(RHF) =  -152.114095058     A.U. after   10 cycles
 E2 =    -0.5272315694D+00 EUMP2 =    -0.15264132662765D+03
 CCSD(T)
 CCSD(T)= -0.15266831137D+03

 The electronic state is 1-A'.
 Alpha  occ. eigenvalues --  -20.58031 -20.52801  -1.35330  -1.30266  -0.72668
 Alpha  occ. eigenvalues --   -0.67979  -0.59165  -0.53583  -0.52458  -0.47418
 Alpha virt. eigenvalues --    0.12089   0.17782   0.18892   0.29400   0.50027
 Alpha virt. eigenvalues --    0.54431   0.55977   0.60137   0.68820   0.72133
 Alpha virt. eigenvalues --    0.74077   0.76973   0.81647   0.82969   0.84814

 Mulliken charges:
               1
     1  O   -0.545810
     2  H    0.279461
     3  H    0.247399
     4  O   -0.505509
     5  H    0.265494
     6  H    0.258965
 Sum of Mulliken charges =  -0.00000

 Dipole moment (field-independent basis, Debye):
    X=             -1.2580    Y=             -3.5330    Z=              0.0000  Tot=              3.7503
 Quadrupole moment (field-independent basis, Debye-Ang):
   XX=             -9.1601   YY=             -8.3361   ZZ=            -14.7354
   XY=             -3.8723   XZ=              0.0000   YZ=              0.0000

 Normal termination of Gaussian 16 at Sat Aug 27 00:36:39 2022.
