 Gaussian 16, Revision A.03,
 Gaussian 16:  ES64L-G16RevA.03 25-Dec-2016

 ------------------
 #p CCSD(T)/cc-pVTZ
 ------------------

 -----------
 H2O_H2O_137
 -----------
 Symbolic Z-matrix:
 Charge =  0 Multiplicity = 1

                         Standard orientation:
 ---------------------------------------------------------------------
 Center     Atomic      Atomic             Coordinates (Angstroms)
 Number     Number       Type             X           Y           Z
 ---------------------------------------------------------------------
      1          8           0        0.056130    1.161701   -0.000000
      2          1           0        0.053204    0.179104   -0.000000
      3          1           0       -0.872410    1.483133   -0.000000
      4          8           0        0.056130   -0.982968    0.000000
      5          1           0        0.748862   -1.679838    0.000000
      6          1           0       -0.827735   -1.412258    0.000000
 ---------------------------------------------------------------------

 SCF Done:  E(RHF) =  -152.057582967     A.U. after   11 cycles
 E2 =    -0.5352828986D+00 EUMP2 =    -0.15259286586514D+03
 CCSD(T)
 CCSD(T)= -0.15261856427D+03

 The electronic state is 1-A'.
 Alpha  occ. eigenvalues --  -20.61748 -20.45146  -1.42618  -1.25032  -0.78581
 Alpha  occ. eigenvalues --   -0.76377  -0.57959  -0.55322  -0.45489  -0.41618
 Alpha virt. eigenvalues --    0.10489   0.16469   0.21050   0.32895   0.47562
 Alpha virt. eigenvalues --    0.52181   0.62819   0.63781   0.71145   0.71198
 Alpha virt. eigenvalues --    0.79194   0.79427   0.81228   0.82545   0.86528

 Mulliken charges:
               1
     1  O   -0.655633
     2  H    0.295568
     3  H    0.203439
     4  O   -0.334559
     5  H    0.247051
     6  H    0.244134
 Sum of Mulliken charges =  -0.00000

 Dipole moment (field-independent basis, Debye):
    X=             -1.7121    Y=             -4.8969    Z=              0.0000  Tot=              5.1876
 Quadrupole moment (field-independent basis, Debye-Ang):
   XX=             -9.2481   YY=            -10.0725   ZZ=            -14.5797
   XY=             -2.7186   XZ=              0.0000   YZ=              0.0000

 Normal termination of Gaussian 16 at Fri Aug 26 16:07:29 2022.
