 Gaussian 16, Revision A.03,
 Gaussian 16:  ES64L-G16RevA.03 25-Dec-2016

 ------------------
 #p CCSD(T)/cc-pVTZ
 ------------------

 ------------
 H2O_H2O_4661
 ------------
 Symbolic Z-matrix:
 Charge =  0 Multiplicity = 1

                         Standard orientation:
 ---------------------------------------------------------------------
 Center     Atomic      Atomic             Coordinates (Angstroms)
 Number     Number       Type             X           Y           Z
 ---------------------------------------------------------------------
      1          8           0        0.059617    2.965926    0.000000
      2          1           0        0.058634    1.983325    0.000000
      3          1           0       -0.869557    3.285522    0.000000
      4          8           0        0.059617   -2.788449   -0.000000
      5          1           0        0.706752   -3.527855   -0.000000
      6          1           0       -0.849698   -3.160811   -0.000000
 ---------------------------------------------------------------------

 SCF Done:  E(RHF) =  -152.108248119     A.U. after   10 cycles
 E2 =    -0.5258172202D+00 EUMP2 =    -0.15263406533926D+03
 CCSD(T)
 CCSD(T)= -0.15266126674D+03

 The electronic state is 1-A'.
 Alpha  occ. eigenvalues --  -20.56162 -20.55004  -1.33463  -1.32311  -0.70869
 Alpha  occ. eigenvalues --   -0.69711  -0.56949  -0.55777  -0.50581  -0.49432
 Alpha virt. eigenvalues --    0.13406   0.14840   0.19680   0.20978   0.53651
 Alpha virt. eigenvalues --    0.54831   0.56672   0.57772   0.66930   0.68641
 Alpha virt. eigenvalues --    0.78305   0.79428   0.79651   0.80377   0.82498

 Mulliken charges:
               1
     1  O   -0.512974
     2  H    0.259933
     3  H    0.252961
     4  O   -0.513788
     5  H    0.258225
     6  H    0.255643
 Sum of Mulliken charges =  -0.00000

 Dipole moment (field-independent basis, Debye):
    X=             -2.0452    Y=             -3.1114    Z=             -0.0000  Tot=              3.7234
 Quadrupole moment (field-independent basis, Debye-Ang):
   XX=             -9.3615   YY=             -6.2890   ZZ=            -14.7142
   XY=             -4.9710   XZ=             -0.0000   YZ=             -0.0000

 Normal termination of Gaussian 16 at Sun Aug 28 04:42:58 2022.
