 Gaussian 16, Revision A.03,
 Gaussian 16:  ES64L-G16RevA.03 25-Dec-2016

 ------------------
 #p CCSD(T)/cc-pVTZ
 ------------------

 ------------
 H2O_H2O_4065
 ------------
 Symbolic Z-matrix:
 Charge =  0 Multiplicity = 1

                         Standard orientation:
 ---------------------------------------------------------------------
 Center     Atomic      Atomic             Coordinates (Angstroms)
 Number     Number       Type             X           Y           Z
 ---------------------------------------------------------------------
      1          8           0        0.044835    2.728203    0.000000
      2          1           0        0.043287    1.745603    0.000000
      3          1           0       -0.884155    3.048333    0.000000
      4          8           0        0.044835   -2.547780    0.000000
      5          1           0        0.860978   -3.094969    0.000000
      6          1           0       -0.737463   -3.142352    0.000000
 ---------------------------------------------------------------------

 SCF Done:  E(RHF) =  -152.108709090     A.U. after   10 cycles
 E2 =    -0.5258162053D+00 EUMP2 =    -0.15263452529511D+03
 CCSD(T)
 CCSD(T)= -0.15266171224D+03

 The electronic state is 1-A'.
 Alpha  occ. eigenvalues --  -20.56276 -20.54830  -1.33574  -1.32140  -0.70977
 Alpha  occ. eigenvalues --   -0.69540  -0.57078  -0.55616  -0.50695  -0.49266
 Alpha virt. eigenvalues --    0.13129   0.15164   0.19650   0.21277   0.53573
 Alpha virt. eigenvalues --    0.54904   0.56600   0.57827   0.66679   0.69058
 Alpha virt. eigenvalues --    0.78198   0.79547   0.79583   0.79663   0.82867

 Mulliken charges:
               1
     1  O   -0.515038
     2  H    0.261512
     3  H    0.253124
     4  O   -0.515521
     5  H    0.258880
     6  H    0.257043
 Sum of Mulliken charges =  -0.00000

 Dipole moment (field-independent basis, Debye):
    X=             -1.5357    Y=             -3.1821    Z=             -0.0000  Tot=              3.5333
 Quadrupole moment (field-independent basis, Debye-Ang):
   XX=             -9.1568   YY=             -6.4980   ZZ=            -14.7159
   XY=             -5.4989   XZ=             -0.0000   YZ=             -0.0000

 Normal termination of Gaussian 16 at Sat Aug 27 23:06:15 2022.
