 Gaussian 16, Revision A.03,
 Gaussian 16:  ES64L-G16RevA.03 25-Dec-2016

 ------------------
 #p CCSD(T)/cc-pVTZ
 ------------------

 ------------
 H2O_H2O_1076
 ------------
 Symbolic Z-matrix:
 Charge =  0 Multiplicity = 1

                         Standard orientation:
 ---------------------------------------------------------------------
 Center     Atomic      Atomic             Coordinates (Angstroms)
 Number     Number       Type             X           Y           Z
 ---------------------------------------------------------------------
      1          8           0        0.090688   -1.518877    0.000000
      2          1           0        0.090555   -0.536275    0.000000
      3          1           0       -0.838762   -1.837669    0.000000
      4          8           0        0.090688    1.380177    0.000000
      5          1           0        0.154821    2.360684    0.000000
      6          1           0       -0.857623    1.122856    0.000000
 ---------------------------------------------------------------------

 SCF Done:  E(RHF) =  -152.107551644     A.U. after   10 cycles
 E2 =    -0.5291431758D+00 EUMP2 =    -0.15263669482022D+03
 CCSD(T)
 CCSD(T)= -0.15266368250D+03

 The electronic state is 1-A'.
 Alpha  occ. eigenvalues --  -20.58552 -20.53555  -1.36137  -1.31047  -0.74250
 Alpha  occ. eigenvalues --   -0.68318  -0.59425  -0.54265  -0.53077  -0.48115
 Alpha virt. eigenvalues --    0.11479   0.16445   0.20551   0.30237   0.48502
 Alpha virt. eigenvalues --    0.53396   0.58168   0.60141   0.68220   0.72039
 Alpha virt. eigenvalues --    0.74103   0.78032   0.80504   0.81627   0.83169

 Mulliken charges:
               1
     1  O   -0.533601
     2  H    0.282006
     3  H    0.232597
     4  O   -0.453320
     5  H    0.237522
     6  H    0.234795
 Sum of Mulliken charges =  -0.00000

 Dipole moment (field-independent basis, Debye):
    X=             -2.9929    Y=              2.8799    Z=              0.0000  Tot=              4.1535
 Quadrupole moment (field-independent basis, Debye-Ang):
   XX=            -10.7583   YY=             -9.0984   ZZ=            -14.6976
   XY=              2.2493   XZ=              0.0000   YZ=              0.0000

 Normal termination of Gaussian 16 at Fri Aug 26 22:18:47 2022.
