 Gaussian 16, Revision A.03,
 Gaussian 16:  ES64L-G16RevA.03 25-Dec-2016

 ------------------
 #p CCSD(T)/cc-pVTZ
 ------------------

 ------------
 H2O_H2O_4067
 ------------
 Symbolic Z-matrix:
 Charge =  0 Multiplicity = 1

                         Standard orientation:
 ---------------------------------------------------------------------
 Center     Atomic      Atomic             Coordinates (Angstroms)
 Number     Number       Type             X           Y           Z
 ---------------------------------------------------------------------
      1          8           0        0.037419    2.727423    0.000000
      2          1           0        0.035633    1.744824    0.000000
      3          1           0       -0.891493    3.047779   -0.000000
      4          8           0        0.037419   -2.548437    0.000000
      5          1           0        0.917897   -2.984631    0.000000
      6          1           0       -0.660747   -3.239863   -0.000000
 ---------------------------------------------------------------------

 SCF Done:  E(RHF) =  -152.108742934     A.U. after   10 cycles
 E2 =    -0.5258113299D+00 EUMP2 =    -0.15263455426385D+03
 CCSD(T)
 CCSD(T)= -0.15266174074D+03

 The electronic state is 1-A'.
 Alpha  occ. eigenvalues --  -20.56273 -20.54839  -1.33571  -1.32149  -0.70974
 Alpha  occ. eigenvalues --   -0.69551  -0.57077  -0.55626  -0.50692  -0.49276
 Alpha virt. eigenvalues --    0.13121   0.15167   0.19629   0.21303   0.53540
 Alpha virt. eigenvalues --    0.54933   0.56608   0.57828   0.66679   0.69048
 Alpha virt. eigenvalues --    0.78200   0.79367   0.79573   0.79894   0.82859

 Mulliken charges:
               1
     1  O   -0.515318
     2  H    0.261408
     3  H    0.253515
     4  O   -0.515734
     5  H    0.258644
     6  H    0.257485
 Sum of Mulliken charges =   0.00000

 Dipole moment (field-independent basis, Debye):
    X=             -1.2820    Y=             -3.1564    Z=             -0.0000  Tot=              3.4068
 Quadrupole moment (field-independent basis, Debye-Ang):
   XX=             -9.1592   YY=             -6.5675   ZZ=            -14.7160
   XY=             -5.8957   XZ=              0.0000   YZ=             -0.0000

 Normal termination of Gaussian 16 at Sat Aug 27 23:07:03 2022.
