 Gaussian 16, Revision A.03,
 Gaussian 16:  ES64L-G16RevA.03 25-Dec-2016

 ------------------
 #p CCSD(T)/cc-pVTZ
 ------------------

 ------------
 H2O_H2O_3264
 ------------
 Symbolic Z-matrix:
 Charge =  0 Multiplicity = 1

                         Standard orientation:
 ---------------------------------------------------------------------
 Center     Atomic      Atomic             Coordinates (Angstroms)
 Number     Number       Type             X           Y           Z
 ---------------------------------------------------------------------
      1          8           0        0.048579    2.409085    0.000000
      2          1           0        0.046955    1.426485    0.000000
      3          1           0       -0.880386    2.729287    0.000000
      4          8           0        0.048579   -2.228692    0.000000
      5          1           0        0.827140   -2.828150    0.000000
      6          1           0       -0.770973   -2.770763    0.000000
 ---------------------------------------------------------------------

 SCF Done:  E(RHF) =  -152.109484512     A.U. after   10 cycles
 E2 =    -0.5258916745D+00 EUMP2 =    -0.15263537618678D+03
 CCSD(T)
 CCSD(T)= -0.15266253224D+03

 The electronic state is 1-A'.
 Alpha  occ. eigenvalues --  -20.56533 -20.54554  -1.33818  -1.31871  -0.71219
 Alpha  occ. eigenvalues --   -0.69266  -0.57348  -0.55356  -0.50945  -0.49003
 Alpha virt. eigenvalues --    0.12633   0.15720   0.19516   0.22156   0.53317
 Alpha virt. eigenvalues --    0.55243   0.56421   0.58255   0.67502   0.69358
 Alpha virt. eigenvalues --    0.77961   0.79068   0.79352   0.79829   0.83137

 Mulliken charges:
               1
     1  O   -0.517626
     2  H    0.263616
     3  H    0.252019
     4  O   -0.515015
     5  H    0.259952
     6  H    0.257054
 Sum of Mulliken charges =  -0.00000

 Dipole moment (field-independent basis, Debye):
    X=             -1.6585    Y=             -3.2274    Z=             -0.0000  Tot=              3.6286
 Quadrupole moment (field-independent basis, Debye-Ang):
   XX=             -9.1826   YY=             -7.0138   ZZ=            -14.7186
   XY=             -4.8097   XZ=              0.0000   YZ=             -0.0000

 CCSD(T)=-152.6625322\RMSD=6.940e-09\PG=CS [SG(H4O2)]\\@
 Normal termination of Gaussian 16 at Fri Aug 26 20:42:56 2022.
