 Gaussian 16, Revision A.03,
 Gaussian 16:  ES64L-G16RevA.03 25-Dec-2016

 ------------------
 #p CCSD(T)/cc-pVTZ
 ------------------

 ------------
 H2O_H2O_2419
 ------------
 Symbolic Z-matrix:
 Charge =  0 Multiplicity = 1

                         Standard orientation:
 ---------------------------------------------------------------------
 Center     Atomic      Atomic             Coordinates (Angstroms)
 Number     Number       Type             X           Y           Z
 ---------------------------------------------------------------------
      1          8           0        0.030219    2.067434   -0.000000
      2          1           0        0.027528    1.084836   -0.000000
      3          1           0       -0.898398    2.388644   -0.000000
      4          8           0        0.030219   -1.891847    0.000000
      5          1           0        0.959805   -2.210240    0.000000
      6          1           0       -0.572440   -2.667933    0.000000
 ---------------------------------------------------------------------

 SCF Done:  E(RHF) =  -152.111192194     A.U. after   10 cycles
 E2 =    -0.5261130286D+00 EUMP2 =    -0.15263730522290D+03
 CCSD(T)
 CCSD(T)= -0.15266440537D+03

 The electronic state is 1-A'.
 Alpha  occ. eigenvalues --  -20.56988 -20.54113  -1.34251  -1.31449  -0.71648
 Alpha  occ. eigenvalues --   -0.68856  -0.57863  -0.54937  -0.51388  -0.48597
 Alpha virt. eigenvalues --    0.12318   0.16541   0.19271   0.24518   0.52957
 Alpha virt. eigenvalues --    0.55438   0.56415   0.58737   0.69003   0.71084
 Alpha virt. eigenvalues --    0.77242   0.78739   0.80259   0.81605   0.83681

 Mulliken charges:
               1
     1  O   -0.525424
     2  H    0.266535
     3  H    0.252277
     4  O   -0.511569
     5  H    0.260529
     6  H    0.257653
 Sum of Mulliken charges =  -0.00000

 Dipole moment (field-independent basis, Debye):
    X=             -1.0281    Y=             -3.2296    Z=              0.0000  Tot=              3.3892
 Quadrupole moment (field-independent basis, Debye-Ang):
   XX=             -9.2297   YY=             -7.6976   ZZ=            -14.7241
   XY=             -4.8694   XZ=              0.0000   YZ=             -0.0000

 Normal termination of Gaussian 16 at Sun Aug 28 07:10:38 2022.
