 Gaussian 16, Revision A.03,
 Gaussian 16:  ES64L-G16RevA.03 25-Dec-2016

 ------------------
 #p CCSD(T)/cc-pVTZ
 ------------------

 ------------
 H2O_H2O_4307
 ------------
 Symbolic Z-matrix:
 Charge =  0 Multiplicity = 1

                         Standard orientation:
 ---------------------------------------------------------------------
 Center     Atomic      Atomic             Coordinates (Angstroms)
 Number     Number       Type             X           Y           Z
 ---------------------------------------------------------------------
      1          8           0        0.073525    2.820606   -0.000000
      2          1           0        0.072923    1.838005   -0.000000
      3          1           0       -0.855772    3.139842    0.000000
      4          8           0        0.073525   -2.653646   -0.000000
      5          1           0        0.507578   -3.535181   -0.000000
      6          1           0       -0.901132   -2.778349    0.000000
 ---------------------------------------------------------------------

 SCF Done:  E(RHF) =  -152.108192911     A.U. after   10 cycles
 E2 =    -0.5258411360D+00 EUMP2 =    -0.15263403404689D+03
 CCSD(T)
 CCSD(T)= -0.15266123441D+03

 The electronic state is 1-A'.
 Alpha  occ. eigenvalues --  -20.56233 -20.55028  -1.33533  -1.32333  -0.70942
 Alpha  occ. eigenvalues --   -0.69730  -0.57016  -0.55797  -0.50649  -0.49453
 Alpha virt. eigenvalues --    0.13089   0.14939   0.19469   0.21223   0.53411
 Alpha virt. eigenvalues --    0.54915   0.56589   0.57794   0.66776   0.68791
 Alpha virt. eigenvalues --    0.78241   0.79325   0.79407   0.80566   0.82607

 Mulliken charges:
               1
     1  O   -0.512338
     2  H    0.259922
     3  H    0.252234
     4  O   -0.513320
     5  H    0.258831
     6  H    0.254672
 Sum of Mulliken charges =  -0.00000

 Dipole moment (field-independent basis, Debye):
    X=             -2.5199    Y=             -2.9359    Z=              0.0000  Tot=              3.8690
 Quadrupole moment (field-independent basis, Debye-Ang):
   XX=             -9.8095   YY=             -7.1029   ZZ=            -14.7140
   XY=             -3.9009   XZ=             -0.0000   YZ=              0.0000

 Normal termination of Gaussian 16 at Sun Aug 28 01:45:29 2022.
