 Gaussian 16, Revision A.03,
 Gaussian 16:  ES64L-G16RevA.03 25-Dec-2016

 ------------------
 #p CCSD(T)/cc-pVTZ
 ------------------

 ------------
 H2O_H2O_1540
 ------------
 Symbolic Z-matrix:
 Charge =  0 Multiplicity = 1

                         Standard orientation:
 ---------------------------------------------------------------------
 Center     Atomic      Atomic             Coordinates (Angstroms)
 Number     Number       Type             X           Y           Z
 ---------------------------------------------------------------------
      1          8           0        0.044922    1.720996   -0.000000
      2          1           0        0.042419    0.738398   -0.000000
      3          1           0       -0.883756    2.042029   -0.000000
      4          8           0        0.044922   -1.540660    0.000000
      5          1           0        0.860532   -2.088644    0.000000
      6          1           0       -0.737954   -2.134470    0.000000
 ---------------------------------------------------------------------

 SCF Done:  E(RHF) =  -152.113827147     A.U. after   10 cycles
 E2 =    -0.5270517704D+00 EUMP2 =    -0.15264087891762D+03
 CCSD(T)
 CCSD(T)= -0.15266788229D+03

 The electronic state is 1-A'.
 Alpha  occ. eigenvalues --  -20.57900 -20.52984  -1.35178  -1.30419  -0.72520
 Alpha  occ. eigenvalues --   -0.68042  -0.58994  -0.53776  -0.52311  -0.47571
 Alpha virt. eigenvalues --    0.12088   0.17580   0.18975   0.28800   0.50138
 Alpha virt. eigenvalues --    0.54582   0.56141   0.59590   0.68988   0.72020
 Alpha virt. eigenvalues --    0.74484   0.76849   0.81463   0.83075   0.84811

 Mulliken charges:
               1
     1  O   -0.541051
     2  H    0.277067
     3  H    0.246587
     4  O   -0.506694
     5  H    0.265103
     6  H    0.258988
 Sum of Mulliken charges =  -0.00000

 Dipole moment (field-independent basis, Debye):
    X=             -1.5074    Y=             -3.5231    Z=              0.0000  Tot=              3.8320
 Quadrupole moment (field-independent basis, Debye-Ang):
   XX=             -9.1612   YY=             -8.2341   ZZ=            -14.7351
   XY=             -3.8115   XZ=              0.0000   YZ=             -0.0000

 Normal termination of Gaussian 16 at Sat Aug 27 22:59:26 2022.
