 Gaussian 16, Revision A.03,
 Gaussian 16:  ES64L-G16RevA.03 25-Dec-2016

 ------------------
 #p CCSD(T)/cc-pVTZ
 ------------------

 ------------
 H2O_H2O_1165
 ------------
 Symbolic Z-matrix:
 Charge =  0 Multiplicity = 1

                         Standard orientation:
 ---------------------------------------------------------------------
 Center     Atomic      Atomic             Coordinates (Angstroms)
 Number     Number       Type             X           Y           Z
 ---------------------------------------------------------------------
      1          8           0        0.044946    1.571406   -0.000000
      2          1           0        0.042190    0.588808   -0.000000
      3          1           0       -0.883650    1.892678   -0.000000
      4          8           0        0.044946   -1.391093    0.000000
      5          1           0        0.860415   -1.939286    0.000000
      6          1           0       -0.738083   -1.984703    0.000000
 ---------------------------------------------------------------------

 SCF Done:  E(RHF) =  -152.114121716     A.U. after   10 cycles
 E2 =    -0.5280201474D+00 EUMP2 =    -0.15264214186359D+03
 CCSD(T)
 CCSD(T)= -0.15266905084D+03

 The electronic state is 1-A'.
 Alpha  occ. eigenvalues --  -20.58512 -20.52076  -1.35905  -1.29664  -0.73161
 Alpha  occ. eigenvalues --   -0.67924  -0.59595  -0.53000  -0.52814  -0.46796
 Alpha virt. eigenvalues --    0.11927   0.18012   0.18872   0.31085   0.48912
 Alpha virt. eigenvalues --    0.54753   0.56197   0.60632   0.69012   0.71576
 Alpha virt. eigenvalues --    0.73133   0.77204   0.82263   0.82652   0.84947

 Mulliken charges:
               1
     1  O   -0.558320
     2  H    0.290665
     3  H    0.242854
     4  O   -0.499995
     5  H    0.266300
     6  H    0.258497
 Sum of Mulliken charges =  -0.00000

 Dipole moment (field-independent basis, Debye):
    X=             -1.4926    Y=             -3.6956    Z=              0.0000  Tot=              3.9856
 Quadrupole moment (field-independent basis, Debye-Ang):
   XX=             -9.1575   YY=             -8.5885   ZZ=            -14.7322
   XY=             -3.5501   XZ=              0.0000   YZ=             -0.0000

 Normal termination of Gaussian 16 at Fri Aug 26 22:51:18 2022.
