 Gaussian 16, Revision A.03,
 Gaussian 16:  ES64L-G16RevA.03 25-Dec-2016

 ------------------
 #p CCSD(T)/cc-pVTZ
 ------------------

 ------------
 H2O_H2O_4149
 ------------
 Symbolic Z-matrix:
 Charge =  0 Multiplicity = 1

                         Standard orientation:
 ---------------------------------------------------------------------
 Center     Atomic      Atomic             Coordinates (Angstroms)
 Number     Number       Type             X           Y           Z
 ---------------------------------------------------------------------
      1          8           0       -0.013483    2.746636    0.000000
      2          1           0       -0.010956    1.764037    0.000000
      3          1           0        0.915188    3.067691    0.000000
      4          8           0       -0.013483   -2.587362    0.000000
      5          1           0       -0.996081   -2.589889    0.000000
      6          1           0        0.307574   -3.516032    0.000000
 ---------------------------------------------------------------------

 SCF Done:  E(RHF) =  -152.108593285     A.U. after   10 cycles
 E2 =    -0.5258059695D+00 EUMP2 =    -0.15263439925462D+03
 CCSD(T)
 CCSD(T)= -0.15266159146D+03

 The electronic state is 1-A'.
 Alpha  occ. eigenvalues --  -20.56248 -20.55024  -1.33550  -1.32332  -0.70957
 Alpha  occ. eigenvalues --   -0.69740  -0.57048  -0.55809  -0.50669  -0.49458
 Alpha virt. eigenvalues --    0.12930   0.15075   0.19259   0.21639   0.53254
 Alpha virt. eigenvalues --    0.55069   0.56636   0.57816   0.66710   0.68859
 Alpha virt. eigenvalues --    0.78220   0.79220   0.79397   0.80848   0.82636

 Mulliken charges:
               1
     1  O   -0.515036
     2  H    0.259734
     3  H    0.255044
     4  O   -0.515395
     5  H    0.257119
     6  H    0.258534
 Sum of Mulliken charges =  -0.00000

 Dipole moment (field-independent basis, Debye):
    X=              0.4643    Y=             -2.8034    Z=              0.0000  Tot=              2.8416
 Quadrupole moment (field-independent basis, Debye-Ang):
   XX=             -9.6480   YY=             -7.5932   ZZ=            -14.7153
   XY=              7.4395   XZ=              0.0000   YZ=              0.0000

 Normal termination of Gaussian 16 at Sun Aug 28 00:09:21 2022.
