 Gaussian 16, Revision A.03,
 Gaussian 16:  ES64L-G16RevA.03 25-Dec-2016

 ------------------
 #p CCSD(T)/cc-pVTZ
 ------------------

 -----------
 H2O_H2O_775
 -----------
 Symbolic Z-matrix:
 Charge =  0 Multiplicity = 1

                         Standard orientation:
 ---------------------------------------------------------------------
 Center     Atomic      Atomic             Coordinates (Angstroms)
 Number     Number       Type             X           Y           Z
 ---------------------------------------------------------------------
      1          8           0        0.092949   -1.396001    0.000000
      2          1           0        0.092949   -0.413400    0.000000
      3          1           0       -0.836544   -1.714668    0.000000
      4          8           0        0.092949    1.263215    0.000000
      5          1           0        0.092949    2.245816    0.000000
      6          1           0       -0.836544    0.944547    0.000000
 ---------------------------------------------------------------------

 SCF Done:  E(RHF) =  -152.100688681     A.U. after   10 cycles
 E2 =    -0.5311550892D+00 EUMP2 =    -0.15263184377029D+03
 CCSD(T)
 CCSD(T)= -0.15265867542D+03

 The electronic state is 1-A'.
 Alpha  occ. eigenvalues --  -20.59198 -20.52855  -1.37274  -1.30546  -0.76091
 Alpha  occ. eigenvalues --   -0.67851  -0.59802  -0.53931  -0.53582  -0.47564
 Alpha virt. eigenvalues --    0.11396   0.16386   0.20946   0.31528   0.48129
 Alpha virt. eigenvalues --    0.52349   0.58613   0.62797   0.68771   0.71113
 Alpha virt. eigenvalues --    0.73742   0.78496   0.78957   0.82425   0.82699

 Mulliken charges:
               1
     1  O   -0.543332
     2  H    0.285977
     3  H    0.224033
     4  O   -0.428426
     5  H    0.234893
     6  H    0.226855
 Sum of Mulliken charges =  -0.00000

 Dipole moment (field-independent basis, Debye):
    X=             -3.0327    Y=              2.9637    Z=              0.0000  Tot=              4.2404
 Quadrupole moment (field-independent basis, Debye-Ang):
   XX=            -10.8980   YY=             -9.3235   ZZ=            -14.6676
   XY=              2.0548   XZ=              0.0000   YZ=              0.0000

 Normal termination of Gaussian 16 at Fri Aug 26 20:26:05 2022.
