 Gaussian 16, Revision A.03,
 Gaussian 16:  ES64L-G16RevA.03 25-Dec-2016

 ------------------
 #p CCSD(T)/cc-pVTZ
 ------------------

 ----------
 H2O_H2O_89
 ----------
 Symbolic Z-matrix:
 Charge =  0 Multiplicity = 1

                         Standard orientation:
 ---------------------------------------------------------------------
 Center     Atomic      Atomic             Coordinates (Angstroms)
 Number     Number       Type             X           Y           Z
 ---------------------------------------------------------------------
      1          8           0        0.048758    1.142556   -0.000000
      2          1           0        0.045180    0.159962   -0.000000
      3          1           0       -0.879568    1.464606    0.000000
      4          8           0        0.048758   -0.962358   -0.000000
      5          1           0        0.826125   -1.563361   -0.000000
      6          1           0       -0.771870   -1.502797    0.000000
 ---------------------------------------------------------------------

 SCF Done:  E(RHF) =  -152.047362284     A.U. after   11 cycles
 E2 =    -0.5355145639D+00 EUMP2 =    -0.15258287684777D+03
 CCSD(T)
 CCSD(T)= -0.15260847689D+03

 The electronic state is 1-A'.
 Alpha  occ. eigenvalues --  -20.61978 -20.44318  -1.43385  -1.24546  -0.78595
 Alpha  occ. eigenvalues --   -0.77896  -0.58435  -0.54778  -0.44557  -0.41043
 Alpha virt. eigenvalues --    0.10375   0.16451   0.21144   0.32962   0.47006
 Alpha virt. eigenvalues --    0.52020   0.63315   0.64413   0.70762   0.70789
 Alpha virt. eigenvalues --    0.79002   0.79661   0.81369   0.82235   0.87754

 Mulliken charges:
               1
     1  O   -0.669719
     2  H    0.291021
     3  H    0.202889
     4  O   -0.318980
     5  H    0.252075
     6  H    0.242714
 Sum of Mulliken charges =   0.00000

 Dipole moment (field-independent basis, Debye):
    X=             -1.4754    Y=             -5.0448    Z=              0.0000  Tot=              5.2561
 Quadrupole moment (field-independent basis, Debye-Ang):
   XX=             -9.1308   YY=            -10.1971   ZZ=            -14.5656
   XY=             -2.6862   XZ=             -0.0000   YZ=              0.0000

 Normal termination of Gaussian 16 at Fri Aug 26 15:47:04 2022.
