 Gaussian 16, Revision A.03,
 Gaussian 16:  ES64L-G16RevA.03 25-Dec-2016

 ------------------
 #p CCSD(T)/cc-pVTZ
 ------------------

 ------------
 H2O_H2O_2531
 ------------
 Symbolic Z-matrix:
 Charge =  0 Multiplicity = 1

                         Standard orientation:
 ---------------------------------------------------------------------
 Center     Atomic      Atomic             Coordinates (Angstroms)
 Number     Number       Type             X           Y           Z
 ---------------------------------------------------------------------
      1          8           0        0.076764    2.110556    0.000000
      2          1           0        0.076087    1.127955    0.000000
      3          1           0       -0.852509    2.429863    0.000000
      4          8           0        0.076764   -1.947359   -0.000000
      5          1           0        0.452163   -2.855423   -0.000000
      6          1           0       -0.903966   -2.007975   -0.000000
 ---------------------------------------------------------------------

 SCF Done:  E(RHF) =  -152.109795110     A.U. after   10 cycles
 E2 =    -0.5261792320D+00 EUMP2 =    -0.15263597434220D+03
 CCSD(T)
 CCSD(T)= -0.15266310332D+03

 The electronic state is 1-A'.
 Alpha  occ. eigenvalues --  -20.56919 -20.54487  -1.34195  -1.31806  -0.71616
 Alpha  occ. eigenvalues --   -0.69183  -0.57731  -0.55272  -0.51316  -0.48935
 Alpha virt. eigenvalues --    0.11982   0.16126   0.19485   0.23853   0.53465
 Alpha virt. eigenvalues --    0.55509   0.56228   0.58458   0.68778   0.70473
 Alpha virt. eigenvalues --    0.77407   0.79130   0.79942   0.80804   0.83178

 Mulliken charges:
               1
     1  O   -0.517723
     2  H    0.264920
     3  H    0.248065
     4  O   -0.508042
     5  H    0.259588
     6  H    0.253192
 Sum of Mulliken charges =   0.00000

 Dipole moment (field-independent basis, Debye):
    X=             -2.6067    Y=             -2.9819    Z=             -0.0000  Tot=              3.9607
 Quadrupole moment (field-independent basis, Debye-Ang):
   XX=             -9.9628   YY=             -8.0272   ZZ=            -14.7189
   XY=             -3.2592   XZ=             -0.0000   YZ=              0.0000

 CCSD(T)=-152.6631033\RMSD=6.899e-09\PG=CS [SG(H4O2)]\\@
 Normal termination of Gaussian 16 at Fri Aug 26 15:24:18 2022.
