 Gaussian 16, Revision A.03,
 Gaussian 16:  ES64L-G16RevA.03 25-Dec-2016

 ------------------
 #p CCSD(T)/cc-pVTZ
 ------------------

 ------------
 H2O_H2O_1168
 ------------
 Symbolic Z-matrix:
 Charge =  0 Multiplicity = 1

                         Standard orientation:
 ---------------------------------------------------------------------
 Center     Atomic      Atomic             Coordinates (Angstroms)
 Number     Number       Type             X           Y           Z
 ---------------------------------------------------------------------
      1          8           0        0.033896    1.569849    0.000000
      2          1           0        0.030506    0.587254    0.000000
      3          1           0       -0.894492    1.891721    0.000000
      4          8           0        0.033896   -1.392407   -0.000000
      5          1           0        0.940399   -1.771562   -0.000000
      6          1           0       -0.618753   -2.126950   -0.000000
 ---------------------------------------------------------------------

 SCF Done:  E(RHF) =  -152.114097647     A.U. after   10 cycles
 E2 =    -0.5279741753D+00 EUMP2 =    -0.15264207182208D+03
 CCSD(T)
 CCSD(T)= -0.15266898213D+03

 The electronic state is 1-A'.
 Alpha  occ. eigenvalues --  -20.58483 -20.52130  -1.35886  -1.29716  -0.73190
 Alpha  occ. eigenvalues --   -0.67907  -0.59617  -0.52978  -0.52862  -0.46852
 Alpha virt. eigenvalues --    0.11987   0.18226   0.18711   0.31080   0.49167
 Alpha virt. eigenvalues --    0.54655   0.55934   0.61462   0.68548   0.72212
 Alpha virt. eigenvalues --    0.73119   0.77224   0.82207   0.82598   0.84764

 Mulliken charges:
               1
     1  O   -0.560053
     2  H    0.289118
     3  H    0.245814
     4  O   -0.497108
     5  H    0.265974
     6  H    0.256255
 Sum of Mulliken charges =  -0.00000

 Dipole moment (field-independent basis, Debye):
    X=             -1.1288    Y=             -3.6378    Z=             -0.0000  Tot=              3.8089
 Quadrupole moment (field-independent basis, Debye-Ang):
   XX=             -9.1819   YY=             -8.6036   ZZ=            -14.7314
   XY=             -3.7078   XZ=             -0.0000   YZ=             -0.0000

 CCSD(T)=-152.6689821\RMSD=6.788e-09\PG=CS [SG(H4O2)]\\@
 Normal termination of Gaussian 16 at Fri Aug 26 22:52:23 2022.
