 Gaussian 16, Revision A.03,
 Gaussian 16:  ES64L-G16RevA.03 25-Dec-2016

 ------------------
 #p CCSD(T)/cc-pVTZ
 ------------------

 ------------
 H2O_H2O_1486
 ------------
 Symbolic Z-matrix:
 Charge =  0 Multiplicity = 1

                         Standard orientation:
 ---------------------------------------------------------------------
 Center     Atomic      Atomic             Coordinates (Angstroms)
 Number     Number       Type             X           Y           Z
 ---------------------------------------------------------------------
      1          8           0        0.059687    1.699445   -0.000000
      2          1           0        0.057931    0.716845   -0.000000
      3          1           0       -0.869236    2.019771   -0.000000
      4          8           0        0.059687   -1.522061    0.000000
      5          1           0        0.706240   -2.261977    0.000000
      6          1           0       -0.849920   -1.893708    0.000000
 ---------------------------------------------------------------------

 SCF Done:  E(RHF) =  -152.113396499     A.U. after   10 cycles
 E2 =    -0.5272263241D+00 EUMP2 =    -0.15264062282309D+03
 CCSD(T)
 CCSD(T)= -0.15266762419D+03

 The electronic state is 1-A'.
 Alpha  occ. eigenvalues --  -20.57975 -20.53019  -1.35267  -1.30457  -0.72629
 Alpha  occ. eigenvalues --   -0.68089  -0.59042  -0.53795  -0.52390  -0.47600
 Alpha virt. eigenvalues --    0.11969   0.17346   0.19161   0.28957   0.49590
 Alpha virt. eigenvalues --    0.54970   0.56458   0.59181   0.69469   0.72406
 Alpha virt. eigenvalues --    0.74257   0.76701   0.81475   0.82962   0.84645

 Mulliken charges:
               1
     1  O   -0.539055
     2  H    0.278238
     3  H    0.243473
     4  O   -0.502993
     5  H    0.263473
     6  H    0.256864
 Sum of Mulliken charges =  -0.00000

 Dipole moment (field-independent basis, Debye):
    X=             -1.9983    Y=             -3.4816    Z=              0.0000  Tot=              4.0143
 Quadrupole moment (field-independent basis, Debye-Ang):
   XX=             -9.3771   YY=             -8.3105   ZZ=            -14.7329
   XY=             -3.4962   XZ=              0.0000   YZ=              0.0000

 Normal termination of Gaussian 16 at Sat Aug 27 00:52:47 2022.
