 Gaussian 16, Revision A.03,
 Gaussian 16:  ES64L-G16RevA.03 25-Dec-2016

 ------------------
 #p CCSD(T)/cc-pVTZ
 ------------------

 -----------
 H2O_H2O_473
 -----------
 Symbolic Z-matrix:
 Charge =  0 Multiplicity = 1

                         Standard orientation:
 ---------------------------------------------------------------------
 Center     Atomic      Atomic             Coordinates (Angstroms)
 Number     Number       Type             X           Y           Z
 ---------------------------------------------------------------------
      1          8           0        0.016837   -1.282964    0.000000
      2          1           0        0.011446   -0.300378    0.000000
      3          1           0       -0.910894   -1.606725    0.000000
      4          8           0        0.016837    1.119660    0.000000
      5          1           0        0.996968    1.189304    0.000000
      6          1           0       -0.366908    2.024230    0.000000
 ---------------------------------------------------------------------

 SCF Done:  E(RHF) =  -152.095250371     A.U. after   11 cycles
 E2 =    -0.5322523346D+00 EUMP2 =    -0.15262750270591D+03
 CCSD(T)
 CCSD(T)= -0.15265382952D+03

 The electronic state is 1-A'.
 Alpha  occ. eigenvalues --  -20.60179 -20.49030  -1.39001  -1.27525  -0.77020
 Alpha  occ. eigenvalues --   -0.69556  -0.59164  -0.55411  -0.49477  -0.44493
 Alpha virt. eigenvalues --    0.11459   0.17942   0.19679   0.34073   0.47717
 Alpha virt. eigenvalues --    0.53139   0.58602   0.68282   0.70770   0.72084
 Alpha virt. eigenvalues --    0.74714   0.76679   0.78703   0.83848   0.84479

 Mulliken charges:
               1
     1  O   -0.621599
     2  H    0.295508
     3  H    0.239951
     4  O   -0.405637
     5  H    0.258912
     6  H    0.232865
 Sum of Mulliken charges =   0.00000

 Dipole moment (field-independent basis, Debye):
    X=             -0.5477    Y=              3.9919    Z=              0.0000  Tot=              4.0293
 Quadrupole moment (field-independent basis, Debye-Ang):
   XX=             -9.4834   YY=             -9.4311   ZZ=            -14.6544
   XY=              3.3112   XZ=              0.0000   YZ=              0.0000

 Normal termination of Gaussian 16 at Fri Aug 26 18:30:14 2022.
