 Gaussian 16, Revision A.03,
 Gaussian 16:  ES64L-G16RevA.03 25-Dec-2016

 ------------------
 #p CCSD(T)/cc-pVTZ
 ------------------

 ------------
 H2O_H2O_2818
 ------------
 Symbolic Z-matrix:
 Charge =  0 Multiplicity = 1

                         Standard orientation:
 ---------------------------------------------------------------------
 Center     Atomic      Atomic             Coordinates (Angstroms)
 Number     Number       Type             X           Y           Z
 ---------------------------------------------------------------------
      1          8           0        0.033802    2.228030    0.000000
      2          1           0        0.031455    1.245431    0.000000
      3          1           0       -0.894927    2.548916    0.000000
      4          8           0        0.033802   -2.050515    0.000000
      5          1           0        0.940707   -2.428708    0.000000
      6          1           0       -0.618068   -2.785752    0.000000
 ---------------------------------------------------------------------

 SCF Done:  E(RHF) =  -152.110310085     A.U. after   10 cycles
 E2 =    -0.5259690205D+00 EUMP2 =    -0.15263627910501D+03
 CCSD(T)
 CCSD(T)= -0.15266340780D+03

 The electronic state is 1-A'.
 Alpha  occ. eigenvalues --  -20.56739 -20.54352  -1.34013  -1.31677  -0.71411
 Alpha  occ. eigenvalues --   -0.69076  -0.57577  -0.55169  -0.51145  -0.48818
 Alpha virt. eigenvalues --    0.12431   0.16135   0.19378   0.23220   0.53182
 Alpha virt. eigenvalues --    0.55576   0.56396   0.58659   0.68881   0.69421
 Alpha virt. eigenvalues --    0.77714   0.79062   0.79827   0.80011   0.83369

 Mulliken charges:
               1
     1  O   -0.521426
     2  H    0.265000
     3  H    0.252545
     4  O   -0.513947
     5  H    0.260036
     6  H    0.257792
 Sum of Mulliken charges =  -0.00000

 Dipole moment (field-independent basis, Debye):
    X=             -1.1521    Y=             -3.2153    Z=              0.0000  Tot=              3.4155
 Quadrupole moment (field-independent basis, Debye-Ang):
   XX=             -9.1860   YY=             -7.3948   ZZ=            -14.7212
   XY=             -5.0756   XZ=              0.0000   YZ=              0.0000

 CCSD(T)=-152.6634078\RMSD=6.754e-09\PG=CS [SG(H4O2)]\\@
 Normal termination of Gaussian 16 at Fri Aug 26 17:32:17 2022.
