 Gaussian 16, Revision A.03,
 Gaussian 16:  ES64L-G16RevA.03 25-Dec-2016

 ------------------
 #p CCSD(T)/cc-pVTZ
 ------------------

 ------------
 H2O_H2O_4650
 ------------
 Symbolic Z-matrix:
 Charge =  0 Multiplicity = 1

                         Standard orientation:
 ---------------------------------------------------------------------
 Center     Atomic      Atomic             Coordinates (Angstroms)
 Number     Number       Type             X           Y           Z
 ---------------------------------------------------------------------
      1          8           0        0.092949   -2.941651    0.000000
      2          1           0        0.092949   -1.959049    0.000000
      3          1           0       -0.836544   -3.260318    0.000000
      4          8           0        0.092949    2.808864    0.000000
      5          1           0        0.092949    3.791465    0.000000
      6          1           0       -0.836544    2.490197    0.000000
 ---------------------------------------------------------------------

 SCF Done:  E(RHF) =  -152.107600954     A.U. after   10 cycles
 E2 =    -0.5258738165D+00 EUMP2 =    -0.15263347477058D+03
 CCSD(T)
 CCSD(T)= -0.15266069064D+03

 The electronic state is 1-A'.
 Alpha  occ. eigenvalues --  -20.56186 -20.55366  -1.33488  -1.32667  -0.70902
 Alpha  occ. eigenvalues --   -0.70064  -0.56946  -0.56118  -0.50598  -0.49779
 Alpha virt. eigenvalues --    0.12859   0.14662   0.18913   0.21569   0.53312
 Alpha virt. eigenvalues --    0.54750   0.56564   0.57617   0.66990   0.68357
 Alpha virt. eigenvalues --    0.78292   0.79096   0.79676   0.81124   0.81634

 Mulliken charges:
               1
     1  O   -0.509405
     2  H    0.257052
     3  H    0.252317
     4  O   -0.510335
     5  H    0.257926
     6  H    0.252445
 Sum of Mulliken charges =  -0.00000

 Dipole moment (field-independent basis, Debye):
    X=             -3.1889    Y=              2.3269    Z=              0.0000  Tot=              3.9477
 Quadrupole moment (field-independent basis, Debye-Ang):
   XX=            -10.8447   YY=             -9.2906   ZZ=            -14.7117
   XY=              2.1584   XZ=              0.0000   YZ=              0.0000

 Normal termination of Gaussian 16 at Sun Aug 28 04:37:43 2022.
