 Gaussian 16, Revision A.03,
 Gaussian 16:  ES64L-G16RevA.03 25-Dec-2016

 ------------------
 #p CCSD(T)/cc-pVTZ
 ------------------

 ------------
 H2O_H2O_1595
 ------------
 Symbolic Z-matrix:
 Charge =  0 Multiplicity = 1

                         Standard orientation:
 ---------------------------------------------------------------------
 Center     Atomic      Atomic             Coordinates (Angstroms)
 Number     Number       Type             X           Y           Z
 ---------------------------------------------------------------------
      1          8           0        0.026738    1.737054   -0.000000
      2          1           0        0.023329    0.754458   -0.000000
      3          1           0       -0.901644    2.058943    0.000000
      4          8           0        0.026738   -1.563879   -0.000000
      5          1           0        0.974970   -1.821485   -0.000000
      6          1           0       -0.524466   -2.377316    0.000000
 ---------------------------------------------------------------------

 SCF Done:  E(RHF) =  -152.113532050     A.U. after   10 cycles
 E2 =    -0.5269088496D+00 EUMP2 =    -0.15264044090002D+03
 CCSD(T)
 CCSD(T)= -0.15266745689D+03

 The electronic state is 1-A'.
 Alpha  occ. eigenvalues --  -20.57787 -20.53217  -1.35074  -1.30637  -0.72466
 Alpha  occ. eigenvalues --   -0.68192  -0.58881  -0.54013  -0.52203  -0.47794
 Alpha virt. eigenvalues --    0.12167   0.17542   0.19016   0.28429   0.50903
 Alpha virt. eigenvalues --    0.54282   0.55979   0.60003   0.68948   0.73004
 Alpha virt. eigenvalues --    0.74658   0.77239   0.81275   0.83080   0.84491

 Mulliken charges:
               1
     1  O   -0.540986
     2  H    0.274222
     3  H    0.250745
     4  O   -0.505821
     5  H    0.263948
     6  H    0.257891
 Sum of Mulliken charges =  -0.00000

 Dipole moment (field-independent basis, Debye):
    X=             -0.9030    Y=             -3.3644    Z=              0.0000  Tot=              3.4835
 Quadrupole moment (field-independent basis, Debye-Ang):
   XX=             -9.2890   YY=             -8.2862   ZZ=            -14.7333
   XY=             -4.2338   XZ=              0.0000   YZ=              0.0000

 Normal termination of Gaussian 16 at Sat Aug 27 23:40:39 2022.
