 Gaussian 16, Revision A.03,
 Gaussian 16:  ES64L-G16RevA.03 25-Dec-2016

 ------------------
 #p CCSD(T)/cc-pVTZ
 ------------------

 ------------
 H2O_H2O_4941
 ------------
 Symbolic Z-matrix:
 Charge =  0 Multiplicity = 1

                         Standard orientation:
 ---------------------------------------------------------------------
 Center     Atomic      Atomic             Coordinates (Angstroms)
 Number     Number       Type             X           Y           Z
 ---------------------------------------------------------------------
      1          8           0        0.041098    3.076970    0.000000
      2          1           0        0.039625    2.094370    0.000000
      3          1           0       -0.887917    3.397029    0.000000
      4          8           0        0.041098   -2.897006    0.000000
      5          1           0        0.891319   -3.389581    0.000000
      6          1           0       -0.700589   -3.541527    0.000000
 ---------------------------------------------------------------------

 SCF Done:  E(RHF) =  -152.108266767     A.U. after   10 cycles
 E2 =    -0.5258046945D+00 EUMP2 =    -0.15263407146124D+03
 CCSD(T)
 CCSD(T)= -0.15266127369D+03

 The electronic state is 1-A'.
 Alpha  occ. eigenvalues --  -20.56114 -20.55030  -1.33416  -1.32336  -0.70821
 Alpha  occ. eigenvalues --   -0.69739  -0.56903  -0.55804  -0.50535  -0.49458
 Alpha virt. eigenvalues --    0.13539   0.14774   0.19746   0.20895   0.53728
 Alpha virt. eigenvalues --    0.54801   0.56722   0.57766   0.67063   0.68509
 Alpha virt. eigenvalues --    0.78348   0.79402   0.79757   0.80510   0.82216

 Mulliken charges:
               1
     1  O   -0.513331
     2  H    0.259544
     3  H    0.253752
     4  O   -0.513927
     5  H    0.257540
     6  H    0.256423
 Sum of Mulliken charges =  -0.00000

 Dipole moment (field-independent basis, Debye):
    X=             -1.4110    Y=             -3.1486    Z=             -0.0000  Tot=              3.4503
 Quadrupole moment (field-independent basis, Debye-Ang):
   XX=             -9.1497   YY=             -5.9540   ZZ=            -14.7143
   XY=             -6.3223   XZ=             -0.0000   YZ=             -0.0000

 Normal termination of Gaussian 16 at Sun Aug 28 07:08:34 2022.
