 Gaussian 16, Revision A.03,
 Gaussian 16:  ES64L-G16RevA.03 25-Dec-2016

 ------------------
 #p CCSD(T)/cc-pVTZ
 ------------------

 ------------
 H2O_H2O_2002
 ------------
 Symbolic Z-matrix:
 Charge =  0 Multiplicity = 1

                         Standard orientation:
 ---------------------------------------------------------------------
 Center     Atomic      Atomic             Coordinates (Angstroms)
 Number     Number       Type             X           Y           Z
 ---------------------------------------------------------------------
      1          8           0        0.088235   -1.890886    0.000000
      2          1           0        0.088015   -0.908285    0.000000
      3          1           0       -0.841187   -2.209761    0.000000
      4          8           0        0.088235    1.746574    0.000000
      5          1           0        0.216272    2.720799    0.000000
      6          1           0       -0.874857    1.551742    0.000000
 ---------------------------------------------------------------------

 SCF Done:  E(RHF) =  -152.109592980     A.U. after   10 cycles
 E2 =    -0.5266730599D+00 EUMP2 =    -0.15263626604034D+03
 CCSD(T)
 CCSD(T)= -0.15266338225D+03

 The electronic state is 1-A'.
 Alpha  occ. eigenvalues --  -20.57315 -20.54573  -1.34606  -1.31894  -0.72109
 Alpha  occ. eigenvalues --   -0.69231  -0.58133  -0.55323  -0.51707  -0.49011
 Alpha virt. eigenvalues --    0.11598   0.16225   0.19969   0.25586   0.51917
 Alpha virt. eigenvalues --    0.55634   0.56885   0.57547   0.68429   0.73637
 Alpha virt. eigenvalues --    0.76113   0.78734   0.80073   0.82500   0.83067

 Mulliken charges:
               1
     1  O   -0.517399
     2  H    0.266471
     3  H    0.244517
     4  O   -0.499941
     5  H    0.258292
     6  H    0.248060
 Sum of Mulliken charges =   0.00000

 Dipole moment (field-independent basis, Debye):
    X=             -2.9755    Y=              2.6995    Z=              0.0000  Tot=              4.0176
 Quadrupole moment (field-independent basis, Debye-Ang):
   XX=            -10.5844   YY=             -8.7779   ZZ=            -14.7172
   XY=              2.5004   XZ=              0.0000   YZ=              0.0000

 27357\MP4DQ=-152.645139\MP4SDQ=-152.6482479\CCSD=-152.6476326\CCSD(T)=
 Normal termination of Gaussian 16 at Sun Aug 28 03:27:48 2022.
