 Gaussian 16, Revision A.03,
 Gaussian 16:  ES64L-G16RevA.03 25-Dec-2016

 ------------------
 #p CCSD(T)/cc-pVTZ
 ------------------

 ------------
 H2O_H2O_4072
 ------------
 Symbolic Z-matrix:
 Charge =  0 Multiplicity = 1

                         Standard orientation:
 ---------------------------------------------------------------------
 Center     Atomic      Atomic             Coordinates (Angstroms)
 Number     Number       Type             X           Y           Z
 ---------------------------------------------------------------------
      1          8           0       -0.019828    2.720980    0.000000
      2          1           0       -0.017476    1.738382    0.000000
      3          1           0        0.908900    3.041871    0.000000
      4          8           0       -0.019828   -2.553861    0.000000
      5          1           0       -0.993714   -2.684448    0.000000
      6          1           0        0.419541   -3.432759    0.000000
 ---------------------------------------------------------------------

 SCF Done:  E(RHF) =  -152.108705182     A.U. after   10 cycles
 E2 =    -0.5258068199D+00 EUMP2 =    -0.15263451200145D+03
 CCSD(T)
 CCSD(T)= -0.15266170037D+03

 The electronic state is 1-A'.
 Alpha  occ. eigenvalues --  -20.56266 -20.54938  -1.33567  -1.32248  -0.70972
 Alpha  occ. eigenvalues --   -0.69654  -0.57070  -0.55726  -0.50687  -0.49375
 Alpha virt. eigenvalues --    0.12985   0.15140   0.19409   0.21518   0.53327
 Alpha virt. eigenvalues --    0.55061   0.56623   0.57833   0.66688   0.68963
 Alpha virt. eigenvalues --    0.78204   0.79136   0.79477   0.80548   0.82756

 Mulliken charges:
               1
     1  O   -0.515426
     2  H    0.260489
     3  H    0.254594
     4  O   -0.515745
     5  H    0.257722
     6  H    0.258367
 Sum of Mulliken charges =  -0.00000

 Dipole moment (field-independent basis, Debye):
    X=              0.6808    Y=             -2.9453    Z=              0.0000  Tot=              3.0229
 Quadrupole moment (field-independent basis, Debye-Ang):
   XX=             -9.4470   YY=             -7.1849   ZZ=            -14.7157
   XY=              6.9227   XZ=              0.0000   YZ=              0.0000

 Normal termination of Gaussian 16 at Sat Aug 27 23:16:41 2022.
