 Gaussian 16, Revision A.03,
 Gaussian 16:  ES64L-G16RevA.03 25-Dec-2016

 ------------------
 #p CCSD(T)/cc-pVTZ
 ------------------

 ------------
 H2O_H2O_2478
 ------------
 Symbolic Z-matrix:
 Charge =  0 Multiplicity = 1

                         Standard orientation:
 ---------------------------------------------------------------------
 Center     Atomic      Atomic             Coordinates (Angstroms)
 Number     Number       Type             X           Y           Z
 ---------------------------------------------------------------------
      1          8           0        0.085604   -2.083220    0.000000
      2          1           0        0.085293   -1.100619    0.000000
      3          1           0       -0.843789   -2.402180    0.000000
      4          8           0        0.085604    1.933630    0.000000
      5          1           0        0.276995    2.897411    0.000000
      6          1           0       -0.888157    1.802114    0.000000
 ---------------------------------------------------------------------

 SCF Done:  E(RHF) =  -152.109220383     A.U. after   10 cycles
 E2 =    -0.5262586273D+00 EUMP2 =    -0.15263547900997D+03
 CCSD(T)
 CCSD(T)= -0.15266261974D+03

 The electronic state is 1-A'.
 Alpha  occ. eigenvalues --  -20.56945 -20.54716  -1.34228  -1.32028  -0.71671
 Alpha  occ. eigenvalues --   -0.69395  -0.57737  -0.55482  -0.51341  -0.49149
 Alpha virt. eigenvalues --    0.11718   0.16005   0.19654   0.24020   0.53565
 Alpha virt. eigenvalues --    0.55521   0.56458   0.58022   0.68615   0.70893
 Alpha virt. eigenvalues --    0.77318   0.79256   0.79767   0.80509   0.83161

 Mulliken charges:
               1
     1  O   -0.515255
     2  H    0.263884
     3  H    0.247362
     4  O   -0.505886
     5  H    0.259266
     6  H    0.250629
 Sum of Mulliken charges =  -0.00000

 Dipole moment (field-independent basis, Debye):
    X=             -2.9036    Y=              2.7341    Z=              0.0000  Tot=              3.9883
 Quadrupole moment (field-independent basis, Debye-Ang):
   XX=            -10.4180   YY=             -8.5219   ZZ=            -14.7166
   XY=              2.7267   XZ=              0.0000   YZ=              0.0000

 Normal termination of Gaussian 16 at Sun Aug 28 07:37:45 2022.
