 Gaussian 16, Revision A.03,
 Gaussian 16:  ES64L-G16RevA.03 25-Dec-2016

 ------------------
 #p CCSD(T)/cc-pVTZ
 ------------------

 ------------
 H2O_H2O_2459
 ------------
 Symbolic Z-matrix:
 Charge =  0 Multiplicity = 1

                         Standard orientation:
 ---------------------------------------------------------------------
 Center     Atomic      Atomic             Coordinates (Angstroms)
 Number     Number       Type             X           Y           Z
 ---------------------------------------------------------------------
      1          8           0        0.066772    2.086013    0.000000
      2          1           0        0.065660    1.103412    0.000000
      3          1           0       -0.862360    2.405731    0.000000
      4          8           0        0.066772   -1.912927   -0.000000
      5          1           0        0.611752   -2.730547   -0.000000
      6          1           0       -0.883400   -2.163288   -0.000000
 ---------------------------------------------------------------------

 SCF Done:  E(RHF) =  -152.110459350     A.U. after   10 cycles
 E2 =    -0.5261716754D+00 EUMP2 =    -0.15263663102561D+03
 CCSD(T)
 CCSD(T)= -0.15266374433D+03

 The electronic state is 1-A'.
 Alpha  occ. eigenvalues --  -20.56976 -20.54252  -1.34242  -1.31579  -0.71649
 Alpha  occ. eigenvalues --   -0.68964  -0.57813  -0.55053  -0.51371  -0.48715
 Alpha virt. eigenvalues --    0.12155   0.16328   0.19387   0.24152   0.52926
 Alpha virt. eigenvalues --    0.55740   0.56020   0.58786   0.68886   0.70788
 Alpha virt. eigenvalues --    0.77307   0.78828   0.80148   0.81212   0.83459

 Mulliken charges:
               1
     1  O   -0.520628
     2  H    0.266186
     3  H    0.248495
     4  O   -0.508943
     5  H    0.260066
     6  H    0.254825
 Sum of Mulliken charges =   0.00000

 Dipole moment (field-independent basis, Debye):
    X=             -2.2670    Y=             -3.1764    Z=             -0.0000  Tot=              3.9024
 Quadrupole moment (field-independent basis, Debye-Ang):
   XX=             -9.5701   YY=             -7.7501   ZZ=            -14.7214
   XY=             -3.6901   XZ=             -0.0000   YZ=             -0.0000

 Normal termination of Gaussian 16 at Sun Aug 28 07:29:33 2022.
