 Gaussian 16, Revision A.03,
 Gaussian 16:  ES64L-G16RevA.03 25-Dec-2016

 ------------------
 #p CCSD(T)/cc-pVTZ
 ------------------

 ------------
 H2O_H2O_4803
 ------------
 Symbolic Z-matrix:
 Charge =  0 Multiplicity = 1

                         Standard orientation:
 ---------------------------------------------------------------------
 Center     Atomic      Atomic             Coordinates (Angstroms)
 Number     Number       Type             X           Y           Z
 ---------------------------------------------------------------------
      1          8           0        0.085596   -3.010619    0.000000
      2          1           0        0.085384   -2.028017    0.000000
      3          1           0       -0.843828   -3.329486    0.000000
      4          8           0        0.085596    2.861011    0.000000
      5          1           0        0.277084    3.824774    0.000000
      6          1           0       -0.888177    2.729591    0.000000
 ---------------------------------------------------------------------

 SCF Done:  E(RHF) =  -152.107788883     A.U. after   10 cycles
 E2 =    -0.5258522785D+00 EUMP2 =    -0.15263364116133D+03
 CCSD(T)
 CCSD(T)= -0.15266085305D+03

 The electronic state is 1-A'.
 Alpha  occ. eigenvalues --  -20.56154 -20.55251  -1.33456  -1.32553  -0.70867
 Alpha  occ. eigenvalues --   -0.69951  -0.56921  -0.56009  -0.50568  -0.49668
 Alpha virt. eigenvalues --    0.13209   0.14644   0.19280   0.21139   0.53472
 Alpha virt. eigenvalues --    0.54754   0.56623   0.57638   0.67042   0.68389
 Alpha virt. eigenvalues --    0.78319   0.79202   0.79699   0.80887   0.81784

 Mulliken charges:
               1
     1  O   -0.510477
     2  H    0.257952
     3  H    0.252490
     4  O   -0.511362
     5  H    0.257923
     6  H    0.253472
 Sum of Mulliken charges =  -0.00000

 Dipole moment (field-independent basis, Debye):
    X=             -2.9375    Y=              2.6195    Z=              0.0000  Tot=              3.9358
 Quadrupole moment (field-independent basis, Debye-Ang):
   XX=            -10.3961   YY=             -8.0573   ZZ=            -14.7125
   XY=              2.9739   XZ=              0.0000   YZ=              0.0000

 Normal termination of Gaussian 16 at Sun Aug 28 05:59:34 2022.
