 Gaussian 16, Revision A.03,
 Gaussian 16:  ES64L-G16RevA.03 25-Dec-2016

 ------------------
 #p CCSD(T)/cc-pVTZ
 ------------------

 -----------
 H2O_H2O_933
 -----------
 Symbolic Z-matrix:
 Charge =  0 Multiplicity = 1

                         Standard orientation:
 ---------------------------------------------------------------------
 Center     Atomic      Atomic             Coordinates (Angstroms)
 Number     Number       Type             X           Y           Z
 ---------------------------------------------------------------------
      1          8           0        0.070245    1.476143    0.000000
      2          1           0        0.068857    0.493542    0.000000
      3          1           0       -0.858797    1.796122    0.000000
      4          8           0        0.070245   -1.305974   -0.000000
      5          1           0        0.560343   -2.157625   -0.000000
      6          1           0       -0.894319   -1.493385   -0.000000
 ---------------------------------------------------------------------

 SCF Done:  E(RHF) =  -152.110960904     A.U. after   10 cycles
 E2 =    -0.5292319729D+00 EUMP2 =    -0.15264019287658D+03
 CCSD(T)
 CCSD(T)= -0.15266701634D+03

 The electronic state is 1-A'.
 Alpha  occ. eigenvalues --  -20.58964 -20.51794  -1.36571  -1.29499  -0.74004
 Alpha  occ. eigenvalues --   -0.68259  -0.59676  -0.53559  -0.52485  -0.46579
 Alpha virt. eigenvalues --    0.11601   0.17183   0.19654   0.31916   0.48193
 Alpha virt. eigenvalues --    0.54410   0.59114   0.59687   0.69787   0.72509
 Alpha virt. eigenvalues --    0.73845   0.76922   0.81527   0.82704   0.84255

 Mulliken charges:
               1
     1  O   -0.562226
     2  H    0.297027
     3  H    0.233080
     4  O   -0.466476
     5  H    0.249528
     6  H    0.249066
 Sum of Mulliken charges =   0.00000

 Dipole moment (field-independent basis, Debye):
    X=             -2.3052    Y=             -3.6288    Z=             -0.0000  Tot=              4.2991
 Quadrupole moment (field-independent basis, Debye-Ang):
   XX=             -9.7082   YY=             -8.8558   ZZ=            -14.7116
   XY=             -3.0290   XZ=             -0.0000   YZ=             -0.0000

 Normal termination of Gaussian 16 at Fri Aug 26 21:25:23 2022.
