 Gaussian 16, Revision A.03,
 Gaussian 16:  ES64L-G16RevA.03 25-Dec-2016

 ------------------
 #p CCSD(T)/cc-pVTZ
 ------------------

 ------------
 H2O_H2O_2280
 ------------
 Symbolic Z-matrix:
 Charge =  0 Multiplicity = 1

                         Standard orientation:
 ---------------------------------------------------------------------
 Center     Atomic      Atomic             Coordinates (Angstroms)
 Number     Number       Type             X           Y           Z
 ---------------------------------------------------------------------
      1          8           0        0.079859    2.008583   -0.000000
      2          1           0        0.079282    1.025981   -0.000000
      3          1           0       -0.849447    2.327794   -0.000000
      4          8           0        0.079859   -1.849535    0.000000
      5          1           0        0.395159   -2.780175    0.000000
      6          1           0       -0.902737   -1.845979    0.000000
 ---------------------------------------------------------------------

 SCF Done:  E(RHF) =  -152.110037601     A.U. after   10 cycles
 E2 =    -0.5263450549D+00 EUMP2 =    -0.15263638265627D+03
 CCSD(T)
 CCSD(T)= -0.15266349837D+03

 The electronic state is 1-A'.
 Alpha  occ. eigenvalues --  -20.57095 -20.54421  -1.34370  -1.31744  -0.71806
 Alpha  occ. eigenvalues --   -0.69115  -0.57919  -0.55199  -0.51489  -0.48872
 Alpha virt. eigenvalues --    0.11858   0.16258   0.19580   0.24651   0.52837
 Alpha virt. eigenvalues --    0.55741   0.56263   0.58105   0.68729   0.71822
 Alpha virt. eigenvalues --    0.76958   0.79126   0.80061   0.81750   0.83424

 Mulliken charges:
               1
     1  O   -0.518503
     2  H    0.265661
     3  H    0.246704
     4  O   -0.505389
     5  H    0.259440
     6  H    0.252086
 Sum of Mulliken charges =  -0.00000

 Dipole moment (field-independent basis, Debye):
    X=             -2.7048    Y=             -2.9367    Z=              0.0000  Tot=              3.9925
 Quadrupole moment (field-independent basis, Debye-Ang):
   XX=            -10.1153   YY=             -8.2560   ZZ=            -14.7196
   XY=             -3.0442   XZ=              0.0000   YZ=             -0.0000

 Normal termination of Gaussian 16 at Sun Aug 28 05:57:40 2022.
