 Gaussian 16, Revision A.03,
 Gaussian 16:  ES64L-G16RevA.03 25-Dec-2016

 ------------------
 #p CCSD(T)/cc-pVTZ
 ------------------

 -----------
 H2O_H2O_419
 -----------
 Symbolic Z-matrix:
 Charge =  0 Multiplicity = 1

                         Standard orientation:
 ---------------------------------------------------------------------
 Center     Atomic      Atomic             Coordinates (Angstroms)
 Number     Number       Type             X           Y           Z
 ---------------------------------------------------------------------
      1          8           0        0.030381    1.269628   -0.000000
      2          1           0        0.025874    0.287037   -0.000000
      3          1           0       -0.897640    1.592555   -0.000000
      4          8           0        0.030381   -1.094154    0.000000
      5          1           0        0.959378   -1.414264    0.000000
      6          1           0       -0.573710   -1.869124    0.000000
 ---------------------------------------------------------------------

 SCF Done:  E(RHF) =  -152.093590663     A.U. after   11 cycles
 E2 =    -0.5324353834D+00 EUMP2 =    -0.15262602604634D+03
 CCSD(T)
 CCSD(T)= -0.15265225307D+03

 The electronic state is 1-A'.
 Alpha  occ. eigenvalues --  -20.60490 -20.48055  -1.39402  -1.26798  -0.76398
 Alpha  occ. eigenvalues --   -0.71565  -0.58189  -0.55811  -0.48521  -0.43697
 Alpha virt. eigenvalues --    0.11218   0.17676   0.19919   0.33871   0.47192
 Alpha virt. eigenvalues --    0.53331   0.60071   0.67774   0.69468   0.72147
 Alpha virt. eigenvalues --    0.75366   0.78142   0.79809   0.83578   0.83810

 Mulliken charges:
               1
     1  O   -0.629216
     2  H    0.304775
     3  H    0.230034
     4  O   -0.408922
     5  H    0.261374
     6  H    0.241955
 Sum of Mulliken charges =   0.00000

 Dipole moment (field-independent basis, Debye):
    X=             -0.9677    Y=             -4.3413    Z=              0.0000  Tot=              4.4479
 Quadrupole moment (field-independent basis, Debye-Ang):
   XX=             -9.1817   YY=             -9.5539   ZZ=            -14.6539
   XY=             -3.0595   XZ=              0.0000   YZ=             -0.0000

 Normal termination of Gaussian 16 at Fri Aug 26 18:08:10 2022.
