 Gaussian 16, Revision A.03,
 Gaussian 16:  ES64L-G16RevA.03 25-Dec-2016

 ------------------
 #p CCSD(T)/cc-pVTZ
 ------------------

 ------------
 H2O_H2O_4875
 ------------
 Symbolic Z-matrix:
 Charge =  0 Multiplicity = 1

                         Standard orientation:
 ---------------------------------------------------------------------
 Center     Atomic      Atomic             Coordinates (Angstroms)
 Number     Number       Type             X           Y           Z
 ---------------------------------------------------------------------
      1          8           0        0.092949   -3.031399    0.000000
      2          1           0        0.092949   -2.048797    0.000000
      3          1           0       -0.836544   -3.350065    0.000000
      4          8           0        0.092949    2.898611    0.000000
      5          1           0        0.092950    3.881214    0.000000
      6          1           0       -0.836544    2.579945    0.000000
 ---------------------------------------------------------------------

 SCF Done:  E(RHF) =  -152.107583319     A.U. after   10 cycles
 E2 =    -0.5258684966D+00 EUMP2 =    -0.15263345181559D+03
 CCSD(T)
 CCSD(T)= -0.15266066858D+03

 The electronic state is 1-A'.
 Alpha  occ. eigenvalues --  -20.56151 -20.55384  -1.33452  -1.32685  -0.70866
 Alpha  occ. eigenvalues --   -0.70083  -0.56909  -0.56135  -0.50563  -0.49797
 Alpha virt. eigenvalues --    0.13055   0.14565   0.19005   0.21341   0.53421
 Alpha virt. eigenvalues --    0.54677   0.56595   0.57553   0.67086   0.68258
 Alpha virt. eigenvalues --    0.78326   0.79078   0.79664   0.80955   0.81671

 Mulliken charges:
               1
     1  O   -0.509402
     2  H    0.256857
     3  H    0.252526
     4  O   -0.510219
     5  H    0.257615
     6  H    0.252623
 Sum of Mulliken charges =  -0.00000

 Dipole moment (field-independent basis, Debye):
    X=             -3.1907    Y=              2.3235    Z=              0.0000  Tot=              3.9470
 Quadrupole moment (field-independent basis, Debye-Ang):
   XX=            -10.8440   YY=             -9.2960   ZZ=            -14.7117
   XY=              2.1596   XZ=              0.0000   YZ=              0.0000

 Normal termination of Gaussian 16 at Sun Aug 28 06:36:00 2022.
