 Gaussian 16, Revision A.03,
 Gaussian 16:  ES64L-G16RevA.03 25-Dec-2016

 ------------------
 #p CCSD(T)/cc-pVTZ
 ------------------

 ----------
 H2O_H2O_58
 ----------
 Symbolic Z-matrix:
 Charge =  0 Multiplicity = 1

                         Standard orientation:
 ---------------------------------------------------------------------
 Center     Atomic      Atomic             Coordinates (Angstroms)
 Number     Number       Type             X           Y           Z
 ---------------------------------------------------------------------
      1          8           0        0.070285    1.127092   -0.000000
      2          1           0        0.068432    0.144492   -0.000000
      3          1           0       -0.858605    1.447511   -0.000000
      4          8           0        0.070285   -0.956990    0.000000
      5          1           0        0.559981   -1.808873    0.000000
      6          1           0       -0.894368   -1.143945    0.000000
 ---------------------------------------------------------------------

 SCF Done:  E(RHF) =  -152.037149212     A.U. after   11 cycles
 E2 =    -0.5370072363D+00 EUMP2 =    -0.15257415644784D+03
 CCSD(T)
 CCSD(T)= -0.15259968707D+03

 The electronic state is 1-A'.
 Alpha  occ. eigenvalues --  -20.62022 -20.44907  -1.44009  -1.24983  -0.81574
 Alpha  occ. eigenvalues --   -0.75245  -0.58606  -0.54815  -0.45226  -0.41532
 Alpha virt. eigenvalues --    0.10343   0.15974   0.21490   0.32125   0.48931
 Alpha virt. eigenvalues --    0.51612   0.60543   0.64286   0.70613   0.71668
 Alpha virt. eigenvalues --    0.77511   0.79325   0.81682   0.84240   0.88287

 Mulliken charges:
               1
     1  O   -0.650719
     2  H    0.277477
     3  H    0.192927
     4  O   -0.295668
     5  H    0.233823
     6  H    0.242159
 Sum of Mulliken charges =   0.00000

 Dipole moment (field-independent basis, Debye):
    X=             -2.1288    Y=             -4.8296    Z=              0.0000  Tot=              5.2779
 Quadrupole moment (field-independent basis, Debye-Ang):
   XX=             -9.6415   YY=            -10.1244   ZZ=            -14.5376
   XY=             -2.5756   XZ=              0.0000   YZ=             -0.0000

 Normal termination of Gaussian 16 at Fri Aug 26 15:34:50 2022.
