 Gaussian 16, Revision A.03,
 Gaussian 16:  ES64L-G16RevA.03 25-Dec-2016

 ------------------
 #p CCSD(T)/cc-pVTZ
 ------------------

 -----------
 H2O_H2O_483
 -----------
 Symbolic Z-matrix:
 Charge =  0 Multiplicity = 1

                         Standard orientation:
 ---------------------------------------------------------------------
 Center     Atomic      Atomic             Coordinates (Angstroms)
 Number     Number       Type             X           Y           Z
 ---------------------------------------------------------------------
      1          8           0        0.070263    1.296634   -0.000000
      2          1           0        0.068669    0.314034   -0.000000
      3          1           0       -0.858712    1.616807    0.000000
      4          8           0        0.070263   -1.126495   -0.000000
      5          1           0        0.560183   -1.978248   -0.000000
      6          1           0       -0.894341   -1.313703    0.000000
 ---------------------------------------------------------------------

 SCF Done:  E(RHF) =  -152.096738032     A.U. after   11 cycles
 E2 =    -0.5324288857D+00 EUMP2 =    -0.15262916691732D+03
 CCSD(T)
 CCSD(T)= -0.15265553233D+03

 The electronic state is 1-A'.
 Alpha  occ. eigenvalues --  -20.60257 -20.49285  -1.38888  -1.27697  -0.76322
 Alpha  occ. eigenvalues --   -0.70501  -0.58518  -0.55390  -0.49900  -0.44628
 Alpha virt. eigenvalues --    0.11139   0.16877   0.20303   0.33101   0.48301
 Alpha virt. eigenvalues --    0.53233   0.60012   0.63331   0.71992   0.72126
 Alpha virt. eigenvalues --    0.74128   0.78691   0.79501   0.83947   0.84034

 Mulliken charges:
               1
     1  O   -0.599484
     2  H    0.303402
     3  H    0.218691
     4  O   -0.406994
     5  H    0.241889
     6  H    0.242495
 Sum of Mulliken charges =  -0.00000

 Dipole moment (field-independent basis, Debye):
    X=             -2.2365    Y=             -4.0928    Z=              0.0000  Tot=              4.6640
 Quadrupole moment (field-independent basis, Debye-Ang):
   XX=             -9.6904   YY=             -9.3923   ZZ=            -14.6568
   XY=             -2.8279   XZ=             -0.0000   YZ=              0.0000

 Normal termination of Gaussian 16 at Fri Aug 26 18:34:15 2022.
