 Gaussian 16, Revision A.03,
 Gaussian 16:  ES64L-G16RevA.03 25-Dec-2016

 ------------------
 #p CCSD(T)/cc-pVTZ
 ------------------

 ------------
 H2O_H2O_1648
 ------------
 Symbolic Z-matrix:
 Charge =  0 Multiplicity = 1

                         Standard orientation:
 ---------------------------------------------------------------------
 Center     Atomic      Atomic             Coordinates (Angstroms)
 Number     Number       Type             X           Y           Z
 ---------------------------------------------------------------------
      1          8           0       -0.016711    1.751666    0.000000
      2          1           0       -0.012833    0.769072    0.000000
      3          1           0        0.911517    2.073998    0.000000
      4          8           0       -0.016711   -1.588310    0.000000
      5          1           0       -0.996948   -1.656444    0.000000
      6          1           0        0.365640   -2.493470    0.000000
 ---------------------------------------------------------------------

 SCF Done:  E(RHF) =  -152.112888687     A.U. after   10 cycles
 E2 =    -0.5268251314D+00 EUMP2 =    -0.15263971381802D+03
 CCSD(T)
 CCSD(T)= -0.15266674957D+03

 The electronic state is 1-A'.
 Alpha  occ. eigenvalues --  -20.57680 -20.53534  -1.34980  -1.30934  -0.72435
 Alpha  occ. eigenvalues --   -0.68418  -0.58746  -0.54327  -0.52101  -0.48090
 Alpha virt. eigenvalues --    0.12175   0.17342   0.19175   0.28081   0.51388
 Alpha virt. eigenvalues --    0.54352   0.55824   0.60075   0.68881   0.73823
 Alpha virt. eigenvalues --    0.74806   0.77581   0.81026   0.83014   0.84258

 Mulliken charges:
               1
     1  O   -0.539103
     2  H    0.271636
     3  H    0.253406
     4  O   -0.504464
     5  H    0.262717
     6  H    0.255808
 Sum of Mulliken charges =   0.00000

 Dipole moment (field-independent basis, Debye):
    X=              0.5719    Y=             -3.1545    Z=              0.0000  Tot=              3.2059
 Quadrupole moment (field-independent basis, Debye-Ang):
   XX=             -9.5443   YY=             -8.4175   ZZ=            -14.7300
   XY=              4.5891   XZ=              0.0000   YZ=              0.0000

 Normal termination of Gaussian 16 at Sun Aug 28 00:19:32 2022.
