 Gaussian 16, Revision A.03,
 Gaussian 16:  ES64L-G16RevA.03 25-Dec-2016

 ------------------
 #p CCSD(T)/cc-pVTZ
 ------------------

 ----------
 H2O_H2O_12
 ----------
 Symbolic Z-matrix:
 Charge =  0 Multiplicity = 1

                         Standard orientation:
 ---------------------------------------------------------------------
 Center     Atomic      Atomic             Coordinates (Angstroms)
 Number     Number       Type             X           Y           Z
 ---------------------------------------------------------------------
      1          8           0        0.056143    1.111833    0.000000
      2          1           0        0.053075    0.129237    0.000000
      3          1           0       -0.872351    1.433400    0.000000
      4          8           0        0.056143   -0.933117   -0.000000
      5          1           0        0.748775   -1.630088   -0.000000
      6          1           0       -0.827784   -1.362279   -0.000000
 ---------------------------------------------------------------------

 SCF Done:  E(RHF) =  -152.026662697     A.U. after   11 cycles
 E2 =    -0.5365205764D+00 EUMP2 =    -0.15256318327332D+03
 CCSD(T)
 CCSD(T)= -0.15258862970D+03

 The electronic state is 1-A'.
 Alpha  occ. eigenvalues --  -20.62327 -20.43486  -1.44793  -1.24127  -0.80904
 Alpha  occ. eigenvalues --   -0.77966  -0.59193  -0.53933  -0.43620  -0.40503
 Alpha virt. eigenvalues --    0.10173   0.16055   0.21492   0.32434   0.47576
 Alpha virt. eigenvalues --    0.51601   0.62563   0.63879   0.70128   0.71012
 Alpha virt. eigenvalues --    0.78901   0.79139   0.81918   0.82806   0.89274

 Mulliken charges:
               1
     1  O   -0.677044
     2  H    0.276194
     3  H    0.194087
     4  O   -0.280144
     5  H    0.243537
     6  H    0.243370
 Sum of Mulliken charges =  -0.00000

 Dipole moment (field-independent basis, Debye):
    X=             -1.6789    Y=             -5.1627    Z=             -0.0000  Tot=              5.4288
 Quadrupole moment (field-independent basis, Debye-Ang):
   XX=             -9.2357   YY=            -10.3334   ZZ=            -14.5325
   XY=             -2.6127   XZ=             -0.0000   YZ=              0.0000

 Normal termination of Gaussian 16 at Fri Aug 26 15:16:02 2022.
