 Gaussian 16, Revision A.03,
 Gaussian 16:  ES64L-G16RevA.03 25-Dec-2016

 ------------------
 #p CCSD(T)/cc-pVTZ
 ------------------

 ------------
 H2O_H2O_4039
 ------------
 Symbolic Z-matrix:
 Charge =  0 Multiplicity = 1

                         Standard orientation:
 ---------------------------------------------------------------------
 Center     Atomic      Atomic             Coordinates (Angstroms)
 Number     Number       Type             X           Y           Z
 ---------------------------------------------------------------------
      1          8           0        0.048561    2.718224    0.000000
      2          1           0        0.047128    1.735624    0.000000
      3          1           0       -0.880466    3.038246    0.000000
      4          8           0        0.048561   -2.537813    0.000000
      5          1           0        0.827239   -3.137119    0.000000
      6          1           0       -0.770885   -3.080042    0.000000
 ---------------------------------------------------------------------

 SCF Done:  E(RHF) =  -152.108700107     A.U. after   10 cycles
 E2 =    -0.5258203103D+00 EUMP2 =    -0.15263452041770D+03
 CCSD(T)
 CCSD(T)= -0.15266170714D+03

 The electronic state is 1-A'.
 Alpha  occ. eigenvalues --  -20.56283 -20.54826  -1.33581  -1.32136  -0.70984
 Alpha  occ. eigenvalues --   -0.69535  -0.57085  -0.55611  -0.50702  -0.49261
 Alpha virt. eigenvalues --    0.13109   0.15173   0.19646   0.21287   0.53567
 Alpha virt. eigenvalues --    0.54903   0.56591   0.57830   0.66678   0.69075
 Alpha virt. eigenvalues --    0.78191   0.79539   0.79588   0.79634   0.82872

 Mulliken charges:
               1
     1  O   -0.514913
     2  H    0.261567
     3  H    0.252920
     4  O   -0.515405
     5  H    0.259011
     6  H    0.256820
 Sum of Mulliken charges =   0.00000

 Dipole moment (field-independent basis, Debye):
    X=             -1.6631    Y=             -3.1830    Z=             -0.0000  Tot=              3.5913
 Quadrupole moment (field-independent basis, Debye-Ang):
   XX=             -9.1821   YY=             -6.5162   ZZ=            -14.7158
   XY=             -5.2851   XZ=             -0.0000   YZ=             -0.0000

 Normal termination of Gaussian 16 at Sat Aug 27 01:09:32 2022.
