 Gaussian 16, Revision A.03,
 Gaussian 16:  ES64L-G16RevA.03 25-Dec-2016

 ------------------
 #p CCSD(T)/cc-pVTZ
 ------------------

 ------------
 H2O_H2O_4344
 ------------
 Symbolic Z-matrix:
 Charge =  0 Multiplicity = 1

                         Standard orientation:
 ---------------------------------------------------------------------
 Center     Atomic      Atomic             Coordinates (Angstroms)
 Number     Number       Type             X           Y           Z
 ---------------------------------------------------------------------
      1          8           0        0.030152    2.835294   -0.000000
      2          1           0        0.028213    1.852694   -0.000000
      3          1           0       -0.898711    3.155793   -0.000000
      4          8           0        0.030152   -2.659661    0.000000
      5          1           0        0.959982   -2.977343    0.000000
      6          1           0       -0.571913   -3.436207    0.000000
 ---------------------------------------------------------------------

 SCF Done:  E(RHF) =  -152.108568571     A.U. after   10 cycles
 E2 =    -0.5258014726D+00 EUMP2 =    -0.15263437004325D+03
 CCSD(T)
 CCSD(T)= -0.15266156328D+03

 The electronic state is 1-A'.
 Alpha  occ. eigenvalues --  -20.56210 -20.54934  -1.33511  -1.32243  -0.70915
 Alpha  occ. eigenvalues --   -0.69646  -0.57011  -0.55718  -0.50631  -0.49368
 Alpha virt. eigenvalues --    0.13257   0.15011   0.19620   0.21178   0.53550
 Alpha virt. eigenvalues --    0.54911   0.56653   0.57809   0.66759   0.68837
 Alpha virt. eigenvalues --    0.78256   0.79452   0.79486   0.80264   0.82726

 Mulliken charges:
               1
     1  O   -0.514759
     2  H    0.260537
     3  H    0.254029
     4  O   -0.515334
     5  H    0.257962
     6  H    0.257563
 Sum of Mulliken charges =  -0.00000

 Dipole moment (field-independent basis, Debye):
    X=             -1.0343    Y=             -3.0871    Z=              0.0000  Tot=              3.2557
 Quadrupole moment (field-independent basis, Debye-Ang):
   XX=             -9.2302   YY=             -6.5770   ZZ=            -14.7153
   XY=             -6.5355   XZ=              0.0000   YZ=             -0.0000

 Normal termination of Gaussian 16 at Sun Aug 28 01:59:54 2022.
