 Gaussian 16, Revision A.03,
 Gaussian 16:  ES64L-G16RevA.03 25-Dec-2016

 ------------------
 #p CCSD(T)/cc-pVTZ
 ------------------

 ------------
 H2O_H2O_4878
 ------------
 Symbolic Z-matrix:
 Charge =  0 Multiplicity = 1

                         Standard orientation:
 ---------------------------------------------------------------------
 Center     Atomic      Atomic             Coordinates (Angstroms)
 Number     Number       Type             X           Y           Z
 ---------------------------------------------------------------------
      1          8           0        0.085596   -3.040535    0.000000
      2          1           0        0.085386   -2.057934    0.000000
      3          1           0       -0.843829   -3.359400    0.000000
      4          8           0        0.085596    2.890927    0.000000
      5          1           0        0.277086    3.854689    0.000000
      6          1           0       -0.888178    2.759509    0.000000
 ---------------------------------------------------------------------

 SCF Done:  E(RHF) =  -152.107776336     A.U. after   10 cycles
 E2 =    -0.5258512847D+00 EUMP2 =    -0.15263362762026D+03
 CCSD(T)
 CCSD(T)= -0.15266083996D+03

 The electronic state is 1-A'.
 Alpha  occ. eigenvalues --  -20.56143 -20.55259  -1.33445  -1.32562  -0.70856
 Alpha  occ. eigenvalues --   -0.69960  -0.56909  -0.56017  -0.50557  -0.49676
 Alpha virt. eigenvalues --    0.13257   0.14615   0.19307   0.21087   0.53505
 Alpha virt. eigenvalues --    0.54731   0.56634   0.57620   0.67076   0.68355
 Alpha virt. eigenvalues --    0.78330   0.79194   0.79718   0.80853   0.81762

 Mulliken charges:
               1
     1  O   -0.510440
     2  H    0.257858
     3  H    0.252556
     4  O   -0.511289
     5  H    0.257818
     6  H    0.253498
 Sum of Mulliken charges =  -0.00000

 Dipole moment (field-independent basis, Debye):
    X=             -2.9380    Y=              2.6182    Z=              0.0000  Tot=              3.9354
 Quadrupole moment (field-independent basis, Debye-Ang):
   XX=            -10.3959   YY=             -8.0410   ZZ=            -14.7125
   XY=              2.9819   XZ=              0.0000   YZ=              0.0000

 Normal termination of Gaussian 16 at Sun Aug 28 06:37:08 2022.
