 Gaussian 16, Revision A.03,
 Gaussian 16:  ES64L-G16RevA.03 25-Dec-2016

 ------------------
 #p CCSD(T)/cc-pVTZ
 ------------------

 ------------
 H2O_H2O_2249
 ------------
 Symbolic Z-matrix:
 Charge =  0 Multiplicity = 1

                         Standard orientation:
 ---------------------------------------------------------------------
 Center     Atomic      Atomic             Coordinates (Angstroms)
 Number     Number       Type             X           Y           Z
 ---------------------------------------------------------------------
      1          8           0       -0.013564    1.988759    0.000000
      2          1           0       -0.010034    1.006164    0.000000
      3          1           0        0.914778    2.310762    0.000000
      4          8           0       -0.013564   -1.829512    0.000000
      5          1           0       -0.996160   -1.833042    0.000000
      6          1           0        0.308440   -2.757855    0.000000
 ---------------------------------------------------------------------

 SCF Done:  E(RHF) =  -152.111169792     A.U. after   10 cycles
 E2 =    -0.5262129396D+00 EUMP2 =    -0.15263738273214D+03
 CCSD(T)
 CCSD(T)= -0.15266448200D+03

 The electronic state is 1-A'.
 Alpha  occ. eigenvalues --  -20.57077 -20.54262  -1.34355  -1.31600  -0.71781
 Alpha  occ. eigenvalues --   -0.69013  -0.57968  -0.55079  -0.51484  -0.48748
 Alpha virt. eigenvalues --    0.12164   0.16601   0.19267   0.25328   0.53685
 Alpha virt. eigenvalues --    0.54896   0.56031   0.58745   0.68624   0.72141
 Alpha virt. eigenvalues --    0.76875   0.79216   0.80180   0.82043   0.83568

 Mulliken charges:
               1
     1  O   -0.526995
     2  H    0.265374
     3  H    0.254719
     4  O   -0.510941
     5  H    0.259565
     6  H    0.258277
 Sum of Mulliken charges =  -0.00000

 Dipole moment (field-independent basis, Debye):
    X=              0.4685    Y=             -2.9459    Z=              0.0000  Tot=              2.9830
 Quadrupole moment (field-independent basis, Debye-Ang):
   XX=             -9.6497   YY=             -8.2510   ZZ=            -14.7237
   XY=              5.3656   XZ=              0.0000   YZ=              0.0000

 Normal termination of Gaussian 16 at Sun Aug 28 05:44:33 2022.
