 Gaussian 16, Revision A.03,
 Gaussian 16:  ES64L-G16RevA.03 25-Dec-2016

 ------------------
 #p CCSD(T)/cc-pVTZ
 ------------------

 ------------
 H2O_H2O_2970
 ------------
 Symbolic Z-matrix:
 Charge =  0 Multiplicity = 1

                         Standard orientation:
 ---------------------------------------------------------------------
 Center     Atomic      Atomic             Coordinates (Angstroms)
 Number     Number       Type             X           Y           Z
 ---------------------------------------------------------------------
      1          8           0        0.026663    2.285531   -0.000000
      2          1           0        0.024104    1.302932   -0.000000
      3          1           0       -0.901997    2.606616   -0.000000
      4          8           0        0.026663   -2.112309    0.000000
      5          1           0        0.975119   -2.369096    0.000000
      6          1           0       -0.523837   -2.926223    0.000000
 ---------------------------------------------------------------------

 SCF Done:  E(RHF) =  -152.109996030     A.U. after   10 cycles
 E2 =    -0.5259282475D+00 EUMP2 =    -0.15263592427762D+03
 CCSD(T)
 CCSD(T)= -0.15266306401D+03

 The electronic state is 1-A'.
 Alpha  occ. eigenvalues --  -20.56652 -20.54487  -1.33933  -1.31808  -0.71334
 Alpha  occ. eigenvalues --   -0.69211  -0.57482  -0.55300  -0.51063  -0.48947
 Alpha virt. eigenvalues --    0.12429   0.15977   0.19364   0.22919   0.53413
 Alpha virt. eigenvalues --    0.55538   0.56431   0.58425   0.68323   0.69354
 Alpha virt. eigenvalues --    0.77822   0.78947   0.79884   0.80006   0.83229

 Mulliken charges:
               1
     1  O   -0.520435
     2  H    0.263982
     3  H    0.253476
     4  O   -0.514852
     5  H    0.259517
     6  H    0.258312
 Sum of Mulliken charges =  -0.00000

 Dipole moment (field-independent basis, Debye):
    X=             -0.9107    Y=             -3.1211    Z=              0.0000  Tot=              3.2512
 Quadrupole moment (field-independent basis, Debye-Ang):
   XX=             -9.2883   YY=             -7.4559   ZZ=            -14.7202
   XY=             -5.4980   XZ=              0.0000   YZ=              0.0000

 Normal termination of Gaussian 16 at Fri Aug 26 18:52:03 2022.
