 Gaussian 16, Revision A.03,
 Gaussian 16:  ES64L-G16RevA.03 25-Dec-2016

 ------------------
 #p CCSD(T)/cc-pVTZ
 ------------------

 ------------
 H2O_H2O_2416
 ------------
 Symbolic Z-matrix:
 Charge =  0 Multiplicity = 1

                         Standard orientation:
 ---------------------------------------------------------------------
 Center     Atomic      Atomic             Coordinates (Angstroms)
 Number     Number       Type             X           Y           Z
 ---------------------------------------------------------------------
      1          8           0        0.041166    2.069775   -0.000000
      2          1           0        0.038945    1.087176   -0.000000
      3          1           0       -0.887604    2.390542   -0.000000
      4          8           0        0.041166   -1.889874    0.000000
      5          1           0        0.891011   -2.383097    0.000000
      6          1           0       -0.701011   -2.533829    0.000000
 ---------------------------------------------------------------------

 SCF Done:  E(RHF) =  -152.111206346     A.U. after   10 cycles
 E2 =    -0.5261245995D+00 EUMP2 =    -0.15263733094600D+03
 CCSD(T)
 CCSD(T)= -0.15266443003D+03

 The electronic state is 1-A'.
 Alpha  occ. eigenvalues --  -20.57003 -20.54052  -1.34263  -1.31389  -0.71655
 Alpha  occ. eigenvalues --   -0.68790  -0.57875  -0.54875  -0.51400  -0.48536
 Alpha virt. eigenvalues --    0.12336   0.16551   0.19289   0.24479   0.52585
 Alpha virt. eigenvalues --    0.55481   0.56402   0.58941   0.69049   0.71108
 Alpha virt. eigenvalues --    0.77240   0.78531   0.80313   0.81494   0.83670

 Mulliken charges:
               1
     1  O   -0.524770
     2  H    0.266993
     3  H    0.250904
     4  O   -0.510980
     5  H    0.260726
     6  H    0.257128
 Sum of Mulliken charges =  -0.00000

 Dipole moment (field-independent basis, Debye):
    X=             -1.3982    Y=             -3.3113    Z=              0.0000  Tot=              3.5944
 Quadrupole moment (field-independent basis, Debye-Ang):
   XX=             -9.1500   YY=             -7.5833   ZZ=            -14.7242
   XY=             -4.5157   XZ=              0.0000   YZ=             -0.0000

 Normal termination of Gaussian 16 at Sun Aug 28 07:09:37 2022.
