 Gaussian 16, Revision A.03,
 Gaussian 16:  ES64L-G16RevA.03 25-Dec-2016

 ------------------
 #p CCSD(T)/cc-pVTZ
 ------------------

 -----------
 H2O_H2O_402
 -----------
 Symbolic Z-matrix:
 Charge =  0 Multiplicity = 1

                         Standard orientation:
 ---------------------------------------------------------------------
 Center     Atomic      Atomic             Coordinates (Angstroms)
 Number     Number       Type             X           Y           Z
 ---------------------------------------------------------------------
      1          8           0        0.088244   -1.252672    0.000000
      2          1           0        0.087904   -0.270071    0.000000
      3          1           0       -0.841139   -1.571659    0.000000
      4          8           0        0.088244    1.108382    0.000000
      5          1           0        0.216162    2.082621    0.000000
      6          1           0       -0.874825    0.913432    0.000000
 ---------------------------------------------------------------------

 SCF Done:  E(RHF) =  -152.083126737     A.U. after   11 cycles
 E2 =    -0.5343493491D+00 EUMP2 =    -0.15261747608606D+03
 CCSD(T)
 CCSD(T)= -0.15264378995D+03

 The electronic state is 1-A'.
 Alpha  occ. eigenvalues --  -20.60381 -20.50144  -1.39747  -1.28506  -0.78856
 Alpha  occ. eigenvalues --   -0.68874  -0.58871  -0.55712  -0.50875  -0.45431
 Alpha virt. eigenvalues --    0.11083   0.16325   0.21064   0.32441   0.48880
 Alpha virt. eigenvalues --    0.51812   0.59265   0.65470   0.71526   0.72340
 Alpha virt. eigenvalues --    0.74434   0.77075   0.78998   0.82979   0.84527

 Mulliken charges:
               1
     1  O   -0.577737
     2  H    0.283055
     3  H    0.209340
     4  O   -0.374106
     5  H    0.228461
     6  H    0.230986
 Sum of Mulliken charges =  -0.00000

 Dipole moment (field-independent basis, Debye):
    X=             -2.8092    Y=              3.6242    Z=              0.0000  Tot=              4.5855
 Quadrupole moment (field-independent basis, Debye-Ang):
   XX=            -10.5694   YY=             -9.5106   ZZ=            -14.6148
   XY=              2.2588   XZ=              0.0000   YZ=              0.0000

 Normal termination of Gaussian 16 at Fri Aug 26 17:58:55 2022.
