 Gaussian 16, Revision A.03,
 Gaussian 16:  ES64L-G16RevA.03 25-Dec-2016

 ------------------
 #p CCSD(T)/cc-pVTZ
 ------------------

 -----------
 H2O_H2O_290
 -----------
 Symbolic Z-matrix:
 Charge =  0 Multiplicity = 1

                         Standard orientation:
 ---------------------------------------------------------------------
 Center     Atomic      Atomic             Coordinates (Angstroms)
 Number     Number       Type             X           Y           Z
 ---------------------------------------------------------------------
      1          8           0        0.045023    1.222351   -0.000000
      2          1           0        0.041418    0.239756   -0.000000
      3          1           0       -0.883294    1.544426   -0.000000
      4          8           0        0.045023   -1.042116    0.000000
      5          1           0        0.860019   -1.591014    0.000000
      6          1           0       -0.738518   -1.635049    0.000000
 ---------------------------------------------------------------------

 SCF Done:  E(RHF) =  -152.081751149     A.U. after   11 cycles
 E2 =    -0.5335549548D+00 EUMP2 =    -0.15261530610371D+03
 CCSD(T)
 CCSD(T)= -0.15264130338D+03

 The electronic state is 1-A'.
 Alpha  occ. eigenvalues --  -20.61072 -20.46676  -1.40639  -1.25907  -0.76501
 Alpha  occ. eigenvalues --   -0.74466  -0.56829  -0.56720  -0.47119  -0.42672
 Alpha virt. eigenvalues --    0.10860   0.17125   0.20443   0.33517   0.47023
 Alpha virt. eigenvalues --    0.52878   0.62278   0.65266   0.70421   0.71863
 Alpha virt. eigenvalues --    0.77770   0.79718   0.80504   0.82122   0.84055

 Mulliken charges:
               1
     1  O   -0.641796
     2  H    0.307202
     3  H    0.217098
     4  O   -0.385697
     5  H    0.257531
     6  H    0.245663
 Sum of Mulliken charges =  -0.00000

 Dipole moment (field-independent basis, Debye):
    X=             -1.4041    Y=             -4.6547    Z=              0.0000  Tot=              4.8619
 Quadrupole moment (field-independent basis, Debye-Ang):
   XX=             -9.1171   YY=             -9.8076   ZZ=            -14.6283
   XY=             -2.8703   XZ=              0.0000   YZ=              0.0000

 Normal termination of Gaussian 16 at Fri Aug 26 17:12:18 2022.
