 Gaussian 16, Revision A.03,
 Gaussian 16:  ES64L-G16RevA.03 25-Dec-2016

 ------------------
 #p CCSD(T)/cc-pVTZ
 ------------------

 ------------
 H2O_H2O_1051
 ------------
 Symbolic Z-matrix:
 Charge =  0 Multiplicity = 1

                         Standard orientation:
 ---------------------------------------------------------------------
 Center     Atomic      Atomic             Coordinates (Angstroms)
 Number     Number       Type             X           Y           Z
 ---------------------------------------------------------------------
      1          8           0        0.090688   -1.508905    0.000000
      2          1           0        0.090554   -0.526303    0.000000
      3          1           0       -0.838762   -1.827697    0.000000
      4          8           0        0.090688    1.370205    0.000000
      5          1           0        0.154820    2.350712    0.000000
      6          1           0       -0.857622    1.112884    0.000000
 ---------------------------------------------------------------------

 SCF Done:  E(RHF) =  -152.107295891     A.U. after   10 cycles
 E2 =    -0.5292671544D+00 EUMP2 =    -0.15263656304540D+03
 CCSD(T)
 CCSD(T)= -0.15266354090D+03

 The electronic state is 1-A'.
 Alpha  occ. eigenvalues --  -20.58601 -20.53493  -1.36210  -1.30998  -0.74357
 Alpha  occ. eigenvalues --   -0.68281  -0.59465  -0.54203  -0.53137  -0.48063
 Alpha virt. eigenvalues --    0.11474   0.16448   0.20565   0.30374   0.48451
 Alpha virt. eigenvalues --    0.53329   0.58202   0.60310   0.68246   0.71959
 Alpha virt. eigenvalues --    0.74083   0.78049   0.80413   0.81690   0.83148

 Mulliken charges:
               1
     1  O   -0.534565
     2  H    0.282598
     3  H    0.232050
     4  O   -0.451386
     5  H    0.237056
     6  H    0.234246
 Sum of Mulliken charges =  -0.00000

 Dipole moment (field-independent basis, Debye):
    X=             -2.9903    Y=              2.8940    Z=              0.0000  Tot=              4.1614
 Quadrupole moment (field-independent basis, Debye-Ang):
   XX=            -10.7583   YY=             -9.1074   ZZ=            -14.6961
   XY=              2.2464   XZ=              0.0000   YZ=              0.0000

 Normal termination of Gaussian 16 at Fri Aug 26 22:09:41 2022.
