 Gaussian 16, Revision A.03,
 Gaussian 16:  ES64L-G16RevA.03 25-Dec-2016

 ------------------
 #p CCSD(T)/cc-pVTZ
 ------------------

 -----------
 H2O_H2O_800
 -----------
 Symbolic Z-matrix:
 Charge =  0 Multiplicity = 1

                         Standard orientation:
 ---------------------------------------------------------------------
 Center     Atomic      Atomic             Coordinates (Angstroms)
 Number     Number       Type             X           Y           Z
 ---------------------------------------------------------------------
      1          8           0        0.092949   -1.405973    0.000000
      2          1           0        0.092949   -0.423372    0.000000
      3          1           0       -0.836544   -1.724640    0.000000
      4          8           0        0.092949    1.273187    0.000000
      5          1           0        0.092949    2.255788    0.000000
      6          1           0       -0.836544    0.954519    0.000000
 ---------------------------------------------------------------------

 SCF Done:  E(RHF) =  -152.101435790     A.U. after   10 cycles
 E2 =    -0.5309658141D+00 EUMP2 =    -0.15263240160394D+03
 CCSD(T)
 CCSD(T)= -0.15265925361D+03

 The electronic state is 1-A'.
 Alpha  occ. eigenvalues --  -20.59136 -20.52953  -1.37156  -1.30619  -0.75920
 Alpha  occ. eigenvalues --   -0.67885  -0.59782  -0.53844  -0.53677  -0.47642
 Alpha virt. eigenvalues --    0.11405   0.16387   0.20926   0.31431   0.48121
 Alpha virt. eigenvalues --    0.52417   0.58575   0.62551   0.68676   0.71144
 Alpha virt. eigenvalues --    0.73746   0.78477   0.79083   0.82333   0.82723

 Mulliken charges:
               1
     1  O   -0.542065
     2  H    0.285793
     3  H    0.224858
     4  O   -0.430777
     5  H    0.235119
     6  H    0.227071
 Sum of Mulliken charges =  -0.00000

 Dipole moment (field-independent basis, Debye):
    X=             -3.0360    Y=              2.9432    Z=              0.0000  Tot=              4.2284
 Quadrupole moment (field-independent basis, Debye-Ang):
   XX=            -10.8991   YY=             -9.3108   ZZ=            -14.6704
   XY=              2.0582   XZ=              0.0000   YZ=              0.0000

 Normal termination of Gaussian 16 at Fri Aug 26 20:35:24 2022.
