 Gaussian 16, Revision A.03,
 Gaussian 16:  ES64L-G16RevA.03 25-Dec-2016

 ------------------
 #p CCSD(T)/cc-pVTZ
 ------------------

 ------------
 H2O_H2O_4501
 ------------
 Symbolic Z-matrix:
 Charge =  0 Multiplicity = 1

                         Standard orientation:
 ---------------------------------------------------------------------
 Center     Atomic      Atomic             Coordinates (Angstroms)
 Number     Number       Type             X           Y           Z
 ---------------------------------------------------------------------
      1          8           0        0.090683   -2.885037    0.000000
      2          1           0        0.090615   -1.902436    0.000000
      3          1           0       -0.838787   -3.203768    0.000000
      4          8           0        0.090683    2.746326    0.000000
      5          1           0        0.154881    3.726828    0.000000
      6          1           0       -0.857643    2.489067    0.000000
 ---------------------------------------------------------------------

 SCF Done:  E(RHF) =  -152.107696280     A.U. after   10 cycles
 E2 =    -0.5258715870D+00 EUMP2 =    -0.15263356786723D+03
 CCSD(T)
 CCSD(T)= -0.15266078095D+03

 The electronic state is 1-A'.
 Alpha  occ. eigenvalues --  -20.56209 -20.55304  -1.33511  -1.32605  -0.70925
 Alpha  occ. eigenvalues --   -0.70002  -0.56972  -0.56058  -0.50622  -0.49719
 Alpha virt. eigenvalues --    0.12816   0.14745   0.18979   0.21588   0.53266
 Alpha virt. eigenvalues --    0.54820   0.56556   0.57684   0.66916   0.68472
 Alpha virt. eigenvalues --    0.78270   0.79154   0.79624   0.81276   0.81671

 Mulliken charges:
               1
     1  O   -0.509829
     2  H    0.257604
     3  H    0.252160
     4  O   -0.510838
     5  H    0.258236
     6  H    0.252668
 Sum of Mulliken charges =  -0.00000

 Dipole moment (field-independent basis, Debye):
    X=             -3.1098    Y=              2.4337    Z=              0.0000  Tot=              3.9489
 Quadrupole moment (field-independent basis, Debye-Ang):
   XX=            -10.6999   YY=             -8.8664   ZZ=            -14.7120
   XY=              2.4193   XZ=              0.0000   YZ=              0.0000

 Normal termination of Gaussian 16 at Sun Aug 28 03:23:27 2022.
