 Gaussian 16, Revision A.03,
 Gaussian 16:  ES64L-G16RevA.03 25-Dec-2016

 ------------------
 #p CCSD(T)/cc-pVTZ
 ------------------

 ------------
 H2O_H2O_2378
 ------------
 Symbolic Z-matrix:
 Charge =  0 Multiplicity = 1

                         Standard orientation:
 ---------------------------------------------------------------------
 Center     Atomic      Atomic             Coordinates (Angstroms)
 Number     Number       Type             X           Y           Z
 ---------------------------------------------------------------------
      1          8           0        0.085604   -2.043332    0.000000
      2          1           0        0.085287   -1.060731    0.000000
      3          1           0       -0.843786   -2.362298    0.000000
      4          8           0        0.085604    1.893743    0.000000
      5          1           0        0.276990    2.857526    0.000000
      6          1           0       -0.888156    1.762220    0.000000
 ---------------------------------------------------------------------

 SCF Done:  E(RHF) =  -152.109362610     A.U. after   10 cycles
 E2 =    -0.5263196982D+00 EUMP2 =    -0.15263568230840D+03
 CCSD(T)
 CCSD(T)= -0.15266281662D+03

 The electronic state is 1-A'.
 Alpha  occ. eigenvalues --  -20.57014 -20.54669  -1.34297  -1.31982  -0.71745
 Alpha  occ. eigenvalues --   -0.69347  -0.57812  -0.55434  -0.51409  -0.49104
 Alpha virt. eigenvalues --    0.11706   0.16069   0.19698   0.24306   0.53267
 Alpha virt. eigenvalues --    0.55661   0.56473   0.57910   0.68596   0.71486
 Alpha virt. eigenvalues --    0.77144   0.79400   0.79833   0.80580   0.83304

 Mulliken charges:
               1
     1  O   -0.515807
     2  H    0.264362
     3  H    0.246880
     4  O   -0.504991
     5  H    0.259189
     6  H    0.250367
 Sum of Mulliken charges =  -0.00000

 Dipole moment (field-independent basis, Debye):
    X=             -2.9008    Y=              2.7456    Z=              0.0000  Tot=              3.9942
 Quadrupole moment (field-independent basis, Debye-Ang):
   XX=            -10.4202   YY=             -8.5416   ZZ=            -14.7170
   XY=              2.7157   XZ=              0.0000   YZ=              0.0000

 Normal termination of Gaussian 16 at Sun Aug 28 06:46:47 2022.
