 Gaussian 16, Revision A.03,
 Gaussian 16:  ES64L-G16RevA.03 25-Dec-2016

 ------------------
 #p CCSD(T)/cc-pVTZ
 ------------------

 ------------
 H2O_H2O_2174
 ------------
 Symbolic Z-matrix:
 Charge =  0 Multiplicity = 1

                         Standard orientation:
 ---------------------------------------------------------------------
 Center     Atomic      Atomic             Coordinates (Angstroms)
 Number     Number       Type             X           Y           Z
 ---------------------------------------------------------------------
      1          8           0       -0.013569    1.958842    0.000000
      2          1           0       -0.009982    0.976247    0.000000
      3          1           0        0.914755    2.280899    0.000000
      4          8           0       -0.013569   -1.799597    0.000000
      5          1           0       -0.996164   -1.803183    0.000000
      6          1           0        0.308488   -2.727921    0.000000
 ---------------------------------------------------------------------

 SCF Done:  E(RHF) =  -152.111352332     A.U. after   10 cycles
 E2 =    -0.5262625370D+00 EUMP2 =    -0.15263761486932D+03
 CCSD(T)
 CCSD(T)= -0.15266470825D+03

 The electronic state is 1-A'.
 Alpha  occ. eigenvalues --  -20.57137 -20.54204  -1.34415  -1.31545  -0.71845
 Alpha  occ. eigenvalues --   -0.68960  -0.58041  -0.55019  -0.51544  -0.48695
 Alpha virt. eigenvalues --    0.12166   0.16681   0.19268   0.25614   0.53478
 Alpha virt. eigenvalues --    0.54778   0.56002   0.58842   0.68635   0.72493
 Alpha virt. eigenvalues --    0.76684   0.79087   0.80254   0.82615   0.83515

 Mulliken charges:
               1
     1  O   -0.527963
     2  H    0.265699
     3  H    0.254688
     4  O   -0.510494
     5  H    0.259817
     6  H    0.258253
 Sum of Mulliken charges =  -0.00000

 Dipole moment (field-independent basis, Debye):
    X=              0.4687    Y=             -2.9578    Z=              0.0000  Tot=              2.9947
 Quadrupole moment (field-independent basis, Debye-Ang):
   XX=             -9.6499   YY=             -8.2791   ZZ=            -14.7244
   XY=              5.2837   XZ=              0.0000   YZ=              0.0000

 Normal termination of Gaussian 16 at Sun Aug 28 05:07:12 2022.
