 Gaussian 16, Revision A.03,
 Gaussian 16:  ES64L-G16RevA.03 25-Dec-2016

 ------------------
 #p CCSD(T)/cc-pVTZ
 ------------------

 ------------
 H2O_H2O_1922
 ------------
 Symbolic Z-matrix:
 Charge =  0 Multiplicity = 1

                         Standard orientation:
 ---------------------------------------------------------------------
 Center     Atomic      Atomic             Coordinates (Angstroms)
 Number     Number       Type             X           Y           Z
 ---------------------------------------------------------------------
      1          8           0       -0.019924    1.863375    0.000000
      2          1           0       -0.016440    0.880779    0.000000
      3          1           0        0.908433    2.185335    0.000000
      4          8           0       -0.019924   -1.696301    0.000000
      5          1           0       -0.993659   -1.828011    0.000000
      6          1           0        0.420457   -2.574692    0.000000
 ---------------------------------------------------------------------

 SCF Done:  E(RHF) =  -152.112341037     A.U. after   10 cycles
 E2 =    -0.5264681702D+00 EUMP2 =    -0.15263880920705D+03
 CCSD(T)
 CCSD(T)= -0.15266587170D+03

 The electronic state is 1-A'.
 Alpha  occ. eigenvalues --  -20.57388 -20.53806  -1.34661  -1.31171  -0.72078
 Alpha  occ. eigenvalues --   -0.68612  -0.58362  -0.54621  -0.51793  -0.48327
 Alpha virt. eigenvalues --    0.12209   0.17049   0.19189   0.26660   0.52339
 Alpha virt. eigenvalues --    0.54501   0.56023   0.59210   0.68907   0.73061
 Alpha virt. eigenvalues --    0.75917   0.78216   0.80670   0.83357   0.84159

 Mulliken charges:
               1
     1  O   -0.532516
     2  H    0.268332
     3  H    0.253149
     4  O   -0.508875
     5  H    0.261720
     6  H    0.258190
 Sum of Mulliken charges =  -0.00000

 Dipole moment (field-independent basis, Debye):
    X=              0.6796    Y=             -3.1565    Z=              0.0000  Tot=              3.2288
 Quadrupole moment (field-independent basis, Debye-Ang):
   XX=             -9.4484   YY=             -8.1947   ZZ=            -14.7286
   XY=              4.7577   XZ=              0.0000   YZ=              0.0000

 Normal termination of Gaussian 16 at Sun Aug 28 02:49:08 2022.
