 Gaussian 16, Revision A.03,
 Gaussian 16:  ES64L-G16RevA.03 25-Dec-2016

 ------------------
 #p CCSD(T)/cc-pVTZ
 ------------------

 ------------
 H2O_H2O_2750
 ------------
 Symbolic Z-matrix:
 Charge =  0 Multiplicity = 1

                         Standard orientation:
 ---------------------------------------------------------------------
 Center     Atomic      Atomic             Coordinates (Angstroms)
 Number     Number       Type             X           Y           Z
 ---------------------------------------------------------------------
      1          8           0        0.092949   -2.183784    0.000000
      2          1           0        0.092949   -1.201183    0.000000
      3          1           0       -0.836544   -2.502451    0.000000
      4          8           0        0.092949    2.050997    0.000000
      5          1           0        0.092949    3.033599    0.000000
      6          1           0       -0.836544    1.732330    0.000000
 ---------------------------------------------------------------------

 SCF Done:  E(RHF) =  -152.108209091     A.U. after   10 cycles
 E2 =    -0.5261788116D+00 EUMP2 =    -0.15263438790249D+03
 CCSD(T)
 CCSD(T)= -0.15266156302D+03

 The electronic state is 1-A'.
 Alpha  occ. eigenvalues --  -20.56776 -20.55105  -1.34069  -1.32406  -0.71517
 Alpha  occ. eigenvalues --   -0.69775  -0.57538  -0.55852  -0.51174  -0.49518
 Alpha virt. eigenvalues --    0.11440   0.15694   0.19605   0.23705   0.54067
 Alpha virt. eigenvalues --    0.55149   0.56467   0.58017   0.68378   0.69489
 Alpha virt. eigenvalues --    0.77641   0.78497   0.79388   0.80683   0.82880

 Mulliken charges:
               1
     1  O   -0.511203
     2  H    0.261098
     3  H    0.248341
     4  O   -0.506359
     5  H    0.259609
     6  H    0.248514
 Sum of Mulliken charges =   0.00000

 Dipole moment (field-independent basis, Debye):
    X=             -3.1586    Y=              2.3985    Z=              0.0000  Tot=              3.9660
 Quadrupole moment (field-independent basis, Debye-Ang):
   XX=            -10.8631   YY=             -9.2005   ZZ=            -14.7128
   XY=              2.1470   XZ=              0.0000   YZ=              0.0000

 CCSD(T)=-152.661563\RMSD=7.212e-09\PG=CS [SG(H4O2)]\\@
 Normal termination of Gaussian 16 at Fri Aug 26 17:02:03 2022.
