 Gaussian 16, Revision A.03,
 Gaussian 16:  ES64L-G16RevA.03 25-Dec-2016

 ------------------
 #p CCSD(T)/cc-pVTZ
 ------------------

 -----------
 H2O_H2O_349
 -----------
 Symbolic Z-matrix:
 Charge =  0 Multiplicity = 1

                         Standard orientation:
 ---------------------------------------------------------------------
 Center     Atomic      Atomic             Coordinates (Angstroms)
 Number     Number       Type             X           Y           Z
 ---------------------------------------------------------------------
      1          8           0        0.013752   -1.230868    0.000000
      2          1           0        0.007898   -0.248284    0.000000
      3          1           0       -0.913826   -1.555066    0.000000
      4          8           0        0.013752    1.071686    0.000000
      5          1           0        0.996336    1.077540    0.000000
      6          1           0       -0.310447    1.999264    0.000000
 ---------------------------------------------------------------------

 SCF Done:  E(RHF) =  -152.083253821     A.U. after   11 cycles
 E2 =    -0.5336003900D+00 EUMP2 =    -0.15261685421083D+03
 CCSD(T)
 CCSD(T)= -0.15264296091D+03

 The electronic state is 1-A'.
 Alpha  occ. eigenvalues --  -20.60596 -20.48119  -1.40159  -1.26944  -0.78631
 Alpha  occ. eigenvalues --   -0.70041  -0.58639  -0.56149  -0.48477  -0.43856
 Alpha virt. eigenvalues --    0.11312   0.17759   0.19980   0.34156   0.47803
 Alpha virt. eigenvalues --    0.52511   0.59040   0.68550   0.71918   0.72590
 Alpha virt. eigenvalues --    0.75555   0.77140   0.77583   0.83929   0.85025

 Mulliken charges:
               1
     1  O   -0.635991
     2  H    0.288301
     3  H    0.238121
     4  O   -0.379568
     5  H    0.259491
     6  H    0.229645
 Sum of Mulliken charges =  -0.00000

 Dipole moment (field-independent basis, Debye):
    X=             -0.4407    Y=              4.0868    Z=              0.0000  Tot=              4.1105
 Quadrupole moment (field-independent basis, Debye-Ang):
   XX=             -9.5612   YY=             -9.6052   ZZ=            -14.6242
   XY=              3.2390   XZ=              0.0000   YZ=              0.0000

 Normal termination of Gaussian 16 at Fri Aug 26 17:36:54 2022.
