 Gaussian 16, Revision A.03,
 Gaussian 16:  ES64L-G16RevA.03 25-Dec-2016

 ------------------
 #p CCSD(T)/cc-pVTZ
 ------------------

 ------------
 H2O_H2O_3334
 ------------
 Symbolic Z-matrix:
 Charge =  0 Multiplicity = 1

                         Standard orientation:
 ---------------------------------------------------------------------
 Center     Atomic      Atomic             Coordinates (Angstroms)
 Number     Number       Type             X           Y           Z
 ---------------------------------------------------------------------
      1          8           0        0.066757    2.435042   -0.000000
      2          1           0        0.065811    1.452441   -0.000000
      3          1           0       -0.862428    2.754603   -0.000000
      4          8           0        0.066757   -2.261933    0.000000
      5          1           0        0.611875   -3.079462    0.000000
      6          1           0       -0.883372   -2.512455    0.000000
 ---------------------------------------------------------------------

 SCF Done:  E(RHF) =  -152.109053171     A.U. after   10 cycles
 E2 =    -0.5259111248D+00 EUMP2 =    -0.15263496429574D+03
 CCSD(T)
 CCSD(T)= -0.15266213076D+03

 The electronic state is 1-A'.
 Alpha  occ. eigenvalues --  -20.56510 -20.54691  -1.33798  -1.32004  -0.71206
 Alpha  occ. eigenvalues --   -0.69395  -0.57309  -0.55479  -0.50920  -0.49131
 Alpha virt. eigenvalues --    0.12512   0.15591   0.19470   0.22045   0.53412
 Alpha virt. eigenvalues --    0.55143   0.56398   0.58210   0.67277   0.69319
 Alpha virt. eigenvalues --    0.77986   0.78782   0.79711   0.79975   0.82991

 Mulliken charges:
               1
     1  O   -0.515331
     2  H    0.262664
     3  H    0.251050
     4  O   -0.513782
     5  H    0.260027
     6  H    0.255372
 Sum of Mulliken charges =  -0.00000

 Dipole moment (field-independent basis, Debye):
    X=             -2.2794    Y=             -3.0908    Z=              0.0000  Tot=              3.8404
 Quadrupole moment (field-independent basis, Debye-Ang):
   XX=             -9.5636   YY=             -7.2727   ZZ=            -14.7170
   XY=             -4.0090   XZ=              0.0000   YZ=             -0.0000

 CCSD(T)=-152.6621308\RMSD=7.035e-09\PG=CS [SG(H4O2)]\\@
 Normal termination of Gaussian 16 at Fri Aug 26 21:07:36 2022.
