 Gaussian 16, Revision A.03,
 Gaussian 16:  ES64L-G16RevA.03 25-Dec-2016

 ------------------
 #p CCSD(T)/cc-pVTZ
 ------------------

 -----------
 H2O_H2O_624
 -----------
 Symbolic Z-matrix:
 Charge =  0 Multiplicity = 1

                         Standard orientation:
 ---------------------------------------------------------------------
 Center     Atomic      Atomic             Coordinates (Angstroms)
 Number     Number       Type             X           Y           Z
 ---------------------------------------------------------------------
      1          8           0        0.013711   -1.340564    0.000000
      2          1           0        0.008366   -0.357977    0.000000
      3          1           0       -0.914035   -1.664282    0.000000
      4          8           0        0.013711    1.181368    0.000000
      5          1           0        0.996298    1.186713    0.000000
      6          1           0       -0.310007    2.109115    0.000000
 ---------------------------------------------------------------------

 SCF Done:  E(RHF) =  -152.102896116     A.U. after   10 cycles
 E2 =    -0.5310458334D+00 EUMP2 =    -0.15263394194952D+03
 CCSD(T)
 CCSD(T)= -0.15266049109D+03

 The electronic state is 1-A'.
 Alpha  occ. eigenvalues --  -20.59661 -20.50297  -1.37968  -1.28433  -0.76054
 Alpha  occ. eigenvalues --   -0.68373  -0.59913  -0.54628  -0.50814  -0.45471
 Alpha virt. eigenvalues --    0.11702   0.18143   0.19367   0.33815   0.48030
 Alpha virt. eigenvalues --    0.53435   0.57672   0.67529   0.68993   0.72058
 Alpha virt. eigenvalues --    0.74607   0.76351   0.79298   0.83935   0.83935

 Mulliken charges:
               1
     1  O   -0.603939
     2  H    0.294935
     3  H    0.245738
     4  O   -0.427538
     5  H    0.257416
     6  H    0.233386
 Sum of Mulliken charges =  -0.00000

 Dipole moment (field-independent basis, Debye):
    X=             -0.4580    Y=              3.7096    Z=              0.0000  Tot=              3.7378
 Quadrupole moment (field-independent basis, Debye-Ang):
   XX=             -9.6045   YY=             -9.2461   ZZ=            -14.6767
   XY=              3.5624   XZ=              0.0000   YZ=              0.0000

 Normal termination of Gaussian 16 at Fri Aug 26 19:28:20 2022.
