 Gaussian 16, Revision A.03,
 Gaussian 16:  ES64L-G16RevA.03 25-Dec-2016

 ------------------
 #p CCSD(T)/cc-pVTZ
 ------------------

 ------------
 H2O_H2O_2595
 ------------
 Symbolic Z-matrix:
 Charge =  0 Multiplicity = 1

                         Standard orientation:
 ---------------------------------------------------------------------
 Center     Atomic      Atomic             Coordinates (Angstroms)
 Number     Number       Type             X           Y           Z
 ---------------------------------------------------------------------
      1          8           0        0.026680    2.135947    0.000000
      2          1           0        0.023934    1.153350    0.000000
      3          1           0       -0.901919    2.457209    0.000000
      4          8           0        0.026680   -1.962736   -0.000000
      5          1           0        0.975086   -2.219703   -0.000000
      6          1           0       -0.523975   -2.776544   -0.000000
 ---------------------------------------------------------------------

 SCF Done:  E(RHF) =  -152.110731954     A.U. after   10 cycles
 E2 =    -0.5260373570D+00 EUMP2 =    -0.15263676931073D+03
 CCSD(T)
 CCSD(T)= -0.15266388400D+03

 The electronic state is 1-A'.
 Alpha  occ. eigenvalues --  -20.56863 -20.54273  -1.34133  -1.31603  -0.71534
 Alpha  occ. eigenvalues --   -0.69007  -0.57718  -0.55094  -0.51267  -0.48747
 Alpha virt. eigenvalues --    0.12329   0.16341   0.19301   0.23944   0.53301
 Alpha virt. eigenvalues --    0.55559   0.56393   0.58651   0.68974   0.70246
 Alpha virt. eigenvalues --    0.77496   0.79036   0.80095   0.80669   0.83539

 Mulliken charges:
               1
     1  O   -0.523667
     2  H    0.265546
     3  H    0.253018
     4  O   -0.512840
     5  H    0.260054
     6  H    0.257888
 Sum of Mulliken charges =   0.00000

 Dipole moment (field-independent basis, Debye):
    X=             -0.9096    Y=             -3.1611    Z=             -0.0000  Tot=              3.2894
 Quadrupole moment (field-independent basis, Debye-Ang):
   XX=             -9.2884   YY=             -7.6640   ZZ=            -14.7225
   XY=             -5.1551   XZ=             -0.0000   YZ=              0.0000

 Normal termination of Gaussian 16 at Fri Aug 26 15:52:29 2022.
