 Gaussian 16, Revision A.03,
 Gaussian 16:  ES64L-G16RevA.03 25-Dec-2016

 ------------------
 #p CCSD(T)/cc-pVTZ
 ------------------

 ------------
 H2O_H2O_3397
 ------------
 Symbolic Z-matrix:
 Charge =  0 Multiplicity = 1

                         Standard orientation:
 ---------------------------------------------------------------------
 Center     Atomic      Atomic             Coordinates (Angstroms)
 Number     Number       Type             X           Y           Z
 ---------------------------------------------------------------------
      1          8           0       -0.019851    2.451733    0.000000
      2          1           0       -0.017232    1.469135    0.000000
      3          1           0        0.908789    2.772876    0.000000
      4          8           0       -0.019851   -2.284625    0.000000
      5          1           0       -0.993701   -2.415476    0.000000
      6          1           0        0.419757   -3.163403    0.000000
 ---------------------------------------------------------------------

 SCF Done:  E(RHF) =  -152.109316902     A.U. after   10 cycles
 E2 =    -0.5258561691D+00 EUMP2 =    -0.15263517307129D+03
 CCSD(T)
 CCSD(T)= -0.15266233771D+03

 The electronic state is 1-A'.
 Alpha  occ. eigenvalues --  -20.56464 -20.54739  -1.33757  -1.32054  -0.71162
 Alpha  occ. eigenvalues --   -0.69459  -0.57280  -0.55540  -0.50881  -0.49187
 Alpha virt. eigenvalues --    0.12529   0.15599   0.19323   0.22270   0.53373
 Alpha virt. eigenvalues --    0.55369   0.56522   0.58027   0.67157   0.69301
 Alpha virt. eigenvalues --    0.78020   0.78707   0.79653   0.80431   0.82989

 Mulliken charges:
               1
     1  O   -0.517810
     2  H    0.261987
     3  H    0.254437
     4  O   -0.515966
     5  H    0.258496
     6  H    0.258855
 Sum of Mulliken charges =  -0.00000

 Dipole moment (field-independent basis, Debye):
    X=              0.6806    Y=             -2.9775    Z=              0.0000  Tot=              3.0543
 Quadrupole moment (field-independent basis, Debye-Ang):
   XX=             -9.4466   YY=             -7.4914   ZZ=            -14.7179
   XY=              6.2438   XZ=              0.0000   YZ=              0.0000

 Normal termination of Gaussian 16 at Fri Aug 26 21:28:22 2022.
