 Gaussian 16, Revision A.03,
 Gaussian 16:  ES64L-G16RevA.03 25-Dec-2016

 ------------------
 #p CCSD(T)/cc-pVTZ
 ------------------

 ------------
 H2O_H2O_3576
 ------------
 Symbolic Z-matrix:
 Charge =  0 Multiplicity = 1

                         Standard orientation:
 ---------------------------------------------------------------------
 Center     Atomic      Atomic             Coordinates (Angstroms)
 Number     Number       Type             X           Y           Z
 ---------------------------------------------------------------------
      1          8           0        0.090684   -2.516075    0.000000
      2          1           0        0.090605   -1.533473    0.000000
      3          1           0       -0.838783   -2.834815    0.000000
      4          8           0        0.090684    2.377365    0.000000
      5          1           0        0.154872    3.357868    0.000000
      6          1           0       -0.857639    2.120097    0.000000
 ---------------------------------------------------------------------

 SCF Done:  E(RHF) =  -152.107936922     A.U. after   10 cycles
 E2 =    -0.5259447998D+00 EUMP2 =    -0.15263388172198D+03
 CCSD(T)
 CCSD(T)= -0.15266108028D+03

 The electronic state is 1-A'.
 Alpha  occ. eigenvalues --  -20.56432 -20.55182  -1.33730  -1.32484  -0.71152
 Alpha  occ. eigenvalues --   -0.69874  -0.57197  -0.55938  -0.50840  -0.49598
 Alpha virt. eigenvalues --    0.11947   0.15252   0.19043   0.22502   0.53357
 Alpha virt. eigenvalues --    0.54938   0.56462   0.57972   0.66918   0.68895
 Alpha virt. eigenvalues --    0.78065   0.78741   0.79271   0.81324   0.82472

 Mulliken charges:
               1
     1  O   -0.510232
     2  H    0.258899
     3  H    0.250764
     4  O   -0.510573
     5  H    0.259528
     6  H    0.251613
 Sum of Mulliken charges =   0.00000

 Dipole moment (field-independent basis, Debye):
    X=             -3.0988    Y=              2.4603    Z=              0.0000  Tot=              3.9567
 Quadrupole moment (field-independent basis, Debye-Ang):
   XX=            -10.7057   YY=             -8.9089   ZZ=            -14.7127
   XY=              2.3856   XZ=              0.0000   YZ=              0.0000

 Normal termination of Gaussian 16 at Fri Aug 26 22:28:56 2022.
