 Gaussian 16, Revision A.03,
 Gaussian 16:  ES64L-G16RevA.03 25-Dec-2016

 ------------------
 #p CCSD(T)/cc-pVTZ
 ------------------

 ------------
 H2O_H2O_2903
 ------------
 Symbolic Z-matrix:
 Charge =  0 Multiplicity = 1

                         Standard orientation:
 ---------------------------------------------------------------------
 Center     Atomic      Atomic             Coordinates (Angstroms)
 Number     Number       Type             X           Y           Z
 ---------------------------------------------------------------------
      1          8           0        0.085602   -2.252745    0.000000
      2          1           0        0.085315   -1.270144    0.000000
      3          1           0       -0.843798   -2.571683    0.000000
      4          8           0        0.085602    2.103150    0.000000
      5          1           0        0.277018    3.066928    0.000000
      6          1           0       -0.888161    1.971658    0.000000
 ---------------------------------------------------------------------

 SCF Done:  E(RHF) =  -152.108710678     A.U. after   10 cycles
 E2 =    -0.5260723272D+00 EUMP2 =    -0.15263478300532D+03
 CCSD(T)
 CCSD(T)= -0.15266194791D+03

 The electronic state is 1-A'.
 Alpha  occ. eigenvalues --  -20.56699 -20.54877  -1.33988  -1.32185  -0.71416
 Alpha  occ. eigenvalues --   -0.69564  -0.57478  -0.55645  -0.51102  -0.49305
 Alpha virt. eigenvalues --    0.11813   0.15727   0.19456   0.23068   0.54241
 Alpha virt. eigenvalues --    0.54833   0.56423   0.58267   0.68292   0.69200
 Alpha virt. eigenvalues --    0.77770   0.78668   0.79564   0.80837   0.82799

 Mulliken charges:
               1
     1  O   -0.513232
     2  H    0.261951
     3  H    0.249054
     4  O   -0.509124
     5  H    0.259692
     6  H    0.251659
 Sum of Mulliken charges =   0.00000

 Dipole moment (field-independent basis, Debye):
    X=             -2.9137    Y=              2.6948    Z=              0.0000  Tot=              3.9688
 Quadrupole moment (field-independent basis, Debye-Ang):
   XX=            -10.4103   YY=             -8.4401   ZZ=            -14.7152
   XY=              2.7726   XZ=              0.0000   YZ=              0.0000

 Normal termination of Gaussian 16 at Fri Aug 26 18:13:46 2022.
