 Gaussian 16, Revision A.03,
 Gaussian 16:  ES64L-G16RevA.03 25-Dec-2016

 ------------------
 #p CCSD(T)/cc-pVTZ
 ------------------

 -----------
 H2O_H2O_169
 -----------
 Symbolic Z-matrix:
 Charge =  0 Multiplicity = 1

                         Standard orientation:
 ---------------------------------------------------------------------
 Center     Atomic      Atomic             Coordinates (Angstroms)
 Number     Number       Type             X           Y           Z
 ---------------------------------------------------------------------
      1          8           0        0.030418    1.169897   -0.000000
      2          1           0        0.025496    0.187308   -0.000000
      3          1           0       -0.897467    1.493216    0.000000
      4          8           0        0.030418   -0.994448   -0.000000
      5          1           0        0.959280   -1.314952   -0.000000
      6          1           0       -0.574002   -1.769163    0.000000
 ---------------------------------------------------------------------

 SCF Done:  E(RHF) =  -152.062133668     A.U. after   11 cycles
 E2 =    -0.5348163367D+00 EUMP2 =    -0.15259695000518D+03
 CCSD(T)
 CCSD(T)= -0.15262269705D+03

 The electronic state is 1-A'.
 Alpha  occ. eigenvalues --  -20.61524 -20.45392  -1.42211  -1.25155  -0.79113
 Alpha  occ. eigenvalues --   -0.74710  -0.57659  -0.56046  -0.45646  -0.41810
 Alpha virt. eigenvalues --    0.10696   0.17026   0.20693   0.33595   0.46861
 Alpha virt. eigenvalues --    0.52349   0.61235   0.68115   0.70329   0.71336
 Alpha virt. eigenvalues --    0.77550   0.78737   0.80338   0.83601   0.85775

 Mulliken charges:
               1
     1  O   -0.663780
     2  H    0.292881
     3  H    0.218105
     4  O   -0.345918
     5  H    0.261958
     6  H    0.236754
 Sum of Mulliken charges =  -0.00000

 Dipole moment (field-independent basis, Debye):
    X=             -0.9349    Y=             -4.7849    Z=              0.0000  Tot=              4.8754
 Quadrupole moment (field-independent basis, Debye-Ang):
   XX=             -9.1509   YY=             -9.9984   ZZ=            -14.5887
   XY=             -2.8030   XZ=              0.0000   YZ=              0.0000

 Normal termination of Gaussian 16 at Fri Aug 26 16:20:35 2022.
