 Gaussian 16, Revision A.03,
 Gaussian 16:  ES64L-G16RevA.03 25-Dec-2016

 ------------------
 #p CCSD(T)/cc-pVTZ
 ------------------

 ------------
 H2O_H2O_3581
 ------------
 Symbolic Z-matrix:
 Charge =  0 Multiplicity = 1

                         Standard orientation:
 ---------------------------------------------------------------------
 Center     Atomic      Atomic             Coordinates (Angstroms)
 Number     Number       Type             X           Y           Z
 ---------------------------------------------------------------------
      1          8           0        0.076754    2.529386   -0.000000
      2          1           0        0.076193    1.546785   -0.000000
      3          1           0       -0.852556    2.848583   -0.000000
      4          8           0        0.076754   -2.366170    0.000000
      5          1           0        0.452261   -3.274191    0.000000
      6          1           0       -0.903969   -2.426902    0.000000
 ---------------------------------------------------------------------

 SCF Done:  E(RHF) =  -152.108530490     A.U. after   10 cycles
 E2 =    -0.5258994095D+00 EUMP2 =    -0.15263442989934D+03
 CCSD(T)
 CCSD(T)= -0.15266161322D+03

 The electronic state is 1-A'.
 Alpha  occ. eigenvalues --  -20.56423 -20.54895  -1.33718  -1.32204  -0.71131
 Alpha  occ. eigenvalues --   -0.69595  -0.57209  -0.55671  -0.50835  -0.49325
 Alpha virt. eigenvalues --    0.12474   0.15354   0.19364   0.21859   0.53328
 Alpha virt. eigenvalues --    0.55070   0.56449   0.58038   0.66884   0.69172
 Alpha virt. eigenvalues --    0.78068   0.78721   0.79528   0.80569   0.82785

 Mulliken charges:
               1
     1  O   -0.513087
     2  H    0.261084
     3  H    0.251103
     4  O   -0.513073
     5  H    0.259784
     6  H    0.254189
 Sum of Mulliken charges =   0.00000

 Dipole moment (field-independent basis, Debye):
    X=             -2.6234    Y=             -2.8983    Z=              0.0000  Tot=              3.9093
 Quadrupole moment (field-independent basis, Debye-Ang):
   XX=             -9.9519   YY=             -7.6122   ZZ=            -14.7151
   XY=             -3.4978   XZ=              0.0000   YZ=             -0.0000

 Normal termination of Gaussian 16 at Fri Aug 26 22:30:37 2022.
