 Gaussian 16, Revision A.03,
 Gaussian 16:  ES64L-G16RevA.03 25-Dec-2016

 ------------------
 #p CCSD(T)/cc-pVTZ
 ------------------

 ------------
 H2O_H2O_1298
 ------------
 Symbolic Z-matrix:
 Charge =  0 Multiplicity = 1

                         Standard orientation:
 ---------------------------------------------------------------------
 Center     Atomic      Atomic             Coordinates (Angstroms)
 Number     Number       Type             X           Y           Z
 ---------------------------------------------------------------------
      1          8           0       -0.016741    1.612054    0.000000
      2          1           0       -0.012509    0.629462    0.000000
      3          1           0        0.911371    1.934721    0.000000
      4          8           0       -0.016741   -1.448710    0.000000
      5          1           0       -0.996952   -1.517198    0.000000
      6          1           0        0.365937   -2.353733    0.000000
 ---------------------------------------------------------------------

 SCF Done:  E(RHF) =  -152.113286047     A.U. after   10 cycles
 E2 =    -0.5275896335D+00 EUMP2 =    -0.15264087568032D+03
 CCSD(T)
 CCSD(T)= -0.15266784577D+03

 The electronic state is 1-A'.
 Alpha  occ. eigenvalues --  -20.58177 -20.52872  -1.35565  -1.30372  -0.73082
 Alpha  occ. eigenvalues --   -0.68056  -0.59382  -0.53613  -0.52652  -0.47518
 Alpha virt. eigenvalues --    0.12109   0.17802   0.19055   0.30185   0.50033
 Alpha virt. eigenvalues --    0.54567   0.55632   0.61597   0.68695   0.73392
 Alpha virt. eigenvalues --    0.74094   0.76836   0.81699   0.82392   0.84312

 Mulliken charges:
               1
     1  O   -0.552906
     2  H    0.280073
     3  H    0.252193
     4  O   -0.490140
     5  H    0.263122
     6  H    0.247657
 Sum of Mulliken charges =  -0.00000

 Dipole moment (field-independent basis, Debye):
    X=              0.5704    Y=             -3.2852    Z=              0.0000  Tot=              3.3344
 Quadrupole moment (field-independent basis, Debye-Ang):
   XX=             -9.5402   YY=             -8.6281   ZZ=            -14.7276
   XY=              4.2166   XZ=              0.0000   YZ=              0.0000

 Normal termination of Gaussian 16 at Fri Aug 26 23:41:07 2022.
