 Gaussian 16, Revision A.03,
 Gaussian 16:  ES64L-G16RevA.03 25-Dec-2016

 ------------------
 #p CCSD(T)/cc-pVTZ
 ------------------

 ------------
 H2O_H2O_2861
 ------------
 Symbolic Z-matrix:
 Charge =  0 Multiplicity = 1

                         Standard orientation:
 ---------------------------------------------------------------------
 Center     Atomic      Atomic             Coordinates (Angstroms)
 Number     Number       Type             X           Y           Z
 ---------------------------------------------------------------------
      1          8           0        0.059646    2.247928   -0.000000
      2          1           0        0.058337    1.265327   -0.000000
      3          1           0       -0.869421    2.567833    0.000000
      4          8           0        0.059646   -2.070490   -0.000000
      5          1           0        0.706535   -2.810112   -0.000000
      6          1           0       -0.849792   -2.442550    0.000000
 ---------------------------------------------------------------------

 SCF Done:  E(RHF) =  -152.109907892     A.U. after   10 cycles
 E2 =    -0.5259961056D+00 EUMP2 =    -0.15263590399774D+03
 CCSD(T)
 CCSD(T)= -0.15266304074D+03

 The electronic state is 1-A'.
 Alpha  occ. eigenvalues --  -20.56728 -20.54413  -1.34002  -1.31734  -0.71406
 Alpha  occ. eigenvalues --   -0.69122  -0.57547  -0.55216  -0.51131  -0.48868
 Alpha virt. eigenvalues --    0.12375   0.16024   0.19429   0.22982   0.53200
 Alpha virt. eigenvalues --    0.55493   0.56243   0.58741   0.68690   0.69366
 Alpha virt. eigenvalues --    0.77742   0.79078   0.79637   0.79965   0.83275

 Mulliken charges:
               1
     1  O   -0.518761
     2  H    0.264794
     3  H    0.250376
     4  O   -0.512552
     5  H    0.260217
     6  H    0.255927
 Sum of Mulliken charges =  -0.00000

 Dipole moment (field-independent basis, Debye):
    X=             -2.0314    Y=             -3.2095    Z=              0.0000  Tot=              3.7983
 Quadrupole moment (field-independent basis, Debye-Ang):
   XX=             -9.3656   YY=             -7.3754   ZZ=            -14.7198
   XY=             -4.1399   XZ=              0.0000   YZ=              0.0000

 Normal termination of Gaussian 16 at Fri Aug 26 17:50:03 2022.
