 Gaussian 16, Revision A.03,
 Gaussian 16:  ES64L-G16RevA.03 25-Dec-2016

 ------------------
 #p CCSD(T)/cc-pVTZ
 ------------------

 ------------
 H2O_H2O_2804
 ------------
 Symbolic Z-matrix:
 Charge =  0 Multiplicity = 1

                         Standard orientation:
 ---------------------------------------------------------------------
 Center     Atomic      Atomic             Coordinates (Angstroms)
 Number     Number       Type             X           Y           Z
 ---------------------------------------------------------------------
      1          8           0        0.082805   -2.215530    0.000000
      2          1           0        0.082403   -1.232929    0.000000
      3          1           0       -0.846557   -2.534577    0.000000
      4          8           0        0.082805    2.061016    0.000000
      5          1           0        0.336733    3.010240    0.000000
      6          1           0       -0.897465    1.993376    0.000000
 ---------------------------------------------------------------------

 SCF Done:  E(RHF) =  -152.109007788     A.U. after   10 cycles
 E2 =    -0.5260926535D+00 EUMP2 =    -0.15263510044121D+03
 CCSD(T)
 CCSD(T)= -0.15266225536D+03

 The electronic state is 1-A'.
 Alpha  occ. eigenvalues --  -20.56752 -20.54764  -1.34037  -1.32075  -0.71463
 Alpha  occ. eigenvalues --   -0.69453  -0.57539  -0.55537  -0.51154  -0.49197
 Alpha virt. eigenvalues --    0.11882   0.15834   0.19484   0.23192   0.54088
 Alpha virt. eigenvalues --    0.55030   0.56387   0.58345   0.68540   0.69400
 Alpha virt. eigenvalues --    0.77697   0.78835   0.79670   0.80680   0.82901

 Mulliken charges:
               1
     1  O   -0.514486
     2  H    0.262853
     3  H    0.248810
     4  O   -0.509035
     5  H    0.259643
     6  H    0.252214
 Sum of Mulliken charges =  -0.00000

 Dipole moment (field-independent basis, Debye):
    X=             -2.8169    Y=              2.7931    Z=              0.0000  Tot=              3.9669
 Quadrupole moment (field-independent basis, Debye-Ang):
   XX=            -10.2579   YY=             -8.2569   ZZ=            -14.7163
   XY=              2.9555   XZ=              0.0000   YZ=              0.0000

 Normal termination of Gaussian 16 at Fri Aug 26 17:26:12 2022.
