 Gaussian 16, Revision A.03,
 Gaussian 16:  ES64L-G16RevA.03 25-Dec-2016

 ------------------
 #p CCSD(T)/cc-pVTZ
 ------------------

 ------------
 H2O_H2O_4113
 ------------
 Symbolic Z-matrix:
 Charge =  0 Multiplicity = 1

                         Standard orientation:
 ---------------------------------------------------------------------
 Center     Atomic      Atomic             Coordinates (Angstroms)
 Number     Number       Type             X           Y           Z
 ---------------------------------------------------------------------
      1          8           0        0.052278    2.747869   -0.000000
      2          1           0        0.050979    1.765269   -0.000000
      3          1           0       -0.876793    3.067763   -0.000000
      4          8           0        0.052278   -2.567954    0.000000
      5          1           0        0.790180   -3.216804    0.000000
      6          1           0       -0.800811   -3.055546    0.000000
 ---------------------------------------------------------------------

 SCF Done:  E(RHF) =  -152.108613779     A.U. after   10 cycles
 E2 =    -0.5258207481D+00 EUMP2 =    -0.15263443452705D+03
 CCSD(T)
 CCSD(T)= -0.15266162393D+03

 The electronic state is 1-A'.
 Alpha  occ. eigenvalues --  -20.56266 -20.54853  -1.33565  -1.32163  -0.70969
 Alpha  occ. eigenvalues --   -0.69561  -0.57066  -0.55636  -0.50685  -0.49287
 Alpha virt. eigenvalues --    0.13144   0.15123   0.19648   0.21236   0.53573
 Alpha virt. eigenvalues --    0.54893   0.56599   0.57822   0.66687   0.69022
 Alpha virt. eigenvalues --    0.78207   0.79491   0.79564   0.79793   0.82840

 Mulliken charges:
               1
     1  O   -0.514509
     2  H    0.261344
     3  H    0.252811
     4  O   -0.515133
     5  H    0.258975
     6  H    0.256513
 Sum of Mulliken charges =  -0.00000

 Dipole moment (field-independent basis, Debye):
    X=             -1.7908    Y=             -3.1713    Z=             -0.0000  Tot=              3.6420
 Quadrupole moment (field-independent basis, Debye-Ang):
   XX=             -9.2251   YY=             -6.4948   ZZ=            -14.7155
   XY=             -5.1288   XZ=              0.0000   YZ=             -0.0000

 Normal termination of Gaussian 16 at Sat Aug 27 23:51:12 2022.
