 Gaussian 16, Revision A.03,
 Gaussian 16:  ES64L-G16RevA.03 25-Dec-2016

 ------------------
 #p CCSD(T)/cc-pVTZ
 ------------------

 ------------
 H2O_H2O_1072
 ------------
 Symbolic Z-matrix:
 Charge =  0 Multiplicity = 1

                         Standard orientation:
 ---------------------------------------------------------------------
 Center     Atomic      Atomic             Coordinates (Angstroms)
 Number     Number       Type             X           Y           Z
 ---------------------------------------------------------------------
      1          8           0       -0.019994    1.524315    0.000000
      2          1           0       -0.015689    0.541723    0.000000
      3          1           0        0.908094    1.847051    0.000000
      4          8           0       -0.019994   -1.357275    0.000000
      5          1           0       -0.993618   -1.489796    0.000000
      6          1           0        0.421121   -2.235297    0.000000
 ---------------------------------------------------------------------

 SCF Done:  E(RHF) =  -152.112942405     A.U. after   10 cycles
 E2 =    -0.5283463471D+00 EUMP2 =    -0.15264128875225D+03
 CCSD(T)
 CCSD(T)= -0.15266817338D+03

 The electronic state is 1-A'.
 Alpha  occ. eigenvalues --  -20.58606 -20.52121  -1.36113  -1.29751  -0.73620
 Alpha  occ. eigenvalues --   -0.67911  -0.59786  -0.53157  -0.52812  -0.46879
 Alpha virt. eigenvalues --    0.12004   0.18189   0.18868   0.31616   0.49128
 Alpha virt. eigenvalues --    0.54636   0.55937   0.62917   0.68452   0.72761
 Alpha virt. eigenvalues --    0.73713   0.76783   0.81774   0.82491   0.84331

 Mulliken charges:
               1
     1  O   -0.566472
     2  H    0.288475
     3  H    0.249372
     4  O   -0.478742
     5  H    0.262852
     6  H    0.244514
 Sum of Mulliken charges =  -0.00000

 Dipole moment (field-independent basis, Debye):
    X=              0.6725    Y=             -3.4844    Z=              0.0000  Tot=              3.5487
 Quadrupole moment (field-independent basis, Debye-Ang):
   XX=             -9.4380   YY=             -8.7648   ZZ=            -14.7221
   XY=              3.8873   XZ=              0.0000   YZ=              0.0000

 Normal termination of Gaussian 16 at Fri Aug 26 22:17:19 2022.
