 Gaussian 16, Revision A.03,
 Gaussian 16:  ES64L-G16RevA.03 25-Dec-2016

 ------------------
 #p CCSD(T)/cc-pVTZ
 ------------------

 ------------
 H2O_H2O_1806
 ------------
 Symbolic Z-matrix:
 Charge =  0 Multiplicity = 1

                         Standard orientation:
 ---------------------------------------------------------------------
 Center     Atomic      Atomic             Coordinates (Angstroms)
 Number     Number       Type             X           Y           Z
 ---------------------------------------------------------------------
      1          8           0        0.076773    1.821361    0.000000
      2          1           0        0.075984    0.838760    0.000000
      3          1           0       -0.852463    2.140775    0.000000
      4          8           0        0.076773   -1.658182    0.000000
      5          1           0        0.452069   -2.566289    0.000000
      6          1           0       -0.903963   -1.718685    0.000000
 ---------------------------------------------------------------------

 SCF Done:  E(RHF) =  -152.111312566     A.U. after   10 cycles
 E2 =    -0.5267915341D+00 EUMP2 =    -0.15263810409994D+03
 CCSD(T)
 CCSD(T)= -0.15266517321D+03

 The electronic state is 1-A'.
 Alpha  occ. eigenvalues --  -20.57540 -20.53925  -1.34820  -1.31281  -0.72270
 Alpha  occ. eigenvalues --   -0.68682  -0.58453  -0.54697  -0.51935  -0.48413
 Alpha virt. eigenvalues --    0.11847   0.16659   0.19572   0.26733   0.50823
 Alpha virt. eigenvalues --    0.55482   0.56562   0.58252   0.69141   0.73483
 Alpha virt. eigenvalues --    0.75490   0.77952   0.80654   0.83118   0.83723

 Mulliken charges:
               1
     1  O   -0.524926
     2  H    0.269964
     3  H    0.243957
     4  O   -0.501137
     5  H    0.259476
     6  H    0.252665
 Sum of Mulliken charges =   0.00000

 Dipole moment (field-independent basis, Debye):
    X=             -2.5846    Y=             -3.1039    Z=              0.0000  Tot=              4.0391
 Quadrupole moment (field-independent basis, Debye-Ang):
   XX=             -9.9771   YY=             -8.3404   ZZ=            -14.7245
   XY=             -3.0903   XZ=              0.0000   YZ=              0.0000

 Normal termination of Gaussian 16 at Sun Aug 28 01:49:10 2022.
