 Gaussian 16, Revision A.03,
 Gaussian 16:  ES64L-G16RevA.03 25-Dec-2016

 ------------------
 #p CCSD(T)/cc-pVTZ
 ------------------

 ------------
 H2O_H2O_4404
 ------------
 Symbolic Z-matrix:
 Charge =  0 Multiplicity = 1

                         Standard orientation:
 ---------------------------------------------------------------------
 Center     Atomic      Atomic             Coordinates (Angstroms)
 Number     Number       Type             X           Y           Z
 ---------------------------------------------------------------------
      1          8           0        0.082798    2.853741    0.000000
      2          1           0        0.082488    1.871140    0.000000
      3          1           0       -0.846594    3.172701   -0.000000
      4          8           0        0.082798   -2.699212    0.000000
      5          1           0        0.336814   -3.648412    0.000000
      6          1           0       -0.897480   -2.631664   -0.000000
 ---------------------------------------------------------------------

 SCF Done:  E(RHF) =  -152.107948583     A.U. after   10 cycles
 E2 =    -0.5258552859D+00 EUMP2 =    -0.15263380386845D+03
 CCSD(T)
 CCSD(T)= -0.15266101049D+03

 The electronic state is 1-A'.
 Alpha  occ. eigenvalues --  -20.56219 -20.55156  -1.33521  -1.32460  -0.70933
 Alpha  occ. eigenvalues --   -0.69857  -0.56993  -0.55918  -0.50634  -0.49576
 Alpha virt. eigenvalues --    0.12982   0.14839   0.19259   0.21349   0.53322
 Alpha virt. eigenvalues --    0.54889   0.56574   0.57755   0.66844   0.68640
 Alpha virt. eigenvalues --    0.78256   0.79290   0.79447   0.80932   0.82268

 Mulliken charges:
               1
     1  O   -0.511099
     2  H    0.258849
     3  H    0.252134
     4  O   -0.512138
     5  H    0.258584
     6  H    0.253670
 Sum of Mulliken charges =  -0.00000

 Dipole moment (field-independent basis, Debye):
    X=             -2.8385    Y=             -2.7142    Z=             -0.0000  Tot=              3.9273
 Quadrupole moment (field-independent basis, Debye-Ang):
   XX=            -10.2446   YY=             -7.8258   ZZ=            -14.7130
   XY=             -3.1862   XZ=             -0.0000   YZ=             -0.0000

 Normal termination of Gaussian 16 at Sun Aug 28 02:32:53 2022.
