 Gaussian 16, Revision A.03,
 Gaussian 16:  ES64L-G16RevA.03 25-Dec-2016

 ------------------
 #p CCSD(T)/cc-pVTZ
 ------------------

 -----------
 H2O_H2O_995
 -----------
 Symbolic Z-matrix:
 Charge =  0 Multiplicity = 1

                         Standard orientation:
 ---------------------------------------------------------------------
 Center     Atomic      Atomic             Coordinates (Angstroms)
 Number     Number       Type             X           Y           Z
 ---------------------------------------------------------------------
      1          8           0        0.026789    1.497713    0.000000
      2          1           0        0.022802    0.515120    0.000000
      3          1           0       -0.901403    1.820149    0.000000
      4          8           0        0.026789   -1.324570   -0.000000
      5          1           0        0.974870   -1.582735   -0.000000
      6          1           0       -0.524894   -2.137683   -0.000000
 ---------------------------------------------------------------------

 SCF Done:  E(RHF) =  -152.112948990     A.U. after   10 cycles
 E2 =    -0.5286399368D+00 EUMP2 =    -0.15264158892652D+03
 CCSD(T)
 CCSD(T)= -0.15266842608D+03

 The electronic state is 1-A'.
 Alpha  occ. eigenvalues --  -20.58805 -20.51653  -1.36352  -1.29358  -0.73716
 Alpha  occ. eigenvalues --   -0.68010  -0.59834  -0.53386  -0.52334  -0.46474
 Alpha virt. eigenvalues --    0.11921   0.18467   0.18647   0.32079   0.48726
 Alpha virt. eigenvalues --    0.54633   0.56307   0.63088   0.68340   0.72672
 Alpha virt. eigenvalues --    0.72899   0.77198   0.81865   0.82762   0.84450

 Mulliken charges:
               1
     1  O   -0.572352
     2  H    0.294191
     3  H    0.245962
     4  O   -0.481518
     5  H    0.264252
     6  H    0.249465
 Sum of Mulliken charges =  -0.00000

 Dipole moment (field-independent basis, Debye):
    X=             -0.8905    Y=             -3.6627    Z=             -0.0000  Tot=              3.7694
 Quadrupole moment (field-independent basis, Debye-Ang):
   XX=             -9.2777   YY=             -8.8012   ZZ=            -14.7219
   XY=             -3.6675   XZ=             -0.0000   YZ=             -0.0000

 Normal termination of Gaussian 16 at Fri Aug 26 21:48:03 2022.
