 Gaussian 16, Revision A.03,
 Gaussian 16:  ES64L-G16RevA.03 25-Dec-2016

 ------------------
 #p CCSD(T)/cc-pVTZ
 ------------------

 ----------
 H2O_H2O_97
 ----------
 Symbolic Z-matrix:
 Charge =  0 Multiplicity = 1

                         Standard orientation:
 ---------------------------------------------------------------------
 Center     Atomic      Atomic             Coordinates (Angstroms)
 Number     Number       Type             X           Y           Z
 ---------------------------------------------------------------------
      1          8           0        0.020129   -1.135382    0.000000
      2          1           0        0.014233   -0.152799    0.000000
      3          1           0       -0.907435   -1.459621    0.000000
      4          8           0        0.020129    0.968407    0.000000
      5          1           0        0.993538    1.102506    0.000000
      6          1           0       -0.422407    1.845714    0.000000
 ---------------------------------------------------------------------

 SCF Done:  E(RHF) =  -152.043913242     A.U. after   11 cycles
 E2 =    -0.5359992208D+00 EUMP2 =    -0.15257991246283D+03
 CCSD(T)
 CCSD(T)= -0.15260547775D+03

 The electronic state is 1-A'.
 Alpha  occ. eigenvalues --  -20.61721 -20.44870  -1.43463  -1.24897  -0.81508
 Alpha  occ. eigenvalues --   -0.73857  -0.58238  -0.55888  -0.44964  -0.41524
 Alpha virt. eigenvalues --    0.10667   0.16995   0.20811   0.33548   0.47379
 Alpha virt. eigenvalues --    0.51790   0.60319   0.69041   0.70880   0.71520
 Alpha virt. eigenvalues --    0.76381   0.77222   0.80643   0.85032   0.87077

 Mulliken charges:
               1
     1  O   -0.676809
     2  H    0.277451
     3  H    0.221860
     4  O   -0.318282
     5  H    0.265301
     6  H    0.230479
 Sum of Mulliken charges =  -0.00000

 Dipole moment (field-independent basis, Debye):
    X=             -0.6077    Y=              4.7338    Z=              0.0000  Tot=              4.7726
 Quadrupole moment (field-independent basis, Debye-Ang):
   XX=             -9.3232   YY=            -10.0718   ZZ=            -14.5545
   XY=              2.8208   XZ=              0.0000   YZ=              0.0000

 Normal termination of Gaussian 16 at Fri Aug 26 15:50:13 2022.
