 Gaussian 16, Revision A.03,
 Gaussian 16:  ES64L-G16RevA.03 25-Dec-2016

 ------------------
 #p CCSD(T)/cc-pVTZ
 ------------------

 ------------
 H2O_H2O_2210
 ------------
 Symbolic Z-matrix:
 Charge =  0 Multiplicity = 1

                         Standard orientation:
 ---------------------------------------------------------------------
 Center     Atomic      Atomic             Coordinates (Angstroms)
 Number     Number       Type             X           Y           Z
 ---------------------------------------------------------------------
      1          8           0        0.063255    1.987595    0.000000
      2          1           0        0.061928    1.004994    0.000000
      3          1           0       -0.865806    2.307517    0.000000
      4          8           0        0.063255   -1.812115    0.000000
      5          1           0        0.660371   -2.592473    0.000000
      6          1           0       -0.868576   -2.123880    0.000000
 ---------------------------------------------------------------------

 SCF Done:  E(RHF) =  -152.111217789     A.U. after   10 cycles
 E2 =    -0.5263068097D+00 EUMP2 =    -0.15263752459825D+03
 CCSD(T)
 CCSD(T)= -0.15266461510D+03

 The electronic state is 1-A'.
 Alpha  occ. eigenvalues --  -20.57170 -20.54009  -1.34428  -1.31349  -0.71830
 Alpha  occ. eigenvalues --   -0.68743  -0.58045  -0.54815  -0.51561  -0.48490
 Alpha virt. eigenvalues --    0.12140   0.16606   0.19323   0.25140   0.52194
 Alpha virt. eigenvalues --    0.55630   0.56082   0.58792   0.68909   0.71835
 Alpha virt. eigenvalues --    0.76821   0.78332   0.80406   0.83239   0.83520

 Mulliken charges:
               1
     1  O   -0.523751
     2  H    0.267618
     3  H    0.247755
     4  O   -0.507535
     5  H    0.260704
     6  H    0.255208
 Sum of Mulliken charges =  -0.00000

 Dipole moment (field-independent basis, Debye):
    X=             -2.1427    Y=             -3.2601    Z=             -0.0000  Tot=              3.9012
 Quadrupole moment (field-independent basis, Debye-Ang):
   XX=             -9.4646   YY=             -7.8328   ZZ=            -14.7243
   XY=             -3.7217   XZ=             -0.0000   YZ=             -0.0000

 Normal termination of Gaussian 16 at Sun Aug 28 05:27:09 2022.
