 Gaussian 16, Revision A.03,
 Gaussian 16:  ES64L-G16RevA.03 25-Dec-2016

 ------------------
 #p CCSD(T)/cc-pVTZ
 ------------------

 -----------
 H2O_H2O_654
 -----------
 Symbolic Z-matrix:
 Charge =  0 Multiplicity = 1

                         Standard orientation:
 ---------------------------------------------------------------------
 Center     Atomic      Atomic             Coordinates (Angstroms)
 Number     Number       Type             X           Y           Z
 ---------------------------------------------------------------------
      1          8           0        0.082827   -1.357921    0.000000
      2          1           0        0.082154   -0.375320    0.000000
      3          1           0       -0.846448   -1.677223    0.000000
      4          8           0        0.082827    1.203452    0.000000
      5          1           0        0.336494    2.152747    0.000000
      6          1           0       -0.897425    1.135544    0.000000
 ---------------------------------------------------------------------

 SCF Done:  E(RHF) =  -152.101761362     A.U. after   11 cycles
 E2 =    -0.5314704388D+00 EUMP2 =    -0.15263323180097D+03
 CCSD(T)
 CCSD(T)= -0.15265987512D+03

 The electronic state is 1-A'.
 Alpha  occ. eigenvalues --  -20.59619 -20.51268  -1.37817  -1.29213  -0.75995
 Alpha  occ. eigenvalues --   -0.68518  -0.59536  -0.54479  -0.51955  -0.46218
 Alpha virt. eigenvalues --    0.11307   0.16647   0.20427   0.32473   0.48335
 Alpha virt. eigenvalues --    0.53071   0.58914   0.63019   0.70158   0.71858
 Alpha virt. eigenvalues --    0.74133   0.78141   0.79241   0.83461   0.83529

 Mulliken charges:
               1
     1  O   -0.568459
     2  H    0.294606
     3  H    0.222304
     4  O   -0.418020
     5  H    0.234206
     6  H    0.235363
 Sum of Mulliken charges =  -0.00000

 Dipole moment (field-independent basis, Debye):
    X=             -2.6773    Y=              3.5384    Z=              0.0000  Tot=              4.4371
 Quadrupole moment (field-independent basis, Debye-Ang):
   XX=            -10.2849   YY=             -9.1918   ZZ=            -14.6697
   XY=              2.5674   XZ=              0.0000   YZ=              0.0000

 Normal termination of Gaussian 16 at Fri Aug 26 19:39:15 2022.
