 Gaussian 16, Revision A.03,
 Gaussian 16:  ES64L-G16RevA.03 25-Dec-2016

 ------------------
 #p CCSD(T)/cc-pVTZ
 ------------------

 -----------
 H2O_H2O_110
 -----------
 Symbolic Z-matrix:
 Charge =  0 Multiplicity = 1

                         Standard orientation:
 ---------------------------------------------------------------------
 Center     Atomic      Atomic             Coordinates (Angstroms)
 Number     Number       Type             X           Y           Z
 ---------------------------------------------------------------------
      1          8           0        0.063349    1.149887    0.000000
      2          1           0        0.060974    0.167288    0.000000
      3          1           0       -0.865372    1.470798    0.000000
      4          8           0        0.063349   -0.974541    0.000000
      5          1           0        0.659633   -1.755534    0.000000
      6          1           0       -0.868814   -1.285314    0.000000
 ---------------------------------------------------------------------

 SCF Done:  E(RHF) =  -152.051157790     A.U. after   11 cycles
 E2 =    -0.5359226675D+00 EUMP2 =    -0.15258708045766D+03
 CCSD(T)
 CCSD(T)= -0.15261272411D+03

 The electronic state is 1-A'.
 Alpha  occ. eigenvalues --  -20.61840 -20.45133  -1.43060  -1.25062  -0.79857
 Alpha  occ. eigenvalues --   -0.75697  -0.58165  -0.55160  -0.45479  -0.41639
 Alpha virt. eigenvalues --    0.10436   0.16249   0.21221   0.32575   0.48238
 Alpha virt. eigenvalues --    0.51968   0.61507   0.64058   0.70984   0.71512
 Alpha virt. eigenvalues --    0.78550   0.79262   0.81456   0.83329   0.87304

 Mulliken charges:
               1
     1  O   -0.651971
     2  H    0.289382
     3  H    0.199139
     4  O   -0.320019
     5  H    0.240182
     6  H    0.243288
 Sum of Mulliken charges =  -0.00000

 Dipole moment (field-independent basis, Debye):
    X=             -1.9274    Y=             -4.8587    Z=              0.0000  Tot=              5.2270
 Quadrupole moment (field-independent basis, Debye-Ang):
   XX=             -9.4208   YY=            -10.0797   ZZ=            -14.5649
   XY=             -2.6694   XZ=              0.0000   YZ=              0.0000

 Normal termination of Gaussian 16 at Fri Aug 26 15:55:34 2022.
