 Gaussian 16, Revision A.03,
 Gaussian 16:  ES64L-G16RevA.03 25-Dec-2016

 ------------------
 #p CCSD(T)/cc-pVTZ
 ------------------

 ------------
 H2O_H2O_4358
 ------------
 Symbolic Z-matrix:
 Charge =  0 Multiplicity = 1

                         Standard orientation:
 ---------------------------------------------------------------------
 Center     Atomic      Atomic             Coordinates (Angstroms)
 Number     Number       Type             X           Y           Z
 ---------------------------------------------------------------------
      1          8           0        0.070185    2.842346   -0.000000
      2          1           0        0.069485    1.859745   -0.000000
      3          1           0       -0.859080    3.161675   -0.000000
      4          8           0        0.070185   -2.672080    0.000000
      5          1           0        0.560880   -3.523387    0.000000
      6          1           0       -0.894247   -2.860164    0.000000
 ---------------------------------------------------------------------

 SCF Done:  E(RHF) =  -152.108232488     A.U. after   10 cycles
 E2 =    -0.5258344266D+00 EUMP2 =    -0.15263406691499D+03
 CCSD(T)
 CCSD(T)= -0.15266126679D+03

 The electronic state is 1-A'.
 Alpha  occ. eigenvalues --  -20.56221 -20.55008  -1.33522  -1.32314  -0.70930
 Alpha  occ. eigenvalues --   -0.69711  -0.57006  -0.55779  -0.50638  -0.49434
 Alpha virt. eigenvalues --    0.13166   0.14930   0.19532   0.21157   0.53473
 Alpha virt. eigenvalues --    0.54896   0.56606   0.57789   0.66791   0.68782
 Alpha virt. eigenvalues --    0.78252   0.79383   0.79425   0.80468   0.82626

 Mulliken charges:
               1
     1  O   -0.512610
     2  H    0.260062
     3  H    0.252380
     4  O   -0.513563
     5  H    0.258755
     6  H    0.254975
 Sum of Mulliken charges =  -0.00000

 Dipole moment (field-independent basis, Debye):
    X=             -2.4058    Y=             -2.9927    Z=              0.0000  Tot=              3.8398
 Quadrupole moment (field-independent basis, Debye-Ang):
   XX=             -9.6794   YY=             -6.8857   ZZ=            -14.7141
   XY=             -4.1507   XZ=              0.0000   YZ=             -0.0000

 Normal termination of Gaussian 16 at Sun Aug 28 02:13:56 2022.
