 Gaussian 16, Revision A.03,
 Gaussian 16:  ES64L-G16RevA.03 25-Dec-2016

 ------------------
 #p CCSD(T)/cc-pVTZ
 ------------------

 ------------
 H2O_H2O_2290
 ------------
 Symbolic Z-matrix:
 Charge =  0 Multiplicity = 1

                         Standard orientation:
 ---------------------------------------------------------------------
 Center     Atomic      Atomic             Coordinates (Angstroms)
 Number     Number       Type             X           Y           Z
 ---------------------------------------------------------------------
      1          8           0        0.044887    2.020171   -0.000000
      2          1           0        0.042772    1.037572   -0.000000
      3          1           0       -0.883918    2.340837   -0.000000
      4          8           0        0.044887   -1.839799    0.000000
      5          1           0        0.860713   -2.387461    0.000000
      6          1           0       -0.737754   -2.433920    0.000000
 ---------------------------------------------------------------------

 SCF Done:  E(RHF) =  -152.111510996     A.U. after   10 cycles
 E2 =    -0.5261987431D+00 EUMP2 =    -0.15263770973871D+03
 CCSD(T)
 CCSD(T)= -0.15266479893D+03

 The electronic state is 1-A'.
 Alpha  occ. eigenvalues --  -20.57103 -20.53946  -1.34358  -1.31288  -0.71748
 Alpha  occ. eigenvalues --   -0.68692  -0.57991  -0.54768  -0.51497  -0.48436
 Alpha virt. eigenvalues --    0.12297   0.16681   0.19255   0.24961   0.52297
 Alpha virt. eigenvalues --    0.55385   0.56400   0.58977   0.69043   0.71633
 Alpha virt. eigenvalues --    0.77004   0.78237   0.80429   0.82502   0.83601

 Mulliken charges:
               1
     1  O   -0.525863
     2  H    0.267672
     3  H    0.250098
     4  O   -0.509849
     5  H    0.261002
     6  H    0.256940
 Sum of Mulliken charges =  -0.00000

 Dipole moment (field-independent basis, Debye):
    X=             -1.5225    Y=             -3.3402    Z=              0.0000  Tot=              3.6708
 Quadrupole moment (field-independent basis, Debye-Ang):
   XX=             -9.1587   YY=             -7.6584   ZZ=            -14.7254
   XY=             -4.3181   XZ=              0.0000   YZ=             -0.0000

 Normal termination of Gaussian 16 at Sun Aug 28 06:02:33 2022.
