 Gaussian 16, Revision A.03,
 Gaussian 16:  ES64L-G16RevA.03 25-Dec-2016

 ------------------
 #p CCSD(T)/cc-pVTZ
 ------------------

 ------------
 H2O_H2O_2548
 ------------
 Symbolic Z-matrix:
 Charge =  0 Multiplicity = 1

                         Standard orientation:
 ---------------------------------------------------------------------
 Center     Atomic      Atomic             Coordinates (Angstroms)
 Number     Number       Type             X           Y           Z
 ---------------------------------------------------------------------
      1          8           0       -0.016654    2.110665    0.000000
      2          1           0       -0.013462    1.128069    0.000000
      3          1           0        0.911799    2.432349    0.000000
      4          8           0       -0.016654   -1.947286    0.000000
      5          1           0       -0.996938   -2.014735    0.000000
      6          1           0        0.365065   -2.852712    0.000000
 ---------------------------------------------------------------------

 SCF Done:  E(RHF) =  -152.110617505     A.U. after   10 cycles
 E2 =    -0.5260580793D+00 EUMP2 =    -0.15263667558442D+03
 CCSD(T)
 CCSD(T)= -0.15266379324D+03

 The electronic state is 1-A'.
 Alpha  occ. eigenvalues --  -20.56874 -20.54394  -1.34152  -1.31722  -0.71563
 Alpha  occ. eigenvalues --   -0.69131  -0.57729  -0.55212  -0.51282  -0.48866
 Alpha virt. eigenvalues --    0.12213   0.16327   0.19261   0.24249   0.53851
 Alpha virt. eigenvalues --    0.55457   0.56225   0.58521   0.68756   0.70545
 Alpha virt. eigenvalues --    0.77433   0.79219   0.79996   0.80865   0.83577

 Mulliken charges:
               1
     1  O   -0.523964
     2  H    0.264722
     3  H    0.254350
     4  O   -0.512695
     5  H    0.259305
     6  H    0.258282
 Sum of Mulliken charges =  -0.00000

 Dipole moment (field-independent basis, Debye):
    X=              0.5718    Y=             -2.9832    Z=              0.0000  Tot=              3.0375
 Quadrupole moment (field-independent basis, Debye-Ang):
   XX=             -9.5436   YY=             -8.0031   ZZ=            -14.7219
   XY=              5.5375   XZ=              0.0000   YZ=              0.0000

 Normal termination of Gaussian 16 at Fri Aug 26 15:32:06 2022.
