 Gaussian 16, Revision A.03,
 Gaussian 16:  ES64L-G16RevA.03 25-Dec-2016

 ------------------
 #p CCSD(T)/cc-pVTZ
 ------------------

 ------------
 H2O_H2O_1729
 ------------
 Symbolic Z-matrix:
 Charge =  0 Multiplicity = 1

                         Standard orientation:
 ---------------------------------------------------------------------
 Center     Atomic      Atomic             Coordinates (Angstroms)
 Number     Number       Type             X           Y           Z
 ---------------------------------------------------------------------
      1          8           0        0.082813   -1.786728    0.000000
      2          1           0        0.082310   -0.804127    0.000000
      3          1           0       -0.846516   -2.105871    0.000000
      4          8           0        0.082813    1.632231    0.000000
      5          1           0        0.336643    2.581482    0.000000
      6          1           0       -0.897451    1.564491    0.000000
 ---------------------------------------------------------------------

 SCF Done:  E(RHF) =  -152.110748873     A.U. after   10 cycles
 E2 =    -0.5269722369D+00 EUMP2 =    -0.15263772111015D+03
 CCSD(T)
 CCSD(T)= -0.15266479659D+03

 The electronic state is 1-A'.
 Alpha  occ. eigenvalues --  -20.57611 -20.54079  -1.34909  -1.31433  -0.72414
 Alpha  occ. eigenvalues --   -0.68804  -0.58506  -0.54834  -0.52009  -0.48555
 Alpha virt. eigenvalues --    0.11717   0.16527   0.19814   0.26946   0.50642
 Alpha virt. eigenvalues --    0.55368   0.57019   0.57969   0.68915   0.74207
 Alpha virt. eigenvalues --    0.75116   0.77882   0.80595   0.82875   0.83595

 Mulliken charges:
               1
     1  O   -0.523674
     2  H    0.270532
     3  H    0.242733
     4  O   -0.496781
     5  H    0.256962
     6  H    0.250229
 Sum of Mulliken charges =  -0.00000

 Dipole moment (field-independent basis, Debye):
    X=             -2.7823    Y=              2.9528    Z=              0.0000  Tot=              4.0571
 Quadrupole moment (field-independent basis, Debye-Ang):
   XX=            -10.2817   YY=             -8.5670   ZZ=            -14.7214
   XY=              2.7926   XZ=              0.0000   YZ=              0.0000

 Normal termination of Gaussian 16 at Sun Aug 28 00:59:55 2022.
