 Gaussian 16, Revision A.03,
 Gaussian 16:  ES64L-G16RevA.03 25-Dec-2016

 ------------------
 #p CCSD(T)/cc-pVTZ
 ------------------

 ------------
 H2O_H2O_1709
 ------------
 Symbolic Z-matrix:
 Charge =  0 Multiplicity = 1

                         Standard orientation:
 ---------------------------------------------------------------------
 Center     Atomic      Atomic             Coordinates (Angstroms)
 Number     Number       Type             X           Y           Z
 ---------------------------------------------------------------------
      1          8           0        0.066789    1.786842   -0.000000
      2          1           0        0.065482    0.804242   -0.000000
      3          1           0       -0.862279    2.106745   -0.000000
      4          8           0        0.066789   -1.613782    0.000000
      5          1           0        0.611606   -2.431511    0.000000
      6          1           0       -0.883432   -1.863956    0.000000
 ---------------------------------------------------------------------

 SCF Done:  E(RHF) =  -152.112398261     A.U. after   10 cycles
 E2 =    -0.5268590006D+00 EUMP2 =    -0.15263925726107D+03
 CCSD(T)
 CCSD(T)= -0.15266629993D+03

 The electronic state is 1-A'.
 Alpha  occ. eigenvalues --  -20.57671 -20.53526  -1.34943  -1.30909  -0.72346
 Alpha  occ. eigenvalues --   -0.68377  -0.58652  -0.54311  -0.52068  -0.48050
 Alpha virt. eigenvalues --    0.11969   0.16988   0.19317   0.27505   0.50346
 Alpha virt. eigenvalues --    0.55248   0.56409   0.58739   0.69331   0.72943
 Alpha virt. eigenvalues --    0.75151   0.77260   0.80992   0.83134   0.84188

 Mulliken charges:
               1
     1  O   -0.530449
     2  H    0.272442
     3  H    0.244359
     4  O   -0.503291
     5  H    0.261811
     6  H    0.255127
 Sum of Mulliken charges =  -0.00000

 Dipole moment (field-independent basis, Debye):
    X=             -2.2460    Y=             -3.3229    Z=              0.0000  Tot=              4.0107
 Quadrupole moment (field-independent basis, Debye-Ang):
   XX=             -9.5805   YY=             -8.2051   ZZ=            -14.7293
   XY=             -3.4128   XZ=              0.0000   YZ=             -0.0000

 Normal termination of Gaussian 16 at Sun Aug 28 00:52:17 2022.
