 Gaussian 16, Revision A.03,
 Gaussian 16:  ES64L-G16RevA.03 25-Dec-2016

 ------------------
 #p CCSD(T)/cc-pVTZ
 ------------------

 ------------
 H2O_H2O_1233
 ------------
 Symbolic Z-matrix:
 Charge =  0 Multiplicity = 1

                         Standard orientation:
 ---------------------------------------------------------------------
 Center     Atomic      Atomic             Coordinates (Angstroms)
 Number     Number       Type             X           Y           Z
 ---------------------------------------------------------------------
      1          8           0        0.070235    1.595814   -0.000000
      2          1           0        0.068957    0.613213   -0.000000
      3          1           0       -0.858843    1.915689   -0.000000
      4          8           0        0.070235   -1.425629    0.000000
      5          1           0        0.560430   -2.277226    0.000000
      6          1           0       -0.894307   -1.613148    0.000000
 ---------------------------------------------------------------------

 SCF Done:  E(RHF) =  -152.112633737     A.U. after   10 cycles
 E2 =    -0.5279867973D+00 EUMP2 =    -0.15264062053405D+03
 CCSD(T)
 CCSD(T)= -0.15266757517D+03

 The electronic state is 1-A'.
 Alpha  occ. eigenvalues --  -20.58357 -20.52734  -1.35744  -1.30242  -0.73172
 Alpha  occ. eigenvalues --   -0.68094  -0.59388  -0.53468  -0.52823  -0.47361
 Alpha virt. eigenvalues --    0.11768   0.17155   0.19471   0.30238   0.48754
 Alpha virt. eigenvalues --    0.54871   0.57730   0.59018   0.69794   0.73261
 Alpha virt. eigenvalues --    0.73709   0.76498   0.81835   0.82406   0.84376

 Mulliken charges:
               1
     1  O   -0.545013
     2  H    0.285543
     3  H    0.238619
     4  O   -0.486865
     5  H    0.254883
     6  H    0.252833
 Sum of Mulliken charges =  -0.00000

 Dipole moment (field-independent basis, Debye):
    X=             -2.3332    Y=             -3.4440    Z=              0.0000  Tot=              4.1599
 Quadrupole moment (field-independent basis, Debye-Ang):
   XX=             -9.7088   YY=             -8.5879   ZZ=            -14.7254
   XY=             -3.1426   XZ=              0.0000   YZ=              0.0000

 CCSD(T)=-152.6675752\RMSD=7.171e-09\PG=CS [SG(H4O2)]\\@
 Normal termination of Gaussian 16 at Fri Aug 26 23:17:04 2022.
