 Gaussian 16, Revision A.03,
 Gaussian 16:  ES64L-G16RevA.03 25-Dec-2016

 ------------------
 #p CCSD(T)/cc-pVTZ
 ------------------

 ------------
 H2O_H2O_4609
 ------------
 Symbolic Z-matrix:
 Charge =  0 Multiplicity = 1

                         Standard orientation:
 ---------------------------------------------------------------------
 Center     Atomic      Atomic             Coordinates (Angstroms)
 Number     Number       Type             X           Y           Z
 ---------------------------------------------------------------------
      1          8           0        0.066742    2.943622   -0.000000
      2          1           0        0.065964    1.961021   -0.000000
      3          1           0       -0.862498    3.263024   -0.000000
      4          8           0        0.066742   -2.770490    0.000000
      5          1           0        0.612000   -3.587925    0.000000
      6          1           0       -0.883344   -3.021175    0.000000
 ---------------------------------------------------------------------

 SCF Done:  E(RHF) =  -152.108182329     A.U. after   10 cycles
 E2 =    -0.5258253317D+00 EUMP2 =    -0.15263400766117D+03
 CCSD(T)
 CCSD(T)= -0.15266121018D+03

 The electronic state is 1-A'.
 Alpha  occ. eigenvalues --  -20.56173 -20.55032  -1.33475  -1.32338  -0.70882
 Alpha  occ. eigenvalues --   -0.69737  -0.56958  -0.55803  -0.50591  -0.49458
 Alpha virt. eigenvalues --    0.13341   0.14832   0.19615   0.21013   0.53589
 Alpha virt. eigenvalues --    0.54840   0.56652   0.57760   0.66911   0.68643
 Alpha virt. eigenvalues --    0.78295   0.79403   0.79577   0.80477   0.82474

 Mulliken charges:
               1
     1  O   -0.512548
     2  H    0.259755
     3  H    0.252706
     4  O   -0.513435
     5  H    0.258351
     6  H    0.255172
 Sum of Mulliken charges =  -0.00000

 Dipole moment (field-independent basis, Debye):
    X=             -2.2893    Y=             -3.0364    Z=              0.0000  Tot=              3.8027
 Quadrupole moment (field-independent basis, Debye-Ang):
   XX=             -9.5599   YY=             -6.5827   ZZ=            -14.7140
   XY=             -4.4732   XZ=              0.0000   YZ=             -0.0000

 Normal termination of Gaussian 16 at Sun Aug 28 04:18:25 2022.
