 Gaussian 16, Revision A.03,
 Gaussian 16:  ES64L-G16RevA.03 25-Dec-2016

 ------------------
 #p CCSD(T)/cc-pVTZ
 ------------------

 ------------
 H2O_H2O_1940
 ------------
 Symbolic Z-matrix:
 Charge =  0 Multiplicity = 1

                         Standard orientation:
 ---------------------------------------------------------------------
 Center     Atomic      Atomic             Coordinates (Angstroms)
 Number     Number       Type             X           Y           Z
 ---------------------------------------------------------------------
      1          8           0        0.044902    1.880556    0.000000
      2          1           0        0.042622    0.897958    0.000000
      3          1           0       -0.883849    2.201379    0.000000
      4          8           0        0.044902   -1.700200    0.000000
      5          1           0        0.860636   -2.247999    0.000000
      6          1           0       -0.737840   -2.294189    0.000000
 ---------------------------------------------------------------------

 SCF Done:  E(RHF) =  -152.112585774     A.U. after   10 cycles
 E2 =    -0.5264754792D+00 EUMP2 =    -0.15263906125351D+03
 CCSD(T)
 CCSD(T)= -0.15266611734D+03

 The electronic state is 1-A'.
 Alpha  occ. eigenvalues --  -20.57421 -20.53586  -1.34672  -1.30954  -0.72049
 Alpha  occ. eigenvalues --   -0.68399  -0.58387  -0.54404  -0.51813  -0.48107
 Alpha virt. eigenvalues --    0.12209   0.17087   0.19132   0.26574   0.51434
 Alpha virt. eigenvalues --    0.54920   0.56408   0.59023   0.69075   0.72382
 Alpha virt. eigenvalues --    0.76040   0.77383   0.80827   0.83393   0.84418

 Mulliken charges:
               1
     1  O   -0.531085
     2  H    0.270163
     3  H    0.248821
     4  O   -0.508067
     5  H    0.262494
     6  H    0.257674
 Sum of Mulliken charges =  -0.00000

 Dipole moment (field-independent basis, Debye):
    X=             -1.5170    Y=             -3.4086    Z=              0.0000  Tot=              3.7309
 Quadrupole moment (field-independent basis, Debye-Ang):
   XX=             -9.1605   YY=             -7.9126   ZZ=            -14.7301
   XY=             -4.0833   XZ=              0.0000   YZ=              0.0000

 Normal termination of Gaussian 16 at Sun Aug 28 02:56:02 2022.
