 Gaussian 16, Revision A.03,
 Gaussian 16:  ES64L-G16RevA.03 25-Dec-2016

 ------------------
 #p CCSD(T)/cc-pVTZ
 ------------------

 -----------
 H2O_H2O_384
 -----------
 Symbolic Z-matrix:
 Charge =  0 Multiplicity = 1

                         Standard orientation:
 ---------------------------------------------------------------------
 Center     Atomic      Atomic             Coordinates (Angstroms)
 Number     Number       Type             X           Y           Z
 ---------------------------------------------------------------------
      1          8           0        0.066841    1.258290    0.000000
      2          1           0        0.064944    0.275691    0.000000
      3          1           0       -0.862035    1.578750    0.000000
      4          8           0        0.066841   -1.085310   -0.000000
      5          1           0        0.611168   -1.903367   -0.000000
      6          1           0       -0.883530   -1.334914   -0.000000
 ---------------------------------------------------------------------

 SCF Done:  E(RHF) =  -152.089908037     A.U. after   11 cycles
 E2 =    -0.5332376785D+00 EUMP2 =    -0.15262314571558D+03
 CCSD(T)
 CCSD(T)= -0.15264933931D+03

 The electronic state is 1-A'.
 Alpha  occ. eigenvalues --  -20.60644 -20.48275  -1.39705  -1.27001  -0.76877
 Alpha  occ. eigenvalues --   -0.71798  -0.57777  -0.56000  -0.48847  -0.43867
 Alpha virt. eigenvalues --    0.10992   0.16821   0.20459   0.33140   0.48252
 Alpha virt. eigenvalues --    0.52990   0.60608   0.63683   0.72051   0.72115
 Alpha virt. eigenvalues --    0.75439   0.79343   0.79363   0.83722   0.84070

 Mulliken charges:
               1
     1  O   -0.613230
     2  H    0.303340
     3  H    0.214956
     4  O   -0.391682
     5  H    0.243296
     6  H    0.243320
 Sum of Mulliken charges =  -0.00000

 Dipole moment (field-independent basis, Debye):
    X=             -2.1062    Y=             -4.3042    Z=             -0.0000  Tot=              4.7919
 Quadrupole moment (field-independent basis, Debye-Ang):
   XX=             -9.5586   YY=             -9.5601   ZZ=            -14.6399
   XY=             -2.8219   XZ=             -0.0000   YZ=             -0.0000

 Normal termination of Gaussian 16 at Fri Aug 26 17:51:22 2022.
