 Gaussian 16, Revision A.03,
 Gaussian 16:  ES64L-G16RevA.03 25-Dec-2016

 ------------------
 #p CCSD(T)/cc-pVTZ
 ------------------

 -----------
 H2O_H2O_446
 -----------
 Symbolic Z-matrix:
 Charge =  0 Multiplicity = 1

                         Standard orientation:
 ---------------------------------------------------------------------
 Center     Atomic      Atomic             Coordinates (Angstroms)
 Number     Number       Type             X           Y           Z
 ---------------------------------------------------------------------
      1          8           0       -0.023413    1.276777    0.000000
      2          1           0       -0.018447    0.294188    0.000000
      3          1           0        0.904457    1.600138    0.000000
      4          8           0       -0.023413   -1.106502    0.000000
      5          1           0       -0.986154   -1.303067    0.000000
      6          1           0        0.474752   -1.953460    0.000000
 ---------------------------------------------------------------------

 SCF Done:  E(RHF) =  -152.094698098     A.U. after   11 cycles
 E2 =    -0.5323221010D+00 EUMP2 =    -0.15262702019922D+03
 CCSD(T)
 CCSD(T)= -0.15265329580D+03

 The electronic state is 1-A'.
 Alpha  occ. eigenvalues --  -20.60337 -20.48504  -1.39191  -1.27126  -0.76700
 Alpha  occ. eigenvalues --   -0.70568  -0.58651  -0.55611  -0.48957  -0.44060
 Alpha virt. eigenvalues --    0.11333   0.17820   0.19787   0.33982   0.47432
 Alpha virt. eigenvalues --    0.53302   0.59243   0.68358   0.69968   0.72145
 Alpha virt. eigenvalues --    0.74914   0.77334   0.79245   0.83835   0.84191

 Mulliken charges:
               1
     1  O   -0.625830
     2  H    0.300127
     3  H    0.234961
     4  O   -0.407068
     5  H    0.260617
     6  H    0.237193
 Sum of Mulliken charges =  -0.00000

 Dipole moment (field-independent basis, Debye):
    X=              0.7522    Y=             -4.1855    Z=              0.0000  Tot=              4.2526
 Quadrupole moment (field-independent basis, Debye-Ang):
   XX=             -9.3075   YY=             -9.4862   ZZ=            -14.6548
   XY=              3.1645   XZ=              0.0000   YZ=              0.0000

 Normal termination of Gaussian 16 at Fri Aug 26 18:19:07 2022.
