 Gaussian 16, Revision A.03,
 Gaussian 16:  ES64L-G16RevA.03 25-Dec-2016

 ------------------
 #p CCSD(T)/cc-pVTZ
 ------------------

 ------------
 H2O_H2O_2901
 ------------
 Symbolic Z-matrix:
 Charge =  0 Multiplicity = 1

                         Standard orientation:
 ---------------------------------------------------------------------
 Center     Atomic      Atomic             Coordinates (Angstroms)
 Number     Number       Type             X           Y           Z
 ---------------------------------------------------------------------
      1          8           0        0.090685   -2.246832    0.000000
      2          1           0        0.090596   -1.264230    0.000000
      3          1           0       -0.838780   -2.565582    0.000000
      4          8           0        0.090685    2.108124    0.000000
      5          1           0        0.154863    3.088627    0.000000
      6          1           0       -0.857636    1.850846    0.000000
 ---------------------------------------------------------------------

 SCF Done:  E(RHF) =  -152.108320460     A.U. after   10 cycles
 E2 =    -0.5261021532D+00 EUMP2 =    -0.15263442261292D+03
 CCSD(T)
 CCSD(T)= -0.15266159803D+03

 The electronic state is 1-A'.
 Alpha  occ. eigenvalues --  -20.56699 -20.55046  -1.33991  -1.32349  -0.71427
 Alpha  occ. eigenvalues --   -0.69726  -0.57466  -0.55801  -0.51100  -0.49464
 Alpha virt. eigenvalues --    0.11590   0.15650   0.19466   0.23308   0.54386
 Alpha virt. eigenvalues --    0.54696   0.56464   0.58126   0.68267   0.69075
 Alpha virt. eigenvalues --    0.77767   0.78509   0.79419   0.80928   0.82732

 Mulliken charges:
               1
     1  O   -0.511592
     2  H    0.260946
     3  H    0.248925
     4  O   -0.507966
     5  H    0.259673
     6  H    0.250015
 Sum of Mulliken charges =   0.00000

 Dipole moment (field-independent basis, Debye):
    X=             -3.0858    Y=              2.4960    Z=              0.0000  Tot=              3.9689
 Quadrupole moment (field-independent basis, Debye-Ang):
   XX=            -10.7146   YY=             -8.9294   ZZ=            -14.7136
   XY=              2.3608   XZ=              0.0000   YZ=              0.0000

 Normal termination of Gaussian 16 at Fri Aug 26 18:12:48 2022.
