 Gaussian 16, Revision A.03,
 Gaussian 16:  ES64L-G16RevA.03 25-Dec-2016

 ------------------
 #p CCSD(T)/cc-pVTZ
 ------------------

 ------------
 H2O_H2O_4471
 ------------
 Symbolic Z-matrix:
 Charge =  0 Multiplicity = 1

                         Standard orientation:
 ---------------------------------------------------------------------
 Center     Atomic      Atomic             Coordinates (Angstroms)
 Number     Number       Type             X           Y           Z
 ---------------------------------------------------------------------
      1          8           0       -0.023166    2.882317    0.000000
      2          1           0       -0.021050    1.899718    0.000000
      3          1           0        0.905638    3.202985    0.000000
      4          8           0       -0.023166   -2.711907    0.000000
      5          1           0       -0.986472   -2.905679    0.000000
      6          1           0        0.472542   -3.560306    0.000000
 ---------------------------------------------------------------------

 SCF Done:  E(RHF) =  -152.108484089     A.U. after   10 cycles
 E2 =    -0.5257991237D+00 EUMP2 =    -0.15263428321242D+03
 CCSD(T)
 CCSD(T)= -0.15266147944D+03

 The electronic state is 1-A'.
 Alpha  occ. eigenvalues --  -20.56185 -20.55001  -1.33487  -1.32309  -0.70892
 Alpha  occ. eigenvalues --   -0.69714  -0.56983  -0.55783  -0.50607  -0.49433
 Alpha virt. eigenvalues --    0.13282   0.14935   0.19557   0.21174   0.53517
 Alpha virt. eigenvalues --    0.54905   0.56670   0.57792   0.66824   0.68718
 Alpha virt. eigenvalues --    0.78279   0.79423   0.79489   0.80514   0.82577

 Mulliken charges:
               1
     1  O   -0.514487
     2  H    0.259920
     3  H    0.254438
     4  O   -0.515042
     5  H    0.257459
     6  H    0.257712
 Sum of Mulliken charges =  -0.00000

 Dipole moment (field-independent basis, Debye):
    X=              0.7954    Y=             -2.9911    Z=              0.0000  Tot=              3.0951
 Quadrupole moment (field-independent basis, Debye-Ang):
   XX=             -9.3621   YY=             -6.8057   ZZ=            -14.7150
   XY=              7.0947   XZ=              0.0000   YZ=              0.0000

 Normal termination of Gaussian 16 at Sun Aug 28 03:12:16 2022.
