 Gaussian 16, Revision A.03,
 Gaussian 16:  ES64L-G16RevA.03 25-Dec-2016

 ------------------
 #p CCSD(T)/cc-pVTZ
 ------------------

 ------------
 H2O_H2O_3029
 ------------
 Symbolic Z-matrix:
 Charge =  0 Multiplicity = 1

                         Standard orientation:
 ---------------------------------------------------------------------
 Center     Atomic      Atomic             Coordinates (Angstroms)
 Number     Number       Type             X           Y           Z
 ---------------------------------------------------------------------
      1          8           0        0.082804   -2.305279    0.000000
      2          1           0        0.082418   -1.322677    0.000000
      3          1           0       -0.846563   -2.624311    0.000000
      4          8           0        0.082804    2.150762    0.000000
      5          1           0        0.336747    3.099982    0.000000
      6          1           0       -0.897468    2.083138    0.000000
 ---------------------------------------------------------------------

 SCF Done:  E(RHF) =  -152.108756200     A.U. after   10 cycles
 E2 =    -0.5260219878D+00 EUMP2 =    -0.15263477818824D+03
 CCSD(T)
 CCSD(T)= -0.15266194482D+03

 The electronic state is 1-A'.
 Alpha  occ. eigenvalues --  -20.56640 -20.54844  -1.33929  -1.32153  -0.71350
 Alpha  occ. eigenvalues --   -0.69536  -0.57422  -0.55616  -0.51044  -0.49274
 Alpha virt. eigenvalues --    0.11964   0.15679   0.19405   0.22763   0.53999
 Alpha virt. eigenvalues --    0.54932   0.56393   0.58308   0.67940   0.69192
 Alpha virt. eigenvalues --    0.77848   0.78659   0.79585   0.80773   0.82808

 Mulliken charges:
               1
     1  O   -0.513484
     2  H    0.261906
     3  H    0.249553
     4  O   -0.510380
     5  H    0.259819
     6  H    0.252587
 Sum of Mulliken charges =   0.00000

 Dipole moment (field-independent basis, Debye):
    X=             -2.8213    Y=              2.7752    Z=              0.0000  Tot=              3.9574
 Quadrupole moment (field-independent basis, Debye-Ang):
   XX=            -10.2548   YY=             -8.1973   ZZ=            -14.7156
   XY=              2.9881   XZ=              0.0000   YZ=              0.0000

 Normal termination of Gaussian 16 at Fri Aug 26 19:21:33 2022.
