 Gaussian 16, Revision A.03,
 Gaussian 16:  ES64L-G16RevA.03 25-Dec-2016

 ------------------
 #p CCSD(T)/cc-pVTZ
 ------------------

 ------------
 H2O_H2O_2504
 ------------
 Symbolic Z-matrix:
 Charge =  0 Multiplicity = 1

                         Standard orientation:
 ---------------------------------------------------------------------
 Center     Atomic      Atomic             Coordinates (Angstroms)
 Number     Number       Type             X           Y           Z
 ---------------------------------------------------------------------
      1          8           0        0.082807   -2.095865    0.000000
      2          1           0        0.082381   -1.113263    0.000000
      3          1           0       -0.846547   -2.414935    0.000000
      4          8           0        0.082807    1.941355    0.000000
      5          1           0        0.336712    2.890585    0.000000
      6          1           0       -0.897462    1.873691    0.000000
 ---------------------------------------------------------------------

 SCF Done:  E(RHF) =  -152.109419157     A.U. after   10 cycles
 E2 =    -0.5262258725D+00 EUMP2 =    -0.15263564502966D+03
 CCSD(T)
 CCSD(T)= -0.15266278169D+03

 The electronic state is 1-A'.
 Alpha  occ. eigenvalues --  -20.56931 -20.54635  -1.34212  -1.31950  -0.71646
 Alpha  occ. eigenvalues --   -0.69321  -0.57730  -0.55408  -0.51328  -0.49074
 Alpha virt. eigenvalues --    0.11812   0.16042   0.19585   0.23930   0.53594
 Alpha virt. eigenvalues --    0.55468   0.56385   0.58172   0.68683   0.70688
 Alpha virt. eigenvalues --    0.77362   0.79221   0.79826   0.80670   0.83128

 Mulliken charges:
               1
     1  O   -0.516084
     2  H    0.264214
     3  H    0.247610
     4  O   -0.506705
     5  H    0.259351
     6  H    0.251614
 Sum of Mulliken charges =   0.00000

 Dipole moment (field-independent basis, Debye):
    X=             -2.8101    Y=              2.8229    Z=              0.0000  Tot=              3.9832
 Quadrupole moment (field-independent basis, Debye-Ang):
   XX=            -10.2631   YY=             -8.3375   ZZ=            -14.7174
   XY=              2.9118   XZ=              0.0000   YZ=              0.0000

 Normal termination of Gaussian 16 at Fri Aug 26 15:13:27 2022.
