 Gaussian 16, Revision A.03,
 Gaussian 16:  ES64L-G16RevA.03 25-Dec-2016

 ------------------
 #p CCSD(T)/cc-pVTZ
 ------------------

 ------------
 H2O_H2O_2240
 ------------
 Symbolic Z-matrix:
 Charge =  0 Multiplicity = 1

                         Standard orientation:
 ---------------------------------------------------------------------
 Center     Atomic      Atomic             Coordinates (Angstroms)
 Number     Number       Type             X           Y           Z
 ---------------------------------------------------------------------
      1          8           0        0.044889    2.000226   -0.000000
      2          1           0        0.042752    1.017627   -0.000000
      3          1           0       -0.883909    2.320913   -0.000000
      4          8           0        0.044889   -1.819857    0.000000
      5          1           0        0.860704   -2.367536    0.000000
      6          1           0       -0.737765   -2.413959    0.000000
 ---------------------------------------------------------------------

 SCF Done:  E(RHF) =  -152.111653839     A.U. after   10 cycles
 E2 =    -0.5262295794D+00 EUMP2 =    -0.15263788341814D+03
 CCSD(T)
 CCSD(T)= -0.15266496828D+03

 The electronic state is 1-A'.
 Alpha  occ. eigenvalues --  -20.57144 -20.53901  -1.34398  -1.31246  -0.71786
 Alpha  occ. eigenvalues --   -0.68653  -0.58041  -0.54723  -0.51537  -0.48394
 Alpha virt. eigenvalues --    0.12285   0.16737   0.19239   0.25171   0.52194
 Alpha virt. eigenvalues --    0.55328   0.56413   0.58971   0.69047   0.71813
 Alpha virt. eigenvalues --    0.76895   0.78120   0.80478   0.82966   0.83575

 Mulliken charges:
               1
     1  O   -0.526490
     2  H    0.267942
     3  H    0.249938
     4  O   -0.509521
     5  H    0.261145
     6  H    0.256986
 Sum of Mulliken charges =  -0.00000

 Dipole moment (field-independent basis, Debye):
    X=             -1.5218    Y=             -3.3487    Z=              0.0000  Tot=              3.6783
 Quadrupole moment (field-independent basis, Debye-Ang):
   XX=             -9.1590   YY=             -7.6936   ZZ=            -14.7260
   XY=             -4.2847   XZ=              0.0000   YZ=             -0.0000

 Normal termination of Gaussian 16 at Sun Aug 28 05:40:02 2022.
