 Gaussian 16, Revision A.03,
 Gaussian 16:  ES64L-G16RevA.03 25-Dec-2016

 ------------------
 #p CCSD(T)/cc-pVTZ
 ------------------

 ------------
 H2O_H2O_2905
 ------------
 Symbolic Z-matrix:
 Charge =  0 Multiplicity = 1

                         Standard orientation:
 ---------------------------------------------------------------------
 Center     Atomic      Atomic             Coordinates (Angstroms)
 Number     Number       Type             X           Y           Z
 ---------------------------------------------------------------------
      1          8           0        0.079853    2.257886    0.000000
      2          1           0        0.079343    1.275285    0.000000
      3          1           0       -0.849474    2.577035    0.000000
      4          8           0        0.079853   -2.098828   -0.000000
      5          1           0        0.395217   -3.029446   -0.000000
      6          1           0       -0.902742   -2.095338   -0.000000
 ---------------------------------------------------------------------

 SCF Done:  E(RHF) =  -152.109058666     A.U. after   10 cycles
 E2 =    -0.5260457849D+00 EUMP2 =    -0.15263510445095D+03
 CCSD(T)
 CCSD(T)= -0.15266226066D+03

 The electronic state is 1-A'.
 Alpha  occ. eigenvalues --  -20.56700 -20.54731  -1.33986  -1.32043  -0.71406
 Alpha  occ. eigenvalues --   -0.69424  -0.57491  -0.55509  -0.51104  -0.49166
 Alpha virt. eigenvalues --    0.12009   0.15802   0.19443   0.22933   0.53951
 Alpha virt. eigenvalues --    0.55063   0.56352   0.58417   0.68318   0.69289
 Alpha virt. eigenvalues --    0.77772   0.78808   0.79690   0.80574   0.82916

 Mulliken charges:
               1
     1  O   -0.514764
     2  H    0.262848
     3  H    0.249283
     4  O   -0.510219
     5  H    0.259797
     6  H    0.253055
 Sum of Mulliken charges =  -0.00000

 Dipole moment (field-independent basis, Debye):
    X=             -2.7189    Y=             -2.8679    Z=             -0.0000  Tot=              3.9518
 Quadrupole moment (field-independent basis, Debye-Ang):
   XX=            -10.1049   YY=             -8.0430   ZZ=            -14.7166
   XY=             -3.1608   XZ=             -0.0000   YZ=             -0.0000

 Normal termination of Gaussian 16 at Fri Aug 26 18:14:51 2022.
