 Gaussian 16, Revision A.03,
 Gaussian 16:  ES64L-G16RevA.03 25-Dec-2016

 ------------------
 #p CCSD(T)/cc-pVTZ
 ------------------

 ------------
 H2O_H2O_2153
 ------------
 Symbolic Z-matrix:
 Charge =  0 Multiplicity = 1

                         Standard orientation:
 ---------------------------------------------------------------------
 Center     Atomic      Atomic             Coordinates (Angstroms)
 Number     Number       Type             X           Y           Z
 ---------------------------------------------------------------------
      1          8           0        0.085605   -1.953584    0.000000
      2          1           0        0.085273   -0.970982    0.000000
      3          1           0       -0.843780   -2.272564    0.000000
      4          8           0        0.085605    1.803997    0.000000
      5          1           0        0.276976    2.767783    0.000000
      6          1           0       -0.888152    1.672459    0.000000
 ---------------------------------------------------------------------

 SCF Done:  E(RHF) =  -152.109707271     A.U. after   10 cycles
 E2 =    -0.5264909984D+00 EUMP2 =    -0.15263619826946D+03
 CCSD(T)
 CCSD(T)= -0.15266331705D+03

 The electronic state is 1-A'.
 Alpha  occ. eigenvalues --  -20.57188 -20.54546  -1.34471  -1.31866  -0.71937
 Alpha  occ. eigenvalues --   -0.69222  -0.58003  -0.55307  -0.51580  -0.48988
 Alpha virt. eigenvalues --    0.11686   0.16210   0.19791   0.25047   0.52457
 Alpha virt. eigenvalues --    0.55775   0.56574   0.57721   0.68588   0.72765
 Alpha virt. eigenvalues --    0.76616   0.79163   0.80016   0.81691   0.83313

 Mulliken charges:
               1
     1  O   -0.517294
     2  H    0.265620
     3  H    0.245645
     4  O   -0.502780
     5  H    0.258990
     6  H    0.249819
 Sum of Mulliken charges =  -0.00000

 Dipole moment (field-independent basis, Debye):
    X=             -2.8936    Y=              2.7760    Z=              0.0000  Tot=              4.0099
 Quadrupole moment (field-independent basis, Debye-Ang):
   XX=            -10.4257   YY=             -8.5872   ZZ=            -14.7181
   XY=              2.6901   XZ=              0.0000   YZ=              0.0000

 Normal termination of Gaussian 16 at Sun Aug 28 04:52:23 2022.
