 Gaussian 16, Revision A.03,
 Gaussian 16:  ES64L-G16RevA.03 25-Dec-2016

 ------------------
 #p CCSD(T)/cc-pVTZ
 ------------------

 ------------
 H2O_H2O_4190
 ------------
 Symbolic Z-matrix:
 Charge =  0 Multiplicity = 1

                         Standard orientation:
 ---------------------------------------------------------------------
 Center     Atomic      Atomic             Coordinates (Angstroms)
 Number     Number       Type             X           Y           Z
 ---------------------------------------------------------------------
      1          8           0        0.044832    2.778063   -0.000000
      2          1           0        0.043313    1.795463   -0.000000
      3          1           0       -0.884167    3.098166    0.000000
      4          8           0        0.044832   -2.597638   -0.000000
      5          1           0        0.860991   -3.144804   -0.000000
      6          1           0       -0.737448   -3.192233    0.000000
 ---------------------------------------------------------------------

 SCF Done:  E(RHF) =  -152.108622602     A.U. after   10 cycles
 E2 =    -0.5258119516D+00 EUMP2 =    -0.15263443455359D+03
 CCSD(T)
 CCSD(T)= -0.15266162476D+03

 The electronic state is 1-A'.
 Alpha  occ. eigenvalues --  -20.56247 -20.54864  -1.33546  -1.32173  -0.70949
 Alpha  occ. eigenvalues --   -0.69574  -0.57047  -0.55648  -0.50666  -0.49298
 Alpha virt. eigenvalues --    0.13204   0.15094   0.19667   0.21200   0.53601
 Alpha virt. eigenvalues --    0.54886   0.56621   0.57816   0.66701   0.68975
 Alpha virt. eigenvalues --    0.78224   0.79553   0.79609   0.79771   0.82825

 Mulliken charges:
               1
     1  O   -0.514723
     2  H    0.261213
     3  H    0.253213
     4  O   -0.515331
     5  H    0.258692
     6  H    0.256936
 Sum of Mulliken charges =  -0.00000

 Dipole moment (field-independent basis, Debye):
    X=             -1.5362    Y=             -3.1773    Z=              0.0000  Tot=              3.5292
 Quadrupole moment (field-independent basis, Debye-Ang):
   XX=             -9.1568   YY=             -6.4170   ZZ=            -14.7155
   XY=             -5.5819   XZ=              0.0000   YZ=              0.0000

 Normal termination of Gaussian 16 at Sun Aug 28 00:31:52 2022.
