 Gaussian 16, Revision A.03,
 Gaussian 16:  ES64L-G16RevA.03 25-Dec-2016

 ------------------
 #p CCSD(T)/cc-pVTZ
 ------------------

 ------------
 H2O_H2O_2777
 ------------
 Symbolic Z-matrix:
 Charge =  0 Multiplicity = 1

                         Standard orientation:
 ---------------------------------------------------------------------
 Center     Atomic      Atomic             Coordinates (Angstroms)
 Number     Number       Type             X           Y           Z
 ---------------------------------------------------------------------
      1          8           0        0.088232   -2.200019    0.000000
      2          1           0        0.088044   -1.217418    0.000000
      3          1           0       -0.841199   -2.518864    0.000000
      4          8           0        0.088232    2.055701    0.000000
      5          1           0        0.216301    3.029922    0.000000
      6          1           0       -0.874866    1.860900    0.000000
 ---------------------------------------------------------------------

 SCF Done:  E(RHF) =  -152.108638009     A.U. after   10 cycles
 E2 =    -0.5261327423D+00 EUMP2 =    -0.15263477075131D+03
 CCSD(T)
 CCSD(T)= -0.15266193451D+03

 The electronic state is 1-A'.
 Alpha  occ. eigenvalues --  -20.56764 -20.54922  -1.34053  -1.32228  -0.71488
 Alpha  occ. eigenvalues --   -0.69602  -0.57539  -0.55683  -0.51164  -0.49345
 Alpha virt. eigenvalues --    0.11671   0.15766   0.19539   0.23395   0.54220
 Alpha virt. eigenvalues --    0.54964   0.56462   0.58166   0.68509   0.69424
 Alpha virt. eigenvalues --    0.77671   0.78682   0.79539   0.80778   0.82847

 Mulliken charges:
               1
     1  O   -0.512909
     2  H    0.262009
     3  H    0.248526
     4  O   -0.507716
     5  H    0.259562
     6  H    0.250528
 Sum of Mulliken charges =  -0.00000

 Dipole moment (field-independent basis, Debye):
    X=             -2.9999    Y=              2.6080    Z=              0.0000  Tot=              3.9751
 Quadrupole moment (field-independent basis, Debye-Ang):
   XX=            -10.5660   YY=             -8.6868   ZZ=            -14.7147
   XY=              2.5603   XZ=              0.0000   YZ=              0.0000

 Normal termination of Gaussian 16 at Fri Aug 26 17:14:45 2022.
