 Gaussian 16, Revision A.03,
 Gaussian 16:  ES64L-G16RevA.03 25-Dec-2016

 ------------------
 #p CCSD(T)/cc-pVTZ
 ------------------

 ------------
 H2O_H2O_2803
 ------------
 Symbolic Z-matrix:
 Charge =  0 Multiplicity = 1

                         Standard orientation:
 ---------------------------------------------------------------------
 Center     Atomic      Atomic             Coordinates (Angstroms)
 Number     Number       Type             X           Y           Z
 ---------------------------------------------------------------------
      1          8           0        0.085602   -2.212857    0.000000
      2          1           0        0.085310   -1.230256    0.000000
      3          1           0       -0.843796   -2.531800    0.000000
      4          8           0        0.085602    2.063263    0.000000
      5          1           0        0.277012    3.027041    0.000000
      6          1           0       -0.888161    1.931765    0.000000
 ---------------------------------------------------------------------

 SCF Done:  E(RHF) =  -152.108816427     A.U. after   10 cycles
 E2 =    -0.5261073459D+00 EUMP2 =    -0.15263492377279D+03
 CCSD(T)
 CCSD(T)= -0.15266208349D+03

 The electronic state is 1-A'.
 Alpha  occ. eigenvalues --  -20.56751 -20.54844  -1.34038  -1.32152  -0.71469
 Alpha  occ. eigenvalues --   -0.69529  -0.57532  -0.55611  -0.51152  -0.49272
 Alpha virt. eigenvalues --    0.11783   0.15792   0.19503   0.23257   0.54202
 Alpha virt. eigenvalues --    0.54947   0.56428   0.58257   0.68513   0.69374
 Alpha virt. eigenvalues --    0.77695   0.78752   0.79602   0.80766   0.82855

 Mulliken charges:
               1
     1  O   -0.513661
     2  H    0.262388
     3  H    0.248702
     4  O   -0.508470
     5  H    0.259600
     6  H    0.251442
 Sum of Mulliken charges =  -0.00000

 Dipole moment (field-independent basis, Debye):
    X=             -2.9116    Y=              2.7028    Z=              0.0000  Tot=              3.9727
 Quadrupole moment (field-independent basis, Debye-Ang):
   XX=            -10.4119   YY=             -8.4592   ZZ=            -14.7155
   XY=              2.7620   XZ=              0.0000   YZ=              0.0000

 Normal termination of Gaussian 16 at Fri Aug 26 17:25:49 2022.
