 Gaussian 16, Revision A.03,
 Gaussian 16:  ES64L-G16RevA.03 25-Dec-2016

 ------------------
 #p CCSD(T)/cc-pVTZ
 ------------------

 ------------
 H2O_H2O_4042
 ------------
 Symbolic Z-matrix:
 Charge =  0 Multiplicity = 1

                         Standard orientation:
 ---------------------------------------------------------------------
 Center     Atomic      Atomic             Coordinates (Angstroms)
 Number     Number       Type             X           Y           Z
 ---------------------------------------------------------------------
      1          8           0        0.037420    2.717451   -0.000000
      2          1           0        0.035627    1.734851   -0.000000
      3          1           0       -0.891490    3.037813   -0.000000
      4          8           0        0.037420   -2.538465    0.000000
      5          1           0        0.917895   -2.974666    0.000000
      6          1           0       -0.660751   -3.229887    0.000000
 ---------------------------------------------------------------------

 SCF Done:  E(RHF) =  -152.108761538     A.U. after   10 cycles
 E2 =    -0.5258122917D+00 EUMP2 =    -0.15263457383004D+03
 CCSD(T)
 CCSD(T)= -0.15266175960D+03

 The electronic state is 1-A'.
 Alpha  occ. eigenvalues --  -20.56279 -20.54832  -1.33577  -1.32142  -0.70980
 Alpha  occ. eigenvalues --   -0.69544  -0.57083  -0.55620  -0.50698  -0.49269
 Alpha virt. eigenvalues --    0.13106   0.15182   0.19625   0.21320   0.53533
 Alpha virt. eigenvalues --    0.54939   0.56604   0.57831   0.66677   0.69064
 Alpha virt. eigenvalues --    0.78194   0.79348   0.79579   0.79881   0.82867

 Mulliken charges:
               1
     1  O   -0.515387
     2  H    0.261467
     3  H    0.253500
     4  O   -0.515769
     5  H    0.258680
     6  H    0.257508
 Sum of Mulliken charges =  -0.00000

 Dipole moment (field-independent basis, Debye):
    X=             -1.2819    Y=             -3.1574    Z=              0.0000  Tot=              3.4077
 Quadrupole moment (field-independent basis, Debye-Ang):
   XX=             -9.1592   YY=             -6.5832   ZZ=            -14.7160
   XY=             -5.8765   XZ=              0.0000   YZ=             -0.0000

 Normal termination of Gaussian 16 at Sat Aug 27 01:10:35 2022.
