 Gaussian 16, Revision A.03,
 Gaussian 16:  ES64L-G16RevA.03 25-Dec-2016

 ------------------
 #p CCSD(T)/cc-pVTZ
 ------------------

 ------------
 H2O_H2O_2652
 ------------
 Symbolic Z-matrix:
 Charge =  0 Multiplicity = 1

                         Standard orientation:
 ---------------------------------------------------------------------
 Center     Atomic      Atomic             Coordinates (Angstroms)
 Number     Number       Type             X           Y           Z
 ---------------------------------------------------------------------
      1          8           0        0.088233   -2.150159    0.000000
      2          1           0        0.088040   -1.167558    0.000000
      3          1           0       -0.841198   -2.469008    0.000000
      4          8           0        0.088233    2.005843    0.000000
      5          1           0        0.216297    2.980063    0.000000
      6          1           0       -0.874865    1.811036    0.000000
 ---------------------------------------------------------------------

 SCF Done:  E(RHF) =  -152.108767365     A.U. after   10 cycles
 E2 =    -0.5261868249D+00 EUMP2 =    -0.15263495419025D+03
 CCSD(T)
 CCSD(T)= -0.15266211132D+03

 The electronic state is 1-A'.
 Alpha  occ. eigenvalues --  -20.56834 -20.54880  -1.34121  -1.32187  -0.71562
 Alpha  occ. eigenvalues --   -0.69558  -0.57612  -0.55641  -0.51232  -0.49305
 Alpha virt. eigenvalues --    0.11646   0.15843   0.19616   0.23647   0.53991
 Alpha virt. eigenvalues --    0.55234   0.56477   0.58092   0.68564   0.69965
 Alpha virt. eigenvalues --    0.77547   0.78837   0.79593   0.80610   0.82966

 Mulliken charges:
               1
     1  O   -0.513441
     2  H    0.262588
     3  H    0.248031
     4  O   -0.506764
     5  H    0.259430
     6  H    0.250157
 Sum of Mulliken charges =   0.00000

 Dipole moment (field-independent basis, Debye):
    X=             -2.9968    Y=              2.6187    Z=              0.0000  Tot=              3.9798
 Quadrupole moment (field-independent basis, Debye-Ang):
   XX=            -10.5683   YY=             -8.7006   ZZ=            -14.7150
   XY=              2.5513   XZ=              0.0000   YZ=              0.0000

 Normal termination of Gaussian 16 at Fri Aug 26 16:19:09 2022.
