 Gaussian 16, Revision A.03,
 Gaussian 16:  ES64L-G16RevA.03 25-Dec-2016

 ------------------
 #p CCSD(T)/cc-pVTZ
 ------------------

 ------------
 H2O_H2O_4367
 ------------
 Symbolic Z-matrix:
 Charge =  0 Multiplicity = 1

                         Standard orientation:
 ---------------------------------------------------------------------
 Center     Atomic      Atomic             Coordinates (Angstroms)
 Number     Number       Type             X           Y           Z
 ---------------------------------------------------------------------
      1          8           0        0.037412    2.847089   -0.000000
      2          1           0        0.035704    1.864489   -0.000000
      3          1           0       -0.891525    3.167371   -0.000000
      4          8           0        0.037412   -2.668097    0.000000
      5          1           0        0.917924   -3.104221    0.000000
      6          1           0       -0.660699   -3.359578    0.000000
 ---------------------------------------------------------------------

 SCF Done:  E(RHF) =  -152.108546340     A.U. after   10 cycles
 E2 =    -0.5258038290D+00 EUMP2 =    -0.15263435016890D+03
 CCSD(T)
 CCSD(T)= -0.15266154380D+03

 The electronic state is 1-A'.
 Alpha  occ. eigenvalues --  -20.56208 -20.54916  -1.33508  -1.32224  -0.70912
 Alpha  occ. eigenvalues --   -0.69626  -0.57007  -0.55698  -0.50628  -0.49349
 Alpha virt. eigenvalues --    0.13296   0.15006   0.19672   0.21126   0.53613
 Alpha virt. eigenvalues --    0.54880   0.56653   0.57809   0.66766   0.68844
 Alpha virt. eigenvalues --    0.78259   0.79505   0.79567   0.80089   0.82747

 Mulliken charges:
               1
     1  O   -0.514566
     2  H    0.260710
     3  H    0.253669
     4  O   -0.515200
     5  H    0.258209
     6  H    0.257178
 Sum of Mulliken charges =   0.00000

 Dipole moment (field-independent basis, Debye):
    X=             -1.2829    Y=             -3.1458    Z=              0.0000  Tot=              3.3973
 Quadrupole moment (field-independent basis, Debye-Ang):
   XX=             -9.1595   YY=             -6.3788   ZZ=            -14.7153
   XY=             -6.1252   XZ=              0.0000   YZ=              0.0000

 Normal termination of Gaussian 16 at Sun Aug 28 02:17:44 2022.
