 Gaussian 16, Revision A.03,
 Gaussian 16:  ES64L-G16RevA.03 25-Dec-2016

 ------------------
 #p CCSD(T)/cc-pVTZ
 ------------------

 ------------
 H2O_H2O_4017
 ------------
 Symbolic Z-matrix:
 Charge =  0 Multiplicity = 1

                         Standard orientation:
 ---------------------------------------------------------------------
 Center     Atomic      Atomic             Coordinates (Angstroms)
 Number     Number       Type             X           Y           Z
 ---------------------------------------------------------------------
      1          8           0        0.037421    2.707479    0.000000
      2          1           0        0.035621    1.724879    0.000000
      3          1           0       -0.891487    3.027847    0.000000
      4          8           0        0.037421   -2.528493   -0.000000
      5          1           0        0.917891   -2.964700   -0.000000
      6          1           0       -0.660755   -3.219910   -0.000000
 ---------------------------------------------------------------------

 SCF Done:  E(RHF) =  -152.108780567     A.U. after   10 cycles
 E2 =    -0.5258132995D+00 EUMP2 =    -0.15263459386624D+03
 CCSD(T)
 CCSD(T)= -0.15266177892D+03

 The electronic state is 1-A'.
 Alpha  occ. eigenvalues --  -20.56285 -20.54825  -1.33583  -1.32135  -0.70986
 Alpha  occ. eigenvalues --   -0.69537  -0.57090  -0.55613  -0.50704  -0.49262
 Alpha virt. eigenvalues --    0.13090   0.15196   0.19621   0.21338   0.53527
 Alpha virt. eigenvalues --    0.54945   0.56600   0.57834   0.66677   0.69080
 Alpha virt. eigenvalues --    0.78188   0.79328   0.79585   0.79869   0.82875

 Mulliken charges:
               1
     1  O   -0.515456
     2  H    0.261526
     3  H    0.253485
     4  O   -0.515802
     5  H    0.258716
     6  H    0.257531
 Sum of Mulliken charges =  -0.00000

 Dipole moment (field-independent basis, Debye):
    X=             -1.2819    Y=             -3.1584    Z=             -0.0000  Tot=              3.4086
 Quadrupole moment (field-independent basis, Debye-Ang):
   XX=             -9.1592   YY=             -6.5988   ZZ=            -14.7161
   XY=             -5.8574   XZ=             -0.0000   YZ=              0.0000

 CCSD(T)=-152.6617789\RMSD=7.082e-09\PG=CS [SG(H4O2)]\\@
 Normal termination of Gaussian 16 at Sat Aug 27 01:01:21 2022.
