 Gaussian 16, Revision A.03,
 Gaussian 16:  ES64L-G16RevA.03 25-Dec-2016

 ------------------
 #p CCSD(T)/cc-pVTZ
 ------------------

 ------------
 H2O_H2O_4907
 ------------
 Symbolic Z-matrix:
 Charge =  0 Multiplicity = 1

                         Standard orientation:
 ---------------------------------------------------------------------
 Center     Atomic      Atomic             Coordinates (Angstroms)
 Number     Number       Type             X           Y           Z
 ---------------------------------------------------------------------
      1          8           0        0.073521    3.059936   -0.000000
      2          1           0        0.072967    2.077335   -0.000000
      3          1           0       -0.855792    3.379126    0.000000
      4          8           0        0.073521   -2.892968   -0.000000
      5          1           0        0.507618   -3.774481   -0.000000
      6          1           0       -0.901129   -3.017720    0.000000
 ---------------------------------------------------------------------

 SCF Done:  E(RHF) =  -152.107990809     A.U. after   10 cycles
 E2 =    -0.5258318183D+00 EUMP2 =    -0.15263382262715D+03
 CCSD(T)
 CCSD(T)= -0.15266103032D+03

 The electronic state is 1-A'.
 Alpha  occ. eigenvalues --  -20.56130 -20.55132  -1.33432  -1.32436  -0.70841
 Alpha  occ. eigenvalues --   -0.69836  -0.56907  -0.55897  -0.50547  -0.49554
 Alpha virt. eigenvalues --    0.13427   0.14685   0.19584   0.20916   0.53625
 Alpha virt. eigenvalues --    0.54770   0.56678   0.57690   0.67073   0.68444
 Alpha virt. eigenvalues --    0.78338   0.79311   0.79698   0.80683   0.82026

 Mulliken charges:
               1
     1  O   -0.511639
     2  H    0.258833
     3  H    0.252774
     4  O   -0.512453
     5  H    0.257910
     6  H    0.254576
 Sum of Mulliken charges =  -0.00000

 Dipole moment (field-independent basis, Debye):
    X=             -2.5236    Y=             -2.9219    Z=              0.0000  Tot=              3.8609
 Quadrupole moment (field-independent basis, Debye-Ang):
   XX=             -9.8083   YY=             -6.8251   ZZ=            -14.7133
   XY=             -4.0637   XZ=             -0.0000   YZ=              0.0000

 Normal termination of Gaussian 16 at Sun Aug 28 06:48:50 2022.
