 Gaussian 16, Revision A.03,
 Gaussian 16:  ES64L-G16RevA.03 25-Dec-2016

 ------------------
 #p CCSD(T)/cc-pVTZ
 ------------------

 ------------
 H2O_H2O_4479
 ------------
 Symbolic Z-matrix:
 Charge =  0 Multiplicity = 1

                         Standard orientation:
 ---------------------------------------------------------------------
 Center     Atomic      Atomic             Coordinates (Angstroms)
 Number     Number       Type             X           Y           Z
 ---------------------------------------------------------------------
      1          8           0        0.082798    2.883657   -0.000000
      2          1           0        0.082491    1.901056   -0.000000
      3          1           0       -0.846595    3.202614   -0.000000
      4          8           0        0.082798   -2.729127    0.000000
      5          1           0        0.336817   -3.678327    0.000000
      6          1           0       -0.897480   -2.661583    0.000000
 ---------------------------------------------------------------------

 SCF Done:  E(RHF) =  -152.107927342     A.U. after   10 cycles
 E2 =    -0.5258530712D+00 EUMP2 =    -0.15263378041311D+03
 CCSD(T)
 CCSD(T)= -0.15266098794D+03

 The electronic state is 1-A'.
 Alpha  occ. eigenvalues --  -20.56205 -20.55168  -1.33507  -1.32471  -0.70919
 Alpha  occ. eigenvalues --   -0.69868  -0.56978  -0.55929  -0.50620  -0.49587
 Alpha virt. eigenvalues --    0.13041   0.14803   0.19276   0.21295   0.53356
 Alpha virt. eigenvalues --    0.54866   0.56586   0.57736   0.66879   0.68595
 Alpha virt. eigenvalues --    0.78269   0.79279   0.79505   0.80918   0.82176

 Mulliken charges:
               1
     1  O   -0.511041
     2  H    0.258732
     3  H    0.252214
     4  O   -0.512061
     5  H    0.258465
     6  H    0.253690
 Sum of Mulliken charges =  -0.00000

 Dipole moment (field-independent basis, Debye):
    X=             -2.8391    Y=             -2.7124    Z=              0.0000  Tot=              3.9266
 Quadrupole moment (field-independent basis, Debye-Ang):
   XX=            -10.2444   YY=             -7.8046   ZZ=            -14.7130
   XY=             -3.1971   XZ=              0.0000   YZ=             -0.0000

 Normal termination of Gaussian 16 at Sun Aug 28 03:15:10 2022.
