 Gaussian 16, Revision A.03,
 Gaussian 16:  ES64L-G16RevA.03 25-Dec-2016

 ------------------
 #p CCSD(T)/cc-pVTZ
 ------------------

 ------------
 H2O_H2O_3016
 ------------
 Symbolic Z-matrix:
 Charge =  0 Multiplicity = 1

                         Standard orientation:
 ---------------------------------------------------------------------
 Center     Atomic      Atomic             Coordinates (Angstroms)
 Number     Number       Type             X           Y           Z
 ---------------------------------------------------------------------
      1          8           0        0.041144    2.309111    0.000000
      2          1           0        0.039162    1.326512    0.000000
      3          1           0       -0.887704    2.629652   -0.000000
      4          8           0        0.041144   -2.129190    0.000000
      5          1           0        0.891109   -2.622206    0.000000
      6          1           0       -0.700876   -2.773326   -0.000000
 ---------------------------------------------------------------------

 SCF Done:  E(RHF) =  -152.109929936     A.U. after   10 cycles
 E2 =    -0.5259278357D+00 EUMP2 =    -0.15263585777136D+03
 CCSD(T)
 CCSD(T)= -0.15266299895D+03

 The electronic state is 1-A'.
 Alpha  occ. eigenvalues --  -20.56641 -20.54435  -1.33920  -1.31756  -0.71319
 Alpha  occ. eigenvalues --   -0.69152  -0.57467  -0.55245  -0.51050  -0.48892
 Alpha virt. eigenvalues --    0.12524   0.15948   0.19451   0.22679   0.53191
 Alpha virt. eigenvalues --    0.55459   0.56387   0.58519   0.68253   0.69331
 Alpha virt. eigenvalues --    0.77844   0.79079   0.79414   0.79935   0.83261

 Mulliken charges:
               1
     1  O   -0.519572
     2  H    0.264433
     3  H    0.252184
     4  O   -0.514577
     5  H    0.260026
     6  H    0.257505
 Sum of Mulliken charges =  -0.00000

 Dipole moment (field-independent basis, Debye):
    X=             -1.4032    Y=             -3.2398    Z=             -0.0000  Tot=              3.5306
 Quadrupole moment (field-independent basis, Debye-Ang):
   XX=             -9.1492   YY=             -7.1889   ZZ=            -14.7201
   XY=             -4.9459   XZ=              0.0000   YZ=             -0.0000

 Normal termination of Gaussian 16 at Fri Aug 26 19:16:27 2022.
