 Gaussian 16, Revision A.03,
 Gaussian 16:  ES64L-G16RevA.03 25-Dec-2016

 ------------------
 #p CCSD(T)/cc-pVTZ
 ------------------

 -----------
 H2O_H2O_780
 -----------
 Symbolic Z-matrix:
 Charge =  0 Multiplicity = 1

                         Standard orientation:
 ---------------------------------------------------------------------
 Center     Atomic      Atomic             Coordinates (Angstroms)
 Number     Number       Type             X           Y           Z
 ---------------------------------------------------------------------
      1          8           0        0.079880   -1.410245    0.000000
      2          1           0        0.079045   -0.427644    0.000000
      3          1           0       -0.849342   -1.729702    0.000000
      4          8           0        0.079880    1.251240    0.000000
      5          1           0        0.394936    2.181964    0.000000
      6          1           0       -0.902714    1.247426    0.000000
 ---------------------------------------------------------------------

 SCF Done:  E(RHF) =  -152.106520315     A.U. after   10 cycles
 E2 =    -0.5304012373D+00 EUMP2 =    -0.15263692155178D+03
 CCSD(T)
 CCSD(T)= -0.15266367007D+03

 The electronic state is 1-A'.
 Alpha  occ. eigenvalues --  -20.59291 -20.51676  -1.37173  -1.29480  -0.75031
 Alpha  occ. eigenvalues --   -0.68368  -0.59662  -0.54008  -0.52359  -0.46519
 Alpha virt. eigenvalues --    0.11419   0.16792   0.20153   0.32220   0.48214
 Alpha virt. eigenvalues --    0.53643   0.58866   0.61637   0.69696   0.72078
 Alpha virt. eigenvalues --    0.74289   0.77634   0.80198   0.83027   0.83745

 Mulliken charges:
               1
     1  O   -0.563373
     2  H    0.295380
     3  H    0.227127
     4  O   -0.436162
     5  H    0.237350
     6  H    0.239678
 Sum of Mulliken charges =  -0.00000

 Dipole moment (field-independent basis, Debye):
    X=             -2.6003    Y=              3.5145    Z=              0.0000  Tot=              4.3719
 Quadrupole moment (field-independent basis, Debye-Ang):
   XX=            -10.1359   YY=             -9.0500   ZZ=            -14.6887
   XY=              2.7107   XZ=              0.0000   YZ=              0.0000

 Normal termination of Gaussian 16 at Fri Aug 26 20:27:58 2022.
