 Gaussian 16, Revision A.03,
 Gaussian 16:  ES64L-G16RevA.03 25-Dec-2016

 ------------------
 #p CCSD(T)/cc-pVTZ
 ------------------

 ------------
 H2O_H2O_1296
 ------------
 Symbolic Z-matrix:
 Charge =  0 Multiplicity = 1

                         Standard orientation:
 ---------------------------------------------------------------------
 Center     Atomic      Atomic             Coordinates (Angstroms)
 Number     Number       Type             X           Y           Z
 ---------------------------------------------------------------------
      1          8           0       -0.023318    1.615846    0.000000
      2          1           0       -0.019451    0.633252    0.000000
      3          1           0        0.904914    1.938167    0.000000
      4          8           0       -0.023318   -1.445519    0.000000
      5          1           0       -0.986278   -1.641005    0.000000
      6          1           0        0.473900   -2.293033    0.000000
 ---------------------------------------------------------------------

 SCF Done:  E(RHF) =  -152.113797125     A.U. after   10 cycles
 E2 =    -0.5275763918D+00 EUMP2 =    -0.15264137351649D+03
 CCSD(T)
 CCSD(T)= -0.15266833195D+03

 The electronic state is 1-A'.
 Alpha  occ. eigenvalues --  -20.58214 -20.52671  -1.35582  -1.30182  -0.73004
 Alpha  occ. eigenvalues --   -0.67980  -0.59406  -0.53420  -0.52682  -0.47330
 Alpha virt. eigenvalues --    0.12089   0.17941   0.18902   0.30235   0.49871
 Alpha virt. eigenvalues --    0.54485   0.55797   0.61406   0.68684   0.73335
 Alpha virt. eigenvalues --    0.73463   0.76994   0.81829   0.82591   0.84464

 Mulliken charges:
               1
     1  O   -0.553368
     2  H    0.281969
     3  H    0.250061
     4  O   -0.495363
     5  H    0.264443
     6  H    0.252259
 Sum of Mulliken charges =  -0.00000

 Dipole moment (field-independent basis, Debye):
    X=              0.7851    Y=             -3.4269    Z=              0.0000  Tot=              3.5157
 Quadrupole moment (field-independent basis, Debye-Ang):
   XX=             -9.3584   YY=             -8.5482   ZZ=            -14.7309
   XY=              4.0324   XZ=              0.0000   YZ=              0.0000

 Normal termination of Gaussian 16 at Fri Aug 26 23:40:21 2022.
