 Gaussian 16, Revision A.03,
 Gaussian 16:  ES64L-G16RevA.03 25-Dec-2016

 ------------------
 #p CCSD(T)/cc-pVTZ
 ------------------

 ------------
 H2O_H2O_2191
 ------------
 Symbolic Z-matrix:
 Charge =  0 Multiplicity = 1

                         Standard orientation:
 ---------------------------------------------------------------------
 Center     Atomic      Atomic             Coordinates (Angstroms)
 Number     Number       Type             X           Y           Z
 ---------------------------------------------------------------------
      1          8           0        0.041176    1.980023    0.000000
      2          1           0        0.038849    0.997425    0.000000
      3          1           0       -0.887560    2.300890    0.000000
      4          8           0        0.041176   -1.800131    0.000000
      5          1           0        0.890968   -2.293445    0.000000
      6          1           0       -0.701072   -2.444007    0.000000
 ---------------------------------------------------------------------

 SCF Done:  E(RHF) =  -152.111836940     A.U. after   10 cycles
 E2 =    -0.5262551012D+00 EUMP2 =    -0.15263809204138D+03
 CCSD(T)
 CCSD(T)= -0.15266517206D+03

 The electronic state is 1-A'.
 Alpha  occ. eigenvalues --  -20.57182 -20.53857  -1.34436  -1.31205  -0.71823
 Alpha  occ. eigenvalues --   -0.68618  -0.58091  -0.54680  -0.51575  -0.48356
 Alpha virt. eigenvalues --    0.12283   0.16806   0.19215   0.25399   0.52164
 Alpha virt. eigenvalues --    0.55225   0.56449   0.58926   0.69064   0.71981
 Alpha virt. eigenvalues --    0.76777   0.78029   0.80526   0.83451   0.83553

 Mulliken charges:
               1
     1  O   -0.527541
     2  H    0.268155
     3  H    0.250260
     4  O   -0.509493
     5  H    0.261309
     6  H    0.257310
 Sum of Mulliken charges =  -0.00000

 Dipole moment (field-independent basis, Debye):
    X=             -1.3957    Y=             -3.3485    Z=              0.0000  Tot=              3.6277
 Quadrupole moment (field-independent basis, Debye-Ang):
   XX=             -9.1508   YY=             -7.7391   ZZ=            -14.7267
   XY=             -4.3538   XZ=              0.0000   YZ=              0.0000

 Normal termination of Gaussian 16 at Sun Aug 28 05:14:53 2022.
