 Gaussian 16, Revision A.03,
 Gaussian 16:  ES64L-G16RevA.03 25-Dec-2016

 ------------------
 #p CCSD(T)/cc-pVTZ
 ------------------

 ------------
 H2O_H2O_3953
 ------------
 Symbolic Z-matrix:
 Charge =  0 Multiplicity = 1

                         Standard orientation:
 ---------------------------------------------------------------------
 Center     Atomic      Atomic             Coordinates (Angstroms)
 Number     Number       Type             X           Y           Z
 ---------------------------------------------------------------------
      1          8           0        0.085598   -2.671571    0.000000
      2          1           0        0.085358   -1.688969    0.000000
      3          1           0       -0.843817   -2.990464    0.000000
      4          8           0        0.085598    2.521968    0.000000
      5          1           0        0.277059    3.485735    0.000000
      6          1           0       -0.888171    2.390521    0.000000
 ---------------------------------------------------------------------

 SCF Done:  E(RHF) =  -152.108016840     A.U. after   10 cycles
 E2 =    -0.5258858468D+00 EUMP2 =    -0.15263390268693D+03
 CCSD(T)
 CCSD(T)= -0.15266110393D+03

 The electronic state is 1-A'.
 Alpha  occ. eigenvalues --  -20.56321 -20.55128  -1.33621  -1.32432  -0.71036
 Alpha  occ. eigenvalues --   -0.69825  -0.57093  -0.55890  -0.50734  -0.49548
 Alpha virt. eigenvalues --    0.12505   0.15067   0.19125   0.21819   0.53165
 Alpha virt. eigenvalues --    0.55001   0.56500   0.57882   0.66734   0.68866
 Alpha virt. eigenvalues --    0.78164   0.79046   0.79317   0.81119   0.82508

 Mulliken charges:
               1
     1  O   -0.511014
     2  H    0.259184
     3  H    0.251503
     4  O   -0.511954
     5  H    0.259220
     6  H    0.253062
 Sum of Mulliken charges =  -0.00000

 Dipole moment (field-independent basis, Debye):
    X=             -2.9300    Y=              2.6402    Z=              0.0000  Tot=              3.9441
 Quadrupole moment (field-independent basis, Debye-Ang):
   XX=            -10.3996   YY=             -8.2360   ZZ=            -14.7131
   XY=              2.8838   XZ=              0.0000   YZ=              0.0000

 CCSD(T)=-152.6611039\RMSD=7.223e-09\PG=CS [SG(H4O2)]\\@
 Normal termination of Gaussian 16 at Sat Aug 27 00:39:33 2022.
