 Gaussian 16, Revision A.03,
 Gaussian 16:  ES64L-G16RevA.03 25-Dec-2016

 ------------------
 #p CCSD(T)/cc-pVTZ
 ------------------

 ------------
 H2O_H2O_4443
 ------------
 Symbolic Z-matrix:
 Charge =  0 Multiplicity = 1

                         Standard orientation:
 ---------------------------------------------------------------------
 Center     Atomic      Atomic             Coordinates (Angstroms)
 Number     Number       Type             X           Y           Z
 ---------------------------------------------------------------------
      1          8           0        0.033753    2.876223    0.000000
      2          1           0        0.031951    1.893623    0.000000
      3          1           0       -0.895154    3.196593    0.000000
      4          8           0        0.033753   -2.698671   -0.000000
      5          1           0        0.940867   -3.076360   -0.000000
      6          1           0       -0.617708   -3.434269   -0.000000
 ---------------------------------------------------------------------

 SCF Done:  E(RHF) =  -152.108511066     A.U. after   10 cycles
 E2 =    -0.5258013856D+00 EUMP2 =    -0.15263431245182D+03
 CCSD(T)
 CCSD(T)= -0.15266150750D+03

 The electronic state is 1-A'.
 Alpha  occ. eigenvalues --  -20.56192 -20.54943  -1.33494  -1.32251  -0.70897
 Alpha  occ. eigenvalues --   -0.69654  -0.56991  -0.55725  -0.50613  -0.49376
 Alpha virt. eigenvalues --    0.13326   0.14967   0.19664   0.21103   0.53608
 Alpha virt. eigenvalues --    0.54879   0.56665   0.57804   0.66803   0.68783
 Alpha virt. eigenvalues --    0.78273   0.79479   0.79560   0.80228   0.82693

 Mulliken charges:
               1
     1  O   -0.514475
     2  H    0.260446
     3  H    0.253879
     4  O   -0.515098
     5  H    0.257973
     6  H    0.257276
 Sum of Mulliken charges =  -0.00000

 Dipole moment (field-independent basis, Debye):
    X=             -1.1578    Y=             -3.1180    Z=             -0.0000  Tot=              3.3261
 Quadrupole moment (field-independent basis, Debye-Ang):
   XX=             -9.1868   YY=             -6.4111   ZZ=            -14.7151
   XY=             -6.4013   XZ=             -0.0000   YZ=              0.0000

 Normal termination of Gaussian 16 at Sun Aug 28 02:52:44 2022.
