 Gaussian 16, Revision A.03,
 Gaussian 16:  ES64L-G16RevA.03 25-Dec-2016

 ------------------
 #p CCSD(T)/cc-pVTZ
 ------------------

 ------------
 H2O_H2O_4812
 ------------
 Symbolic Z-matrix:
 Charge =  0 Multiplicity = 1

                         Standard orientation:
 ---------------------------------------------------------------------
 Center     Atomic      Atomic             Coordinates (Angstroms)
 Number     Number       Type             X           Y           Z
 ---------------------------------------------------------------------
      1          8           0        0.055961    3.026555    0.000000
      2          1           0        0.054893    2.043954    0.000000
      3          1           0       -0.873185    3.346232    0.000000
      4          8           0        0.055961   -2.847611   -0.000000
      5          1           0        0.750009   -3.543170   -0.000000
      6          1           0       -0.827090   -3.278570   -0.000000
 ---------------------------------------------------------------------

 SCF Done:  E(RHF) =  -152.108224672     A.U. after   10 cycles
 E2 =    -0.5258135535D+00 EUMP2 =    -0.15263403822548D+03
 CCSD(T)
 CCSD(T)= -0.15266124076D+03

 The electronic state is 1-A'.
 Alpha  occ. eigenvalues --  -20.56137 -20.55021  -1.33439  -1.32327  -0.70844
 Alpha  occ. eigenvalues --   -0.69727  -0.56924  -0.55793  -0.50556  -0.49447
 Alpha virt. eigenvalues --    0.13479   0.14795   0.19714   0.20924   0.53696
 Alpha virt. eigenvalues --    0.54812   0.56696   0.57765   0.67006   0.68566
 Alpha virt. eigenvalues --    0.78328   0.79413   0.79716   0.80443   0.82348

 Mulliken charges:
               1
     1  O   -0.512947
     2  H    0.259718
     3  H    0.253177
     4  O   -0.513687
     5  H    0.257967
     6  H    0.255773
 Sum of Mulliken charges =  -0.00000

 Dipole moment (field-independent basis, Debye):
    X=             -1.9205    Y=             -3.1337    Z=             -0.0000  Tot=              3.6754
 Quadrupole moment (field-independent basis, Debye-Ang):
   XX=             -9.2849   YY=             -6.1047   ZZ=            -14.7142
   XY=             -5.2825   XZ=             -0.0000   YZ=              0.0000

 Normal termination of Gaussian 16 at Sun Aug 28 06:05:14 2022.
