 Gaussian 16, Revision A.03,
 Gaussian 16:  ES64L-G16RevA.03 25-Dec-2016

 ------------------
 #p CCSD(T)/cc-pVTZ
 ------------------

 ------------
 H2O_H2O_1723
 ------------
 Symbolic Z-matrix:
 Charge =  0 Multiplicity = 1

                         Standard orientation:
 ---------------------------------------------------------------------
 Center     Atomic      Atomic             Coordinates (Angstroms)
 Number     Number       Type             X           Y           Z
 ---------------------------------------------------------------------
      1          8           0       -0.016705    1.781583    0.000000
      2          1           0       -0.012896    0.798989    0.000000
      3          1           0        0.911545    2.103850    0.000000
      4          8           0       -0.016705   -1.618225    0.000000
      5          1           0       -0.996947   -1.686291    0.000000
      6          1           0        0.365583   -2.523411    0.000000
 ---------------------------------------------------------------------

 SCF Done:  E(RHF) =  -152.112708815     A.U. after   10 cycles
 E2 =    -0.5267119254D+00 EUMP2 =    -0.15263942074034D+03
 CCSD(T)
 CCSD(T)= -0.15266646614D+03

 The electronic state is 1-A'.
 Alpha  occ. eigenvalues --  -20.57591 -20.53641  -1.34882  -1.31029  -0.72329
 Alpha  occ. eigenvalues --   -0.68494  -0.58627  -0.54441  -0.52006  -0.48185
 Alpha virt. eigenvalues --    0.12182   0.17249   0.19192   0.27672   0.51682
 Alpha virt. eigenvalues --    0.54362   0.55864   0.59823   0.68879   0.73701
 Alpha virt. eigenvalues --    0.75120   0.77790   0.80903   0.83114   0.84240

 Mulliken charges:
               1
     1  O   -0.536951
     2  H    0.270353
     3  H    0.253555
     4  O   -0.506061
     5  H    0.262376
     6  H    0.256728
 Sum of Mulliken charges =  -0.00000

 Dipole moment (field-independent basis, Debye):
    X=              0.5720    Y=             -3.1332    Z=              0.0000  Tot=              3.1850
 Quadrupole moment (field-independent basis, Debye-Ang):
   XX=             -9.5446   YY=             -8.3778   ZZ=            -14.7296
   XY=              4.6686   XZ=              0.0000   YZ=              0.0000

 Normal termination of Gaussian 16 at Sun Aug 28 00:57:45 2022.
