 Gaussian 16, Revision A.03,
 Gaussian 16:  ES64L-G16RevA.03 25-Dec-2016

 ------------------
 #p CCSD(T)/cc-pVTZ
 ------------------

 -----------
 H2O_H2O_752
 -----------
 Symbolic Z-matrix:
 Charge =  0 Multiplicity = 1

                         Standard orientation:
 ---------------------------------------------------------------------
 Center     Atomic      Atomic             Coordinates (Angstroms)
 Number     Number       Type             X           Y           Z
 ---------------------------------------------------------------------
      1          8           0        0.088241   -1.392282    0.000000
      2          1           0        0.087938   -0.409681    0.000000
      3          1           0       -0.841154   -1.711235    0.000000
      4          8           0        0.088241    1.247985    0.000000
      5          1           0        0.216196    2.222221    0.000000
      6          1           0       -0.874835    1.053071    0.000000
 ---------------------------------------------------------------------

 SCF Done:  E(RHF) =  -152.102777949     A.U. after   10 cycles
 E2 =    -0.5309884541D+00 EUMP2 =    -0.15263376640261D+03
 CCSD(T)
 CCSD(T)= -0.15266054135D+03

 The electronic state is 1-A'.
 Alpha  occ. eigenvalues --  -20.59303 -20.52238  -1.37339  -1.30001  -0.75777
 Alpha  occ. eigenvalues --   -0.68053  -0.59751  -0.54053  -0.52949  -0.47024
 Alpha virt. eigenvalues --    0.11373   0.16518   0.20607   0.31913   0.48268
 Alpha virt. eigenvalues --    0.52804   0.58654   0.62610   0.69143   0.71577
 Alpha virt. eigenvalues --    0.74068   0.78154   0.79276   0.82817   0.83131

 Mulliken charges:
               1
     1  O   -0.553339
     2  H    0.289898
     3  H    0.224391
     4  O   -0.426450
     5  H    0.233891
     6  H    0.231609
 Sum of Mulliken charges =  -0.00000

 Dipole moment (field-independent basis, Debye):
    X=             -2.8719    Y=              3.2263    Z=              0.0000  Tot=              4.3194
 Quadrupole moment (field-independent basis, Debye-Ang):
   XX=            -10.6005   YY=             -9.1890   ZZ=            -14.6741
   XY=              2.3451   XZ=              0.0000   YZ=              0.0000

 Normal termination of Gaussian 16 at Fri Aug 26 20:17:27 2022.
