 Gaussian 16, Revision A.03,
 Gaussian 16:  ES64L-G16RevA.03 25-Dec-2016

 ------------------
 #p CCSD(T)/cc-pVTZ
 ------------------

 ------------
 H2O_H2O_3515
 ------------
 Symbolic Z-matrix:
 Charge =  0 Multiplicity = 1

                         Standard orientation:
 ---------------------------------------------------------------------
 Center     Atomic      Atomic             Coordinates (Angstroms)
 Number     Number       Type             X           Y           Z
 ---------------------------------------------------------------------
      1          8           0        0.044847    2.508814    0.000000
      2          1           0        0.043160    1.526214    0.000000
      3          1           0       -0.884097    2.829077   -0.000000
      4          8           0        0.044847   -2.328404    0.000000
      5          1           0        0.860913   -2.875710    0.000000
      6          1           0       -0.737535   -2.922864   -0.000000
 ---------------------------------------------------------------------

 SCF Done:  E(RHF) =  -152.109210890     A.U. after   10 cycles
 E2 =    -0.5258549861D+00 EUMP2 =    -0.15263506587586D+03
 CCSD(T)
 CCSD(T)= -0.15266223318D+03

 The electronic state is 1-A'.
 Alpha  occ. eigenvalues --  -20.56436 -20.54652  -1.33726  -1.31966  -0.71128
 Alpha  occ. eigenvalues --   -0.69364  -0.57247  -0.55449  -0.50851  -0.49097
 Alpha virt. eigenvalues --    0.12783   0.15530   0.19562   0.21793   0.53415
 Alpha virt. eigenvalues --    0.55093   0.56493   0.58018   0.67013   0.69329
 Alpha virt. eigenvalues --    0.78052   0.79110   0.79466   0.79741   0.83047

 Mulliken charges:
               1
     1  O   -0.516786
     2  H    0.262894
     3  H    0.252611
     4  O   -0.515662
     5  H    0.259611
     6  H    0.257332
 Sum of Mulliken charges =  -0.00000

 Dipole moment (field-independent basis, Debye):
    X=             -1.5330    Y=             -3.2101    Z=             -0.0000  Tot=              3.5574
 Quadrupole moment (field-independent basis, Debye-Ang):
   XX=             -9.1568   YY=             -6.8515   ZZ=            -14.7177
   XY=             -5.1336   XZ=              0.0000   YZ=             -0.0000

 Normal termination of Gaussian 16 at Fri Aug 26 22:08:40 2022.
