 Gaussian 16, Revision A.03,
 Gaussian 16:  ES64L-G16RevA.03 25-Dec-2016

 ------------------
 #p CCSD(T)/cc-pVTZ
 ------------------

 ------------
 H2O_H2O_3814
 ------------
 Symbolic Z-matrix:
 Charge =  0 Multiplicity = 1

                         Standard orientation:
 ---------------------------------------------------------------------
 Center     Atomic      Atomic             Coordinates (Angstroms)
 Number     Number       Type             X           Y           Z
 ---------------------------------------------------------------------
      1          8           0        0.048566    2.628474   -0.000000
      2          1           0        0.047082    1.645874   -0.000000
      3          1           0       -0.880445    2.948544   -0.000000
      4          8           0        0.048566   -2.448068    0.000000
      5          1           0        0.827212   -3.047414    0.000000
      6          1           0       -0.770909   -2.990255    0.000000
 ---------------------------------------------------------------------

 SCF Done:  E(RHF) =  -152.108880556     A.U. after   10 cycles
 E2 =    -0.5258326942D+00 EUMP2 =    -0.15263471324973D+03
 CCSD(T)
 CCSD(T)= -0.15266189288D+03

 The electronic state is 1-A'.
 Alpha  occ. eigenvalues --  -20.56343 -20.54759  -1.33638  -1.32070  -0.71041
 Alpha  occ. eigenvalues --   -0.69468  -0.57148  -0.55548  -0.50760  -0.49197
 Alpha virt. eigenvalues --    0.12966   0.15313   0.19613   0.21462   0.53511
 Alpha virt. eigenvalues --    0.54953   0.56549   0.57877   0.66726   0.69208
 Alpha virt. eigenvalues --    0.78138   0.79339   0.79546   0.79647   0.82943

 Mulliken charges:
               1
     1  O   -0.515536
     2  H    0.262117
     3  H    0.252715
     4  O   -0.515588
     5  H    0.259332
     6  H    0.256961
 Sum of Mulliken charges =  -0.00000

 Dipole moment (field-independent basis, Debye):
    X=             -1.6620    Y=             -3.1932    Z=              0.0000  Tot=              3.5999
 Quadrupole moment (field-independent basis, Debye-Ang):
   XX=             -9.1822   YY=             -6.6611   ZZ=            -14.7165
   XY=             -5.1471   XZ=              0.0000   YZ=             -0.0000

 Normal termination of Gaussian 16 at Fri Aug 26 23:50:00 2022.
