 Gaussian 16, Revision A.03,
 Gaussian 16:  ES64L-G16RevA.03 25-Dec-2016

 ------------------
 #p CCSD(T)/cc-pVTZ
 ------------------

 ------------
 H2O_H2O_3532
 ------------
 Symbolic Z-matrix:
 Charge =  0 Multiplicity = 1

                         Standard orientation:
 ---------------------------------------------------------------------
 Center     Atomic      Atomic             Coordinates (Angstroms)
 Number     Number       Type             X           Y           Z
 ---------------------------------------------------------------------
      1          8           0        0.073532    2.511470    0.000000
      2          1           0        0.072853    1.528869    0.000000
      3          1           0       -0.855741    2.830779    0.000000
      4          8           0        0.073532   -2.344522    0.000000
      5          1           0        0.507516   -3.226091    0.000000
      6          1           0       -0.901135   -2.469149    0.000000
 ---------------------------------------------------------------------

 SCF Done:  E(RHF) =  -152.108670114     A.U. after   10 cycles
 E2 =    -0.5258978756D+00 EUMP2 =    -0.15263456799005D+03
 CCSD(T)
 CCSD(T)= -0.15266174712D+03

 The electronic state is 1-A'.
 Alpha  occ. eigenvalues --  -20.56439 -20.54836  -1.33732  -1.32146  -0.71143
 Alpha  occ. eigenvalues --   -0.69537  -0.57229  -0.55616  -0.50851  -0.49269
 Alpha virt. eigenvalues --    0.12514   0.15408   0.19413   0.21853   0.53359
 Alpha virt. eigenvalues --    0.55079   0.56441   0.58064   0.66942   0.69223
 Alpha virt. eigenvalues --    0.78054   0.78726   0.79581   0.80384   0.82847

 Mulliken charges:
               1
     1  O   -0.513718
     2  H    0.261544
     3  H    0.251131
     4  O   -0.513420
     5  H    0.259853
     6  H    0.254609
 Sum of Mulliken charges =  -0.00000

 Dipole moment (field-independent basis, Debye):
    X=             -2.5128    Y=             -2.9678    Z=              0.0000  Tot=              3.8887
 Quadrupole moment (field-independent basis, Debye-Ang):
   XX=             -9.8127   YY=             -7.4526   ZZ=            -14.7156
   XY=             -3.6908   XZ=              0.0000   YZ=              0.0000

 Normal termination of Gaussian 16 at Fri Aug 26 22:14:22 2022.
