 Gaussian 16, Revision A.03,
 Gaussian 16:  ES64L-G16RevA.03 25-Dec-2016

 ------------------
 #p CCSD(T)/cc-pVTZ
 ------------------

 ------------
 H2O_H2O_4263
 ------------
 Symbolic Z-matrix:
 Charge =  0 Multiplicity = 1

                         Standard orientation:
 ---------------------------------------------------------------------
 Center     Atomic      Atomic             Coordinates (Angstroms)
 Number     Number       Type             X           Y           Z
 ---------------------------------------------------------------------
      1          8           0        0.052275    2.807702   -0.000000
      2          1           0        0.051005    1.825102   -0.000000
      3          1           0       -0.876805    3.127570    0.000000
      4          8           0        0.052275   -2.627785   -0.000000
      5          1           0        0.790197   -3.276613   -0.000000
      6          1           0       -0.800800   -3.115400    0.000000
 ---------------------------------------------------------------------

 SCF Done:  E(RHF) =  -152.108518502     A.U. after   10 cycles
 E2 =    -0.5258160398D+00 EUMP2 =    -0.15263433454130D+03
 CCSD(T)
 CCSD(T)= -0.15266152755D+03

 The electronic state is 1-A'.
 Alpha  occ. eigenvalues --  -20.56233 -20.54892  -1.33533  -1.32200  -0.70937
 Alpha  occ. eigenvalues --   -0.69600  -0.57030  -0.55672  -0.50652  -0.49324
 Alpha virt. eigenvalues --    0.13233   0.15042   0.19667   0.21151   0.53605
 Alpha virt. eigenvalues --    0.54875   0.56624   0.57810   0.66728   0.68920
 Alpha virt. eigenvalues --    0.78237   0.79529   0.79574   0.79913   0.82789

 Mulliken charges:
               1
     1  O   -0.514168
     2  H    0.260990
     3  H    0.252934
     4  O   -0.514901
     5  H    0.258743
     6  H    0.256403
 Sum of Mulliken charges =  -0.00000

 Dipole moment (field-independent basis, Debye):
    X=             -1.7915    Y=             -3.1659    Z=             -0.0000  Tot=              3.6376
 Quadrupole moment (field-independent basis, Debye-Ang):
   XX=             -9.2251   YY=             -6.3987   ZZ=            -14.7152
   XY=             -5.2131   XZ=             -0.0000   YZ=             -0.0000

 Normal termination of Gaussian 16 at Sun Aug 28 01:19:57 2022.
