 Gaussian 16, Revision A.03,
 Gaussian 16:  ES64L-G16RevA.03 25-Dec-2016

 ------------------
 #p CCSD(T)/cc-pVTZ
 ------------------

 ------------
 H2O_H2O_4719
 ------------
 Symbolic Z-matrix:
 Charge =  0 Multiplicity = 1

                         Standard orientation:
 ---------------------------------------------------------------------
 Center     Atomic      Atomic             Coordinates (Angstroms)
 Number     Number       Type             X           Y           Z
 ---------------------------------------------------------------------
      1          8           0        0.030143    2.984875   -0.000000
      2          1           0        0.028304    2.002275   -0.000000
      3          1           0       -0.898752    3.305280   -0.000000
      4          8           0        0.030143   -2.809236    0.000000
      5          1           0        0.960006   -3.126824    0.000000
      6          1           0       -0.571843   -3.585844    0.000000
 ---------------------------------------------------------------------

 SCF Done:  E(RHF) =  -152.108377715     A.U. after   10 cycles
 E2 =    -0.5257997209D+00 EUMP2 =    -0.15263417743581D+03
 CCSD(T)
 CCSD(T)= -0.15266137687D+03

 The electronic state is 1-A'.
 Alpha  occ. eigenvalues --  -20.56145 -20.55014  -1.33447  -1.32321  -0.70851
 Alpha  occ. eigenvalues --   -0.69725  -0.56939  -0.55792  -0.50566  -0.49444
 Alpha virt. eigenvalues --    0.13443   0.14843   0.19681   0.20995   0.53653
 Alpha virt. eigenvalues --    0.54835   0.56700   0.57778   0.66950   0.68599
 Alpha virt. eigenvalues --    0.78318   0.79414   0.79663   0.80468   0.82405

 Mulliken charges:
               1
     1  O   -0.513948
     2  H    0.259748
     3  H    0.254133
     4  O   -0.514531
     5  H    0.257481
     6  H    0.257118
 Sum of Mulliken charges =  -0.00000

 Dipole moment (field-independent basis, Debye):
    X=             -1.0348    Y=             -3.0772    Z=              0.0000  Tot=              3.2465
 Quadrupole moment (field-independent basis, Debye-Ang):
   XX=             -9.2306   YY=             -6.3569   ZZ=            -14.7147
   XY=             -6.8596   XZ=              0.0000   YZ=             -0.0000

 Normal termination of Gaussian 16 at Sun Aug 28 05:21:52 2022.
