 Gaussian 16, Revision A.03,
 Gaussian 16:  ES64L-G16RevA.03 25-Dec-2016

 ------------------
 #p CCSD(T)/cc-pVTZ
 ------------------

 ------------
 H2O_H2O_1351
 ------------
 Symbolic Z-matrix:
 Charge =  0 Multiplicity = 1

                         Standard orientation:
 ---------------------------------------------------------------------
 Center     Atomic      Atomic             Coordinates (Angstroms)
 Number     Number       Type             X           Y           Z
 ---------------------------------------------------------------------
      1          8           0        0.090687   -1.628568    0.000000
      2          1           0        0.090564   -0.645967    0.000000
      3          1           0       -0.838766   -1.947351    0.000000
      4          8           0        0.090687    1.489867    0.000000
      5          1           0        0.154830    2.470374    0.000000
      6          1           0       -0.857625    1.232556    0.000000
 ---------------------------------------------------------------------

 SCF Done:  E(RHF) =  -152.109128776     A.U. after   10 cycles
 E2 =    -0.5280399542D+00 EUMP2 =    -0.15263716873062D+03
 CCSD(T)
 CCSD(T)= -0.15266422999D+03

 The electronic state is 1-A'.
 Alpha  occ. eigenvalues --  -20.58079 -20.54087  -1.35489  -1.31480  -0.73313
 Alpha  occ. eigenvalues --   -0.68717  -0.58969  -0.54804  -0.52520  -0.48572
 Alpha virt. eigenvalues --    0.11512   0.16395   0.20417   0.28677   0.49316
 Alpha virt. eigenvalues --    0.54124   0.57820   0.58678   0.68059   0.73136
 Alpha virt. eigenvalues --    0.74355   0.77866   0.80840   0.81585   0.83348

 Mulliken charges:
               1
     1  O   -0.525372
     2  H    0.275798
     3  H    0.237570
     4  O   -0.473763
     5  H    0.245328
     6  H    0.240439
 Sum of Mulliken charges =  -0.00000

 Dipole moment (field-independent basis, Debye):
    X=             -3.0179    Y=              2.7543    Z=              0.0000  Tot=              4.0859
 Quadrupole moment (field-independent basis, Debye-Ang):
   XX=            -10.7545   YY=             -9.0232   ZZ=            -14.7090
   XY=              2.2770   XZ=              0.0000   YZ=              0.0000

 Normal termination of Gaussian 16 at Sat Aug 27 00:03:04 2022.
