 Gaussian 16, Revision A.03,
 Gaussian 16:  ES64L-G16RevA.03 25-Dec-2016

 ------------------
 #p CCSD(T)/cc-pVTZ
 ------------------

 ------------
 H2O_H2O_1199
 ------------
 Symbolic Z-matrix:
 Charge =  0 Multiplicity = 1

                         Standard orientation:
 ---------------------------------------------------------------------
 Center     Atomic      Atomic             Coordinates (Angstroms)
 Number     Number       Type             X           Y           Z
 ---------------------------------------------------------------------
      1          8           0        0.013644   -1.569927    0.000000
      2          1           0        0.009122   -0.587336    0.000000
      3          1           0       -0.914372   -1.892868    0.000000
      4          8           0        0.013644    1.410708    0.000000
      5          1           0        0.996235    1.415230    0.000000
      6          1           0       -0.309297    2.338725    0.000000
 ---------------------------------------------------------------------

 SCF Done:  E(RHF) =  -152.112765145     A.U. after   10 cycles
 E2 =    -0.5279226285D+00 EUMP2 =    -0.15264068777381D+03
 CCSD(T)
 CCSD(T)= -0.15266763683D+03

 The electronic state is 1-A'.
 Alpha  occ. eigenvalues --  -20.58327 -20.52745  -1.35776  -1.30284  -0.73395
 Alpha  occ. eigenvalues --   -0.67995  -0.59566  -0.53459  -0.52835  -0.47423
 Alpha virt. eigenvalues --    0.12088   0.17848   0.19116   0.30803   0.49728
 Alpha virt. eigenvalues --    0.54665   0.55509   0.62199   0.68543   0.72995
 Alpha virt. eigenvalues --    0.74469   0.76574   0.81711   0.82135   0.84274

 Mulliken charges:
               1
     1  O   -0.557662
     2  H    0.281766
     3  H    0.252792
     4  O   -0.480950
     5  H    0.261618
     6  H    0.242436
 Sum of Mulliken charges =  -0.00000

 Dipole moment (field-independent basis, Debye):
    X=             -0.4692    Y=              3.2507    Z=              0.0000  Tot=              3.2844
 Quadrupole moment (field-independent basis, Debye-Ang):
   XX=             -9.6428   YY=             -8.7463   ZZ=            -14.7228
   XY=              4.2118   XZ=              0.0000   YZ=              0.0000

 Normal termination of Gaussian 16 at Fri Aug 26 23:04:48 2022.
