 Gaussian 16, Revision A.03,
 Gaussian 16:  ES64L-G16RevA.03 25-Dec-2016

 ------------------
 #p CCSD(T)/cc-pVTZ
 ------------------

 -----------
 H2O_H2O_767
 -----------
 Symbolic Z-matrix:
 Charge =  0 Multiplicity = 1

                         Standard orientation:
 ---------------------------------------------------------------------
 Center     Atomic      Atomic             Coordinates (Angstroms)
 Number     Number       Type             X           Y           Z
 ---------------------------------------------------------------------
      1          8           0        0.037581    1.411065   -0.000000
      2          1           0        0.034017    0.428470   -0.000000
      3          1           0       -0.890750    1.733101    0.000000
      4          8           0        0.037581   -1.232214   -0.000000
      5          1           0        0.917268   -1.670001   -0.000000
      6          1           0       -0.661835   -1.922375    0.000000
 ---------------------------------------------------------------------

 SCF Done:  E(RHF) =  -152.110141378     A.U. after   10 cycles
 E2 =    -0.5297972007D+00 EUMP2 =    -0.15263993857905D+03
 CCSD(T)
 CCSD(T)= -0.15266660799D+03

 The electronic state is 1-A'.
 Alpha  occ. eigenvalues --  -20.59404 -20.50432  -1.37219  -1.28415  -0.74284
 Alpha  occ. eigenvalues --   -0.68938  -0.59589  -0.54150  -0.51064  -0.45474
 Alpha virt. eigenvalues --    0.11656   0.18168   0.19116   0.33098   0.47883
 Alpha virt. eigenvalues --    0.54297   0.58111   0.63519   0.68847   0.72344
 Alpha virt. eigenvalues --    0.72432   0.77939   0.81683   0.83107   0.84406

 Mulliken charges:
               1
     1  O   -0.591086
     2  H    0.307294
     3  H    0.237860
     4  O   -0.471776
     5  H    0.264567
     6  H    0.253142
 Sum of Mulliken charges =  -0.00000

 Dipole moment (field-independent basis, Debye):
    X=             -1.2274    Y=             -3.9752    Z=              0.0000  Tot=              4.1604
 Quadrupole moment (field-independent basis, Debye-Ang):
   XX=             -9.1425   YY=             -9.0582   ZZ=            -14.7085
   XY=             -3.3206   XZ=              0.0000   YZ=              0.0000

 Normal termination of Gaussian 16 at Fri Aug 26 20:23:05 2022.
