 Gaussian 16, Revision A.03,
 Gaussian 16:  ES64L-G16RevA.03 25-Dec-2016

 ------------------
 #p CCSD(T)/cc-pVTZ
 ------------------

 ------------
 H2O_H2O_1236
 ------------
 Symbolic Z-matrix:
 Charge =  0 Multiplicity = 1

                         Standard orientation:
 ---------------------------------------------------------------------
 Center     Atomic      Atomic             Coordinates (Angstroms)
 Number     Number       Type             X           Y           Z
 ---------------------------------------------------------------------
      1          8           0        0.059697    1.599719    0.000000
      2          1           0        0.057826    0.617119    0.000000
      3          1           0       -0.869188    1.920155   -0.000000
      4          8           0        0.059697   -1.422349    0.000000
      5          1           0        0.706163   -2.162341    0.000000
      6          1           0       -0.849954   -1.793889   -0.000000
 ---------------------------------------------------------------------

 SCF Done:  E(RHF) =  -152.113587489     A.U. after   10 cycles
 E2 =    -0.5278786353D+00 EUMP2 =    -0.15264146612384D+03
 CCSD(T)
 CCSD(T)= -0.15266840739D+03

 The electronic state is 1-A'.
 Alpha  occ. eigenvalues --  -20.58376 -20.52452  -1.35742  -1.29983  -0.73067
 Alpha  occ. eigenvalues --   -0.67978  -0.59445  -0.53197  -0.52839  -0.47112
 Alpha virt. eigenvalues --    0.11865   0.17520   0.19181   0.30488   0.48823
 Alpha virt. eigenvalues --    0.54867   0.56914   0.59536   0.69713   0.72189
 Alpha virt. eigenvalues --    0.73332   0.76757   0.82004   0.82640   0.84767

 Mulliken charges:
               1
     1  O   -0.549647
     2  H    0.287161
     3  H    0.240576
     4  O   -0.497022
     5  H    0.262414
     6  H    0.256517
 Sum of Mulliken charges =  -0.00000

 Dipole moment (field-independent basis, Debye):
    X=             -1.9846    Y=             -3.5917    Z=              0.0000  Tot=              4.1035
 Quadrupole moment (field-independent basis, Debye-Ang):
   XX=             -9.3772   YY=             -8.5298   ZZ=            -14.7308
   XY=             -3.3728   XZ=              0.0000   YZ=              0.0000

 Normal termination of Gaussian 16 at Fri Aug 26 23:18:09 2022.
