 Gaussian 16, Revision A.03,
 Gaussian 16:  ES64L-G16RevA.03 25-Dec-2016

 ------------------
 #p CCSD(T)/cc-pVTZ
 ------------------

 ------------
 H2O_H2O_1936
 ------------
 Symbolic Z-matrix:
 Charge =  0 Multiplicity = 1

                         Standard orientation:
 ---------------------------------------------------------------------
 Center     Atomic      Atomic             Coordinates (Angstroms)
 Number     Number       Type             X           Y           Z
 ---------------------------------------------------------------------
      1          8           0        0.059671    1.878951   -0.000000
      2          1           0        0.058091    0.896350   -0.000000
      3          1           0       -0.869309    2.199111   -0.000000
      4          8           0        0.059671   -1.701546    0.000000
      5          1           0        0.706357   -2.441345    0.000000
      6          1           0       -0.849870   -2.073355    0.000000
 ---------------------------------------------------------------------

 SCF Done:  E(RHF) =  -152.112160133     A.U. after   10 cycles
 E2 =    -0.5265302214D+00 EUMP2 =    -0.15263869035482D+03
 CCSD(T)
 CCSD(T)= -0.15266575254D+03

 The electronic state is 1-A'.
 Alpha  occ. eigenvalues --  -20.57427 -20.53687  -1.34682  -1.31049  -0.72072
 Alpha  occ. eigenvalues --   -0.68477  -0.58367  -0.54492  -0.51816  -0.48195
 Alpha virt. eigenvalues --    0.12108   0.16927   0.19233   0.26450   0.51238
 Alpha virt. eigenvalues --    0.55256   0.56260   0.58857   0.69036   0.72450
 Alpha virt. eigenvalues --    0.76024   0.77609   0.80756   0.83357   0.84150

 Mulliken charges:
               1
     1  O   -0.528254
     2  H    0.269850
     3  H    0.246779
     4  O   -0.506426
     5  H    0.262084
     6  H    0.255966
 Sum of Mulliken charges =  -0.00000

 Dipole moment (field-independent basis, Debye):
    X=             -2.0146    Y=             -3.3513    Z=              0.0000  Tot=              3.9102
 Quadrupole moment (field-independent basis, Debye-Ang):
   XX=             -9.3733   YY=             -7.9713   ZZ=            -14.7284
   XY=             -3.7104   XZ=              0.0000   YZ=             -0.0000

 Normal termination of Gaussian 16 at Sun Aug 28 02:54:35 2022.
