 Gaussian 16, Revision A.03,
 Gaussian 16:  ES64L-G16RevA.03 25-Dec-2016

 ------------------
 #p CCSD(T)/cc-pVTZ
 ------------------

 ------------
 H2O_H2O_2869
 ------------
 Symbolic Z-matrix:
 Charge =  0 Multiplicity = 1

                         Standard orientation:
 ---------------------------------------------------------------------
 Center     Atomic      Atomic             Coordinates (Angstroms)
 Number     Number       Type             X           Y           Z
 ---------------------------------------------------------------------
      1          8           0        0.030199    2.246935   -0.000000
      2          1           0        0.027732    1.264337   -0.000000
      3          1           0       -0.898491    2.567934   -0.000000
      4          8           0        0.030199   -2.071335    0.000000
      5          1           0        0.959858   -2.389517    0.000000
      6          1           0       -0.572283   -2.847557    0.000000
 ---------------------------------------------------------------------

 SCF Done:  E(RHF) =  -152.110200889     A.U. after   10 cycles
 E2 =    -0.5259534661D+00 EUMP2 =    -0.15263615435488D+03
 CCSD(T)
 CCSD(T)= -0.15266328692D+03

 The electronic state is 1-A'.
 Alpha  occ. eigenvalues --  -20.56707 -20.54404  -1.33984  -1.31728  -0.71384
 Alpha  occ. eigenvalues --   -0.69129  -0.57543  -0.55220  -0.51116  -0.48868
 Alpha virt. eigenvalues --    0.12426   0.16080   0.19371   0.23120   0.53300
 Alpha virt. eigenvalues --    0.55567   0.56412   0.58563   0.68697   0.69379
 Alpha virt. eigenvalues --    0.77753   0.79042   0.79893   0.79961   0.83314

 Mulliken charges:
               1
     1  O   -0.521143
     2  H    0.264612
     3  H    0.252991
     4  O   -0.514321
     5  H    0.259831
     6  H    0.258030
 Sum of Mulliken charges =   0.00000

 Dipole moment (field-independent basis, Debye):
    X=             -1.0302    Y=             -3.1746    Z=              0.0000  Tot=              3.3376
 Quadrupole moment (field-independent basis, Debye-Ang):
   XX=             -9.2294   YY=             -7.4287   ZZ=            -14.7208
   XY=             -5.2595   XZ=              0.0000   YZ=              0.0000

 Normal termination of Gaussian 16 at Fri Aug 26 17:53:17 2022.
