 Gaussian 16, Revision A.03,
 Gaussian 16:  ES64L-G16RevA.03 25-Dec-2016

 ------------------
 #p CCSD(T)/cc-pVTZ
 ------------------

 -----------
 H2O_H2O_491
 -----------
 Symbolic Z-matrix:
 Charge =  0 Multiplicity = 1

                         Standard orientation:
 ---------------------------------------------------------------------
 Center     Atomic      Atomic             Coordinates (Angstroms)
 Number     Number       Type             X           Y           Z
 ---------------------------------------------------------------------
      1          8           0        0.041295    1.301880    0.000000
      2          1           0        0.037666    0.319286    0.000000
      3          1           0       -0.887015    1.623977   -0.000000
      4          8           0        0.041295   -1.122097    0.000000
      5          1           0        0.890433   -1.616537    0.000000
      6          1           0       -0.701805   -1.764990   -0.000000
 ---------------------------------------------------------------------

 SCF Done:  E(RHF) =  -152.099398032     A.U. after   11 cycles
 E2 =    -0.5317598167D+00 EUMP2 =    -0.15263115784863D+03
 CCSD(T)
 CCSD(T)= -0.15265749811D+03

 The electronic state is 1-A'.
 Alpha  occ. eigenvalues --  -20.60277 -20.48551  -1.38818  -1.27104  -0.75410
 Alpha  occ. eigenvalues --   -0.71420  -0.58401  -0.55421  -0.49093  -0.44035
 Alpha virt. eigenvalues --    0.11259   0.17657   0.19823   0.33653   0.47265
 Alpha virt. eigenvalues --    0.53575   0.60679   0.65030   0.69731   0.72248
 Alpha virt. eigenvalues --    0.74312   0.78718   0.81013   0.82661   0.83934

 Mulliken charges:
               1
     1  O   -0.619156
     2  H    0.312569
     3  H    0.227883
     4  O   -0.431659
     5  H    0.261318
     6  H    0.249045
 Sum of Mulliken charges =  -0.00000

 Dipole moment (field-independent basis, Debye):
    X=             -1.3185    Y=             -4.3250    Z=             -0.0000  Tot=              4.5215
 Quadrupole moment (field-independent basis, Debye-Ang):
   XX=             -9.1195   YY=             -9.4611   ZZ=            -14.6716
   XY=             -3.0582   XZ=              0.0000   YZ=             -0.0000

 Normal termination of Gaussian 16 at Fri Aug 26 18:37:16 2022.
