 Gaussian 16, Revision A.03,
 Gaussian 16:  ES64L-G16RevA.03 25-Dec-2016

 ------------------
 #p CCSD(T)/cc-pVTZ
 ------------------

 -----------
 H2O_H2O_316
 -----------
 Symbolic Z-matrix:
 Charge =  0 Multiplicity = 1

                         Standard orientation:
 ---------------------------------------------------------------------
 Center     Atomic      Atomic             Coordinates (Angstroms)
 Number     Number       Type             X           Y           Z
 ---------------------------------------------------------------------
      1          8           0        0.041315    1.232068    0.000000
      2          1           0        0.037465    0.249475    0.000000
      3          1           0       -0.886922    1.554374    0.000000
      4          8           0        0.041315   -1.052304   -0.000000
      5          1           0        0.890342   -1.546934   -0.000000
      6          1           0       -0.701929   -1.695028   -0.000000
 ---------------------------------------------------------------------

 SCF Done:  E(RHF) =  -152.084646902     A.U. after   11 cycles
 E2 =    -0.5332949873D+00 EUMP2 =    -0.15261794188908D+03
 CCSD(T)
 CCSD(T)= -0.15264398672D+03

 The electronic state is 1-A'.
 Alpha  occ. eigenvalues --  -20.60953 -20.46933  -1.40364  -1.26064  -0.76479
 Alpha  occ. eigenvalues --   -0.73850  -0.57107  -0.56528  -0.47379  -0.42858
 Alpha virt. eigenvalues --    0.10935   0.17260   0.20327   0.33625   0.46973
 Alpha virt. eigenvalues --    0.52988   0.61810   0.65975   0.70121   0.71943
 Alpha virt. eigenvalues --    0.77332   0.79344   0.80382   0.82399   0.83937

 Mulliken charges:
               1
     1  O   -0.639930
     2  H    0.307360
     3  H    0.220053
     4  O   -0.392003
     5  H    0.259249
     6  H    0.245270
 Sum of Mulliken charges =   0.00000

 Dipole moment (field-independent basis, Debye):
    X=             -1.2939    Y=             -4.6016    Z=             -0.0000  Tot=              4.7801
 Quadrupole moment (field-independent basis, Debye-Ang):
   XX=             -9.1063   YY=             -9.7588   ZZ=            -14.6347
   XY=             -2.9032   XZ=             -0.0000   YZ=              0.0000

 Normal termination of Gaussian 16 at Fri Aug 26 17:22:58 2022.
