 Gaussian 16, Revision A.03,
 Gaussian 16:  ES64L-G16RevA.03 25-Dec-2016

 ------------------
 #p CCSD(T)/cc-pVTZ
 ------------------

 ----------
 H2O_H2O_55
 ----------
 Symbolic Z-matrix:
 Charge =  0 Multiplicity = 1

                         Standard orientation:
 ---------------------------------------------------------------------
 Center     Atomic      Atomic             Coordinates (Angstroms)
 Number     Number       Type             X           Y           Z
 ---------------------------------------------------------------------
      1          8           0        0.079898   -1.121041    0.000000
      2          1           0        0.078832   -0.138440    0.000000
      3          1           0       -0.849248   -1.440716    0.000000
      4          8           0        0.079898    0.962073    0.000000
      5          1           0        0.394736    1.892871    0.000000
      6          1           0       -0.902695    0.958028    0.000000
 ---------------------------------------------------------------------

 SCF Done:  E(RHF) =  -152.031916628     A.U. after   11 cycles
 E2 =    -0.5380037839D+00 EUMP2 =    -0.15256992041159D+03
 CCSD(T)
 CCSD(T)= -0.15259544191D+03

 The electronic state is 1-A'.
 Alpha  occ. eigenvalues --  -20.61911 -20.45695  -1.44250  -1.25531  -0.82789
 Alpha  occ. eigenvalues --   -0.73486  -0.58524  -0.55289  -0.46127  -0.42172
 Alpha virt. eigenvalues --    0.10419   0.15819   0.21660   0.31778   0.49453
 Alpha virt. eigenvalues --    0.51268   0.60139   0.64952   0.70657   0.72050
 Alpha virt. eigenvalues --    0.76224   0.79022   0.81297   0.85551   0.87549

 Mulliken charges:
               1
     1  O   -0.633678
     2  H    0.266172
     3  H    0.189073
     4  O   -0.290834
     5  H    0.229247
     6  H    0.240020
 Sum of Mulliken charges =  -0.00000

 Dipole moment (field-independent basis, Debye):
    X=             -2.4363    Y=              4.5616    Z=              0.0000  Tot=              5.1714
 Quadrupole moment (field-independent basis, Debye-Ang):
   XX=            -10.0511   YY=            -10.0436   ZZ=            -14.5217
   XY=              2.4106   XZ=              0.0000   YZ=              0.0000

 Normal termination of Gaussian 16 at Fri Aug 26 15:33:39 2022.
