 Gaussian 16, Revision A.03,
 Gaussian 16:  ES64L-G16RevA.03 25-Dec-2016

 ------------------
 #p CCSD(T)/cc-pVTZ
 ------------------

 ----------
 H2O_H2O_63
 ----------
 Symbolic Z-matrix:
 Charge =  0 Multiplicity = 1

                         Standard orientation:
 ---------------------------------------------------------------------
 Center     Atomic      Atomic             Coordinates (Angstroms)
 Number     Number       Type             X           Y           Z
 ---------------------------------------------------------------------
      1          8           0        0.052462    1.132313    0.000000
      2          1           0        0.049152    0.149717    0.000000
      3          1           0       -0.875952    1.454108    0.000000
      4          8           0        0.052462   -0.952612   -0.000000
      5          1           0        0.789034   -1.602971   -0.000000
      6          1           0       -0.801624   -1.438456   -0.000000
 ---------------------------------------------------------------------

 SCF Done:  E(RHF) =  -152.041002778     A.U. after   11 cycles
 E2 =    -0.5358688653D+00 EUMP2 =    -0.15257687164324D+03
 CCSD(T)
 CCSD(T)= -0.15260242016D+03

 The electronic state is 1-A'.
 Alpha  occ. eigenvalues --  -20.62098 -20.44061  -1.43832  -1.24417  -0.79460
 Alpha  occ. eigenvalues --   -0.77815  -0.58682  -0.54488  -0.44275  -0.40876
 Alpha virt. eigenvalues --    0.10304   0.16297   0.21271   0.32760   0.47252
 Alpha virt. eigenvalues --    0.51876   0.63479   0.63664   0.70585   0.70925
 Alpha virt. eigenvalues --    0.79136   0.79390   0.81564   0.82422   0.88485

 Mulliken charges:
               1
     1  O   -0.671297
     2  H    0.286878
     3  H    0.199447
     4  O   -0.306541
     5  H    0.248358
     6  H    0.243154
 Sum of Mulliken charges =  -0.00000

 Dipole moment (field-independent basis, Debye):
    X=             -1.5811    Y=             -5.0822    Z=             -0.0000  Tot=              5.3225
 Quadrupole moment (field-independent basis, Debye-Ang):
   XX=             -9.1766   YY=            -10.2411   ZZ=            -14.5547
   XY=             -2.6609   XZ=             -0.0000   YZ=             -0.0000

 Normal termination of Gaussian 16 at Fri Aug 26 15:36:50 2022.
