 Gaussian 16, Revision A.03,
 Gaussian 16:  ES64L-G16RevA.03 25-Dec-2016

 ------------------
 #p CCSD(T)/cc-pVTZ
 ------------------

 ----------
 H2O_H2O_30
 ----------
 Symbolic Z-matrix:
 Charge =  0 Multiplicity = 1

                         Standard orientation:
 ---------------------------------------------------------------------
 Center     Atomic      Atomic             Coordinates (Angstroms)
 Number     Number       Type             X           Y           Z
 ---------------------------------------------------------------------
      1          8           0        0.079899   -1.111068    0.000000
      2          1           0        0.078822   -0.128467    0.000000
      3          1           0       -0.849244   -1.430754    0.000000
      4          8           0        0.079899    0.952102    0.000000
      5          1           0        0.394725    1.882903    0.000000
      6          1           0       -0.902694    0.948045    0.000000
 ---------------------------------------------------------------------

 SCF Done:  E(RHF) =  -152.024889782     A.U. after   11 cycles
 E2 =    -0.5383449154D+00 EUMP2 =    -0.15256323469689D+03
 CCSD(T)
 CCSD(T)= -0.15258869560D+03

 The electronic state is 1-A'.
 Alpha  occ. eigenvalues --  -20.62018 -20.45374  -1.44736  -1.25344  -0.83251
 Alpha  occ. eigenvalues --   -0.73784  -0.58774  -0.55011  -0.45766  -0.41956
 Alpha virt. eigenvalues --    0.10365   0.15748   0.21744   0.31654   0.49476
 Alpha virt. eigenvalues --    0.51153   0.60186   0.64923   0.70441   0.71961
 Alpha virt. eigenvalues --    0.76161   0.79075   0.81444   0.85533   0.87711

 Mulliken charges:
               1
     1  O   -0.637497
     2  H    0.261816
     3  H    0.186975
     4  O   -0.280735
     5  H    0.228764
     6  H    0.240676
 Sum of Mulliken charges =  -0.00000

 Dipole moment (field-independent basis, Debye):
    X=             -2.4284    Y=              4.6129    Z=              0.0000  Tot=              5.2130
 Quadrupole moment (field-independent basis, Debye-Ang):
   XX=            -10.0452   YY=            -10.0927   ZZ=            -14.5112
   XY=              2.3961   XZ=              0.0000   YZ=              0.0000

 Normal termination of Gaussian 16 at Fri Aug 26 15:23:25 2022.
