 Gaussian 16, Revision A.03,
 Gaussian 16:  ES64L-G16RevA.03 25-Dec-2016

 ------------------
 #p CCSD(T)/cc-pVTZ
 ------------------

 ------------
 H2O_H2O_2582
 ------------
 Symbolic Z-matrix:
 Charge =  0 Multiplicity = 1

                         Standard orientation:
 ---------------------------------------------------------------------
 Center     Atomic      Atomic             Coordinates (Angstroms)
 Number     Number       Type             X           Y           Z
 ---------------------------------------------------------------------
      1          8           0        0.073542    2.132528   -0.000000
      2          1           0        0.072738    1.149927   -0.000000
      3          1           0       -0.855690    2.451955    0.000000
      4          8           0        0.073542   -1.965598   -0.000000
      5          1           0        0.507415   -2.847222   -0.000000
      6          1           0       -0.901140   -2.090100    0.000000
 ---------------------------------------------------------------------

 SCF Done:  E(RHF) =  -152.109886365     A.U. after   10 cycles
 E2 =    -0.5261406136D+00 EUMP2 =    -0.15263602697822D+03
 CCSD(T)
 CCSD(T)= -0.15266315561D+03

 The electronic state is 1-A'.
 Alpha  occ. eigenvalues --  -20.56889 -20.54446  -1.34162  -1.31766  -0.71578
 Alpha  occ. eigenvalues --   -0.69146  -0.57704  -0.55236  -0.51286  -0.48897
 Alpha virt. eigenvalues --    0.12066   0.16133   0.19447   0.23712   0.53422
 Alpha virt. eigenvalues --    0.55524   0.56177   0.58605   0.68822   0.70216
 Alpha virt. eigenvalues --    0.77475   0.79080   0.79967   0.80651   0.83211

 Mulliken charges:
               1
     1  O   -0.518191
     2  H    0.265050
     3  H    0.248477
     4  O   -0.508962
     5  H    0.259745
     6  H    0.253880
 Sum of Mulliken charges =  -0.00000

 Dipole moment (field-independent basis, Debye):
    X=             -2.4988    Y=             -3.0455    Z=              0.0000  Tot=              3.9394
 Quadrupole moment (field-independent basis, Debye-Ang):
   XX=             -9.8213   YY=             -7.8804   ZZ=            -14.7193
   XY=             -3.4331   XZ=             -0.0000   YZ=              0.0000

 Normal termination of Gaussian 16 at Fri Aug 26 15:46:56 2022.
