 Gaussian 16, Revision A.03,
 Gaussian 16:  ES64L-G16RevA.03 25-Dec-2016

 ------------------
 #p CCSD(T)/cc-pVTZ
 ------------------

 ------------
 H2O_H2O_3115
 ------------
 Symbolic Z-matrix:
 Charge =  0 Multiplicity = 1

                         Standard orientation:
 ---------------------------------------------------------------------
 Center     Atomic      Atomic             Coordinates (Angstroms)
 Number     Number       Type             X           Y           Z
 ---------------------------------------------------------------------
      1          8           0        0.044858    2.349258   -0.000000
      2          1           0        0.043051    1.366658   -0.000000
      3          1           0       -0.884047    2.669633   -0.000000
      4          8           0        0.044858   -2.168858    0.000000
      5          1           0        0.860857   -2.716264    0.000000
      6          1           0       -0.737596   -2.763224    0.000000
 ---------------------------------------------------------------------

 SCF Done:  E(RHF) =  -152.109740445     A.U. after   10 cycles
 E2 =    -0.5259124014D+00 EUMP2 =    -0.15263565284669D+03
 CCSD(T)
 CCSD(T)= -0.15266280020D+03

 The electronic state is 1-A'.
 Alpha  occ. eigenvalues --  -20.56597 -20.54482  -1.33877  -1.31801  -0.71277
 Alpha  occ. eigenvalues --   -0.69196  -0.57417  -0.55288  -0.51006  -0.48936
 Alpha virt. eigenvalues --    0.12567   0.15854   0.19481   0.22449   0.53236
 Alpha virt. eigenvalues --    0.55372   0.56394   0.58417   0.67925   0.69345
 Alpha virt. eigenvalues --    0.77895   0.79095   0.79321   0.79893   0.83210

 Mulliken charges:
               1
     1  O   -0.518706
     2  H    0.264117
     3  H    0.252048
     4  O   -0.514766
     5  H    0.260015
     6  H    0.257293
 Sum of Mulliken charges =  -0.00000

 Dipole moment (field-independent basis, Debye):
    X=             -1.5304    Y=             -3.2397    Z=              0.0000  Tot=              3.5830
 Quadrupole moment (field-independent basis, Debye-Ang):
   XX=             -9.1570   YY=             -7.1086   ZZ=            -14.7194
   XY=             -4.8677   XZ=              0.0000   YZ=             -0.0000

 Normal termination of Gaussian 16 at Fri Aug 26 19:51:03 2022.
