 Gaussian 16, Revision A.03,
 Gaussian 16:  ES64L-G16RevA.03 25-Dec-2016

 ------------------
 #p CCSD(T)/cc-pVTZ
 ------------------

 ------------
 H2O_H2O_1146
 ------------
 Symbolic Z-matrix:
 Charge =  0 Multiplicity = 1

                         Standard orientation:
 ---------------------------------------------------------------------
 Center     Atomic      Atomic             Coordinates (Angstroms)
 Number     Number       Type             X           Y           Z
 ---------------------------------------------------------------------
      1          8           0       -0.023332    1.556011    0.000000
      2          1           0       -0.019307    0.573418    0.000000
      3          1           0        0.904849    1.878481    0.000000
      4          8           0       -0.023332   -1.385691    0.000000
      5          1           0       -0.986259   -1.581332    0.000000
      6          1           0        0.474022   -2.233126    0.000000
 ---------------------------------------------------------------------

 SCF Done:  E(RHF) =  -152.113553476     A.U. after   10 cycles
 E2 =    -0.5280515885D+00 EUMP2 =    -0.15264160506406D+03
 CCSD(T)
 CCSD(T)= -0.15266851506D+03

 The electronic state is 1-A'.
 Alpha  occ. eigenvalues --  -20.58480 -20.52258  -1.35923  -1.29846  -0.73352
 Alpha  occ. eigenvalues --   -0.67917  -0.59666  -0.52995  -0.52973  -0.46982
 Alpha virt. eigenvalues --    0.12025   0.18171   0.18810   0.31175   0.49320
 Alpha virt. eigenvalues --    0.54630   0.55871   0.62263   0.68510   0.72991
 Alpha virt. eigenvalues --    0.73303   0.76968   0.82032   0.82425   0.84443

 Mulliken charges:
               1
     1  O   -0.561865
     2  H    0.287171
     3  H    0.248873
     4  O   -0.487410
     5  H    0.264131
     6  H    0.249099
 Sum of Mulliken charges =  -0.00000

 Dipole moment (field-independent basis, Debye):
    X=              0.7825    Y=             -3.5062    Z=              0.0000  Tot=              3.5925
 Quadrupole moment (field-independent basis, Debye-Ang):
   XX=             -9.3551   YY=             -8.6742   ZZ=            -14.7270
   XY=              3.8838   XZ=              0.0000   YZ=              0.0000

 Normal termination of Gaussian 16 at Fri Aug 26 22:44:15 2022.
