 Gaussian 16, Revision A.03,
 Gaussian 16:  ES64L-G16RevA.03 25-Dec-2016

 ------------------
 #p CCSD(T)/cc-pVTZ
 ------------------

 -----------
 H2O_H2O_937
 -----------
 Symbolic Z-matrix:
 Charge =  0 Multiplicity = 1

                         Standard orientation:
 ---------------------------------------------------------------------
 Center     Atomic      Atomic             Coordinates (Angstroms)
 Number     Number       Type             X           Y           Z
 ---------------------------------------------------------------------
      1          8           0        0.056069    1.480840    0.000000
      2          1           0        0.053814    0.498241    0.000000
      3          1           0       -0.872691    1.801638    0.000000
      4          8           0        0.056069   -1.302031   -0.000000
      5          1           0        0.749277   -1.998428   -0.000000
      6          1           0       -0.827502   -1.731924   -0.000000
 ---------------------------------------------------------------------

 SCF Done:  E(RHF) =  -152.112401875     A.U. after   10 cycles
 E2 =    -0.5290096019D+00 EUMP2 =    -0.15264141147712D+03
 CCSD(T)
 CCSD(T)= -0.15266821587D+03

 The electronic state is 1-A'.
 Alpha  occ. eigenvalues --  -20.58992 -20.51377  -1.36562  -1.29128  -0.73749
 Alpha  occ. eigenvalues --   -0.68312  -0.59693  -0.53585  -0.52068  -0.46219
 Alpha virt. eigenvalues --    0.11704   0.17717   0.19261   0.32208   0.48185
 Alpha virt. eigenvalues --    0.54540   0.58093   0.60396   0.69883   0.71920
 Alpha virt. eigenvalues --    0.72620   0.77390   0.82150   0.82754   0.84685

 Mulliken charges:
               1
     1  O   -0.570287
     2  H    0.301318
     3  H    0.236281
     4  O   -0.484957
     5  H    0.262234
     6  H    0.255412
 Sum of Mulliken charges =  -0.00000

 Dipole moment (field-independent basis, Debye):
    X=             -1.8420    Y=             -3.8144    Z=             -0.0000  Tot=              4.2358
 Quadrupole moment (field-independent basis, Debye-Ang):
   XX=             -9.2923   YY=             -8.8377   ZZ=            -14.7203
   XY=             -3.2652   XZ=             -0.0000   YZ=             -0.0000

 Normal termination of Gaussian 16 at Fri Aug 26 21:26:44 2022.
