 Gaussian 16, Revision A.03,
 Gaussian 16:  ES64L-G16RevA.03 25-Dec-2016

 ------------------
 #p CCSD(T)/cc-pVTZ
 ------------------

 ------------
 H2O_H2O_1578
 ------------
 Symbolic Z-matrix:
 Charge =  0 Multiplicity = 1

                         Standard orientation:
 ---------------------------------------------------------------------
 Center     Atomic      Atomic             Coordinates (Angstroms)
 Number     Number       Type             X           Y           Z
 ---------------------------------------------------------------------
      1          8           0        0.085609   -1.724225    0.000000
      2          1           0        0.085231   -0.741624    0.000000
      3          1           0       -0.843762   -2.043249    0.000000
      4          8           0        0.085609    1.574646    0.000000
      5          1           0        0.276934    2.538441    0.000000
      6          1           0       -0.888143    1.443063    0.000000
 ---------------------------------------------------------------------

 SCF Done:  E(RHF) =  -152.110478766     A.U. after   10 cycles
 E2 =    -0.5272995936D+00 EUMP2 =    -0.15263777835985D+03
 CCSD(T)
 CCSD(T)= -0.15266484636D+03

 The electronic state is 1-A'.
 Alpha  occ. eigenvalues --  -20.57784 -20.54049  -1.35110  -1.31415  -0.72688
 Alpha  occ. eigenvalues --   -0.68768  -0.58690  -0.54788  -0.52194  -0.48530
 Alpha virt. eigenvalues --    0.11638   0.16503   0.19998   0.27641   0.50128
 Alpha virt. eigenvalues --    0.55056   0.57543   0.57903   0.68696   0.74399
 Alpha virt. eigenvalues --    0.74655   0.77570   0.80722   0.82487   0.83600

 Mulliken charges:
               1
     1  O   -0.524987
     2  H    0.272820
     3  H    0.240984
     4  O   -0.489866
     5  H    0.253158
     6  H    0.247892
 Sum of Mulliken charges =  -0.00000

 Dipole moment (field-independent basis, Debye):
    X=             -2.8664    Y=              2.8963    Z=              0.0000  Tot=              4.0749
 Quadrupole moment (field-independent basis, Debye-Ang):
   XX=            -10.4414   YY=             -8.7271   ZZ=            -14.7187
   XY=              2.6191   XZ=              0.0000   YZ=              0.0000

 Normal termination of Gaussian 16 at Sat Aug 27 23:26:26 2022.
