 Gaussian 16, Revision A.03,
 Gaussian 16:  ES64L-G16RevA.03 25-Dec-2016

 ------------------
 #p CCSD(T)/cc-pVTZ
 ------------------

 ------------
 H2O_H2O_1829
 ------------
 Symbolic Z-matrix:
 Charge =  0 Multiplicity = 1

                         Standard orientation:
 ---------------------------------------------------------------------
 Center     Atomic      Atomic             Coordinates (Angstroms)
 Number     Number       Type             X           Y           Z
 ---------------------------------------------------------------------
      1          8           0        0.082813   -1.826617    0.000000
      2          1           0        0.082320   -0.844016    0.000000
      3          1           0       -0.846521   -2.145749    0.000000
      4          8           0        0.082813    1.672118    0.000000
      5          1           0        0.336653    2.621366    0.000000
      6          1           0       -0.897453    1.604389    0.000000
 ---------------------------------------------------------------------

 SCF Done:  E(RHF) =  -152.110588007     A.U. after   10 cycles
 E2 =    -0.5268217464D+00 EUMP2 =    -0.15263740975334D+03
 CCSD(T)
 CCSD(T)= -0.15266449504D+03

 The electronic state is 1-A'.
 Alpha  occ. eigenvalues --  -20.57500 -20.54180  -1.34790  -1.31523  -0.72278
 Alpha  occ. eigenvalues --   -0.68889  -0.58376  -0.54939  -0.51895  -0.48647
 Alpha virt. eigenvalues --    0.11729   0.16475   0.19787   0.26455   0.51050
 Alpha virt. eigenvalues --    0.55498   0.56831   0.57913   0.68855   0.73916
 Alpha virt. eigenvalues --    0.75528   0.78190   0.80459   0.83016   0.83463

 Mulliken charges:
               1
     1  O   -0.522045
     2  H    0.269044
     3  H    0.243582
     4  O   -0.499099
     5  H    0.258053
     6  H    0.250465
 Sum of Mulliken charges =  -0.00000

 Dipole moment (field-independent basis, Debye):
    X=             -2.7872    Y=              2.9295    Z=              0.0000  Tot=              4.0436
 Quadrupole moment (field-independent basis, Debye-Ang):
   XX=            -10.2791   YY=             -8.5336   ZZ=            -14.7212
   XY=              2.8088   XZ=              0.0000   YZ=              0.0000

 Normal termination of Gaussian 16 at Sun Aug 28 01:57:55 2022.
