 Gaussian 16, Revision A.03,
 Gaussian 16:  ES64L-G16RevA.03 25-Dec-2016

 ------------------
 #p CCSD(T)/cc-pVTZ
 ------------------

 ------------
 H2O_H2O_4254
 ------------
 Symbolic Z-matrix:
 Charge =  0 Multiplicity = 1

                         Standard orientation:
 ---------------------------------------------------------------------
 Center     Atomic      Atomic             Coordinates (Angstroms)
 Number     Number       Type             X           Y           Z
 ---------------------------------------------------------------------
      1          8           0        0.082799    2.793909   -0.000000
      2          1           0        0.082482    1.811308   -0.000000
      3          1           0       -0.846591    3.112875   -0.000000
      4          8           0        0.082799   -2.639381    0.000000
      5          1           0        0.336808   -3.588583    0.000000
      6          1           0       -0.897478   -2.571826    0.000000
 ---------------------------------------------------------------------

 SCF Done:  E(RHF) =  -152.107995906     A.U. after   10 cycles
 E2 =    -0.5258608651D+00 EUMP2 =    -0.15263385677152D+03
 CCSD(T)
 CCSD(T)= -0.15266106129D+03

 The electronic state is 1-A'.
 Alpha  occ. eigenvalues --  -20.56249 -20.55132  -1.33550  -1.32436  -0.70963
 Alpha  occ. eigenvalues --   -0.69832  -0.57024  -0.55895  -0.50664  -0.49553
 Alpha virt. eigenvalues --    0.12860   0.14916   0.19233   0.21460   0.53261
 Alpha virt. eigenvalues --    0.54934   0.56551   0.57796   0.66782   0.68731
 Alpha virt. eigenvalues --    0.78229   0.79312   0.79313   0.80951   0.82425

 Mulliken charges:
               1
     1  O   -0.511222
     2  H    0.259089
     3  H    0.251960
     4  O   -0.512274
     5  H    0.258823
     6  H    0.253624
 Sum of Mulliken charges =  -0.00000

 Dipole moment (field-independent basis, Debye):
    X=             -2.8372    Y=             -2.7181    Z=              0.0000  Tot=              3.9291
 Quadrupole moment (field-independent basis, Debye-Ang):
   XX=            -10.2452   YY=             -7.8678   ZZ=            -14.7132
   XY=             -3.1646   XZ=              0.0000   YZ=             -0.0000

 Normal termination of Gaussian 16 at Sun Aug 28 01:15:17 2022.
