 Gaussian 16, Revision A.03,
 Gaussian 16:  ES64L-G16RevA.03 25-Dec-2016

 ------------------
 #p CCSD(T)/cc-pVTZ
 ------------------

 ------------
 H2O_H2O_1677
 ------------
 Symbolic Z-matrix:
 Charge =  0 Multiplicity = 1

                         Standard orientation:
 ---------------------------------------------------------------------
 Center     Atomic      Atomic             Coordinates (Angstroms)
 Number     Number       Type             X           Y           Z
 ---------------------------------------------------------------------
      1          8           0        0.088236   -1.761250    0.000000
      2          1           0        0.087999   -0.778649    0.000000
      3          1           0       -0.841180   -2.080141    0.000000
      4          8           0        0.088236    1.616941    0.000000
      5          1           0        0.216257    2.591167    0.000000
      6          1           0       -0.874853    1.422091    0.000000
 ---------------------------------------------------------------------

 SCF Done:  E(RHF) =  -152.109944159     A.U. after   10 cycles
 E2 =    -0.5271532647D+00 EUMP2 =    -0.15263709742351D+03
 CCSD(T)
 CCSD(T)= -0.15266418733D+03

 The electronic state is 1-A'.
 Alpha  occ. eigenvalues --  -20.57653 -20.54312  -1.34971  -1.31658  -0.72555
 Alpha  occ. eigenvalues --   -0.68973  -0.58519  -0.55050  -0.52055  -0.48770
 Alpha virt. eigenvalues --    0.11586   0.16377   0.20111   0.27033   0.50587
 Alpha virt. eigenvalues --    0.55099   0.57469   0.57677   0.68383   0.74556
 Alpha virt. eigenvalues --    0.74779   0.77831   0.80467   0.82532   0.83467

 Mulliken charges:
               1
     1  O   -0.521451
     2  H    0.270558
     3  H    0.241795
     4  O   -0.492124
     5  H    0.254592
     6  H    0.246629
 Sum of Mulliken charges =  -0.00000

 Dipole moment (field-independent basis, Debye):
    X=             -2.9594    Y=              2.7661    Z=              0.0000  Tot=              4.0509
 Quadrupole moment (field-independent basis, Debye-Ang):
   XX=            -10.5939   YY=             -8.8290   ZZ=            -14.7170
   XY=              2.4711   XZ=              0.0000   YZ=              0.0000

 Normal termination of Gaussian 16 at Sun Aug 28 00:30:43 2022.
