 Gaussian 16, Revision A.03,
 Gaussian 16:  ES64L-G16RevA.03 25-Dec-2016

 ------------------
 #p CCSD(T)/cc-pVTZ
 ------------------

 ------------
 H2O_H2O_2071
 ------------
 Symbolic Z-matrix:
 Charge =  0 Multiplicity = 1

                         Standard orientation:
 ---------------------------------------------------------------------
 Center     Atomic      Atomic             Coordinates (Angstroms)
 Number     Number       Type             X           Y           Z
 ---------------------------------------------------------------------
      1          8           0       -0.023262    1.924989    0.000000
      2          1           0       -0.020045    0.942393    0.000000
      3          1           0        0.905183    2.246697    0.000000
      4          8           0       -0.023262   -1.754631    0.000000
      5          1           0       -0.986350   -1.949481    0.000000
      6          1           0        0.473396   -2.602474    0.000000
 ---------------------------------------------------------------------

 SCF Done:  E(RHF) =  -152.112029444     A.U. after   10 cycles
 E2 =    -0.5263310367D+00 EUMP2 =    -0.15263836048109D+03
 CCSD(T)
 CCSD(T)= -0.15266543418D+03

 The electronic state is 1-A'.
 Alpha  occ. eigenvalues --  -20.57256 -20.53899  -1.34521  -1.31252  -0.71926
 Alpha  occ. eigenvalues --   -0.68680  -0.58192  -0.54720  -0.51657  -0.48406
 Alpha virt. eigenvalues --    0.12237   0.16903   0.19196   0.25963   0.52658
 Alpha virt. eigenvalues --    0.54790   0.56172   0.58879   0.68935   0.72515
 Alpha virt. eigenvalues --    0.76423   0.78388   0.80532   0.83483   0.83916

 Mulliken charges:
               1
     1  O   -0.530025
     2  H    0.267603
     3  H    0.252744
     4  O   -0.509818
     5  H    0.261276
     6  H    0.258220
 Sum of Mulliken charges =  -0.00000

 Dipole moment (field-independent basis, Debye):
    X=              0.7918    Y=             -3.1888    Z=              0.0000  Tot=              3.2857
 Quadrupole moment (field-independent basis, Debye-Ang):
   XX=             -9.3625   YY=             -8.0371   ZZ=            -14.7274
   XY=              4.7882   XZ=              0.0000   YZ=              0.0000

 Normal termination of Gaussian 16 at Sun Aug 28 04:07:19 2022.
