 Gaussian 16, Revision A.03,
 Gaussian 16:  ES64L-G16RevA.03 25-Dec-2016

 ------------------
 #p CCSD(T)/cc-pVTZ
 ------------------

 ------------
 H2O_H2O_2262
 ------------
 Symbolic Z-matrix:
 Charge =  0 Multiplicity = 1

                         Standard orientation:
 ---------------------------------------------------------------------
 Center     Atomic      Atomic             Coordinates (Angstroms)
 Number     Number       Type             X           Y           Z
 ---------------------------------------------------------------------
      1          8           0        0.056012    2.009387   -0.000000
      2          1           0        0.054378    1.026787   -0.000000
      3          1           0       -0.872949    2.329598   -0.000000
      4          8           0        0.056012   -1.830507    0.000000
      5          1           0        0.749661   -2.526466    0.000000
      6          1           0       -0.827287   -2.260958    0.000000
 ---------------------------------------------------------------------

 SCF Done:  E(RHF) =  -152.111347809     A.U. after   10 cycles
 E2 =    -0.5262449357D+00 EUMP2 =    -0.15263759274484D+03
 CCSD(T)
 CCSD(T)= -0.15266468325D+03

 The electronic state is 1-A'.
 Alpha  occ. eigenvalues --  -20.57129 -20.53972  -1.34385  -1.31313  -0.71779
 Alpha  occ. eigenvalues --   -0.68711  -0.58009  -0.54786  -0.51521  -0.48457
 Alpha virt. eigenvalues --    0.12227   0.16638   0.19284   0.25002   0.52221
 Alpha virt. eigenvalues --    0.55511   0.56225   0.58963   0.68971   0.71673
 Alpha virt. eigenvalues --    0.76944   0.78253   0.80418   0.82733   0.83567

 Mulliken charges:
               1
     1  O   -0.524609
     2  H    0.267691
     3  H    0.248729
     4  O   -0.508697
     5  H    0.260869
     6  H    0.256017
 Sum of Mulliken charges =  -0.00000

 Dipole moment (field-independent basis, Debye):
    X=             -1.8987    Y=             -3.3162    Z=              0.0000  Tot=              3.8213
 Quadrupole moment (field-independent basis, Debye-Ang):
   XX=             -9.2914   YY=             -7.7149   ZZ=            -14.7248
   XY=             -3.9765   XZ=              0.0000   YZ=             -0.0000

 Normal termination of Gaussian 16 at Sun Aug 28 05:51:04 2022.
