 Gaussian 16, Revision A.03,
 Gaussian 16:  ES64L-G16RevA.03 25-Dec-2016

 ------------------
 #p CCSD(T)/cc-pVTZ
 ------------------

 ------------
 H2O_H2O_4214
 ------------
 Symbolic Z-matrix:
 Charge =  0 Multiplicity = 1

                         Standard orientation:
 ---------------------------------------------------------------------
 Center     Atomic      Atomic             Coordinates (Angstroms)
 Number     Number       Type             X           Y           Z
 ---------------------------------------------------------------------
      1          8           0        0.048558    2.788029   -0.000000
      2          1           0        0.047162    1.805429   -0.000000
      3          1           0       -0.880481    3.108016   -0.000000
      4          8           0        0.048558   -2.607614    0.000000
      5          1           0        0.827258   -3.206891    0.000000
      6          1           0       -0.770868   -3.149875    0.000000
 ---------------------------------------------------------------------

 SCF Done:  E(RHF) =  -152.108580656     A.U. after   10 cycles
 E2 =    -0.5258141585D+00 EUMP2 =    -0.15263439481462D+03
 CCSD(T)
 CCSD(T)= -0.15266158608D+03

 The electronic state is 1-A'.
 Alpha  occ. eigenvalues --  -20.56242 -20.54873  -1.33542  -1.32182  -0.70946
 Alpha  occ. eigenvalues --   -0.69582  -0.57042  -0.55655  -0.50662  -0.49306
 Alpha virt. eigenvalues --    0.13214   0.15075   0.19669   0.21180   0.53606
 Alpha virt. eigenvalues --    0.54879   0.56620   0.57814   0.66709   0.68958
 Alpha virt. eigenvalues --    0.78228   0.79545   0.79619   0.79792   0.82814

 Mulliken charges:
               1
     1  O   -0.514485
     2  H    0.261148
     3  H    0.253058
     4  O   -0.515149
     5  H    0.258745
     6  H    0.256684
 Sum of Mulliken charges =  -0.00000

 Dipole moment (field-independent basis, Debye):
    X=             -1.6640    Y=             -3.1763    Z=              0.0000  Tot=              3.5858
 Quadrupole moment (field-independent basis, Debye-Ang):
   XX=             -9.1821   YY=             -6.4030   ZZ=            -14.7154
   XY=             -5.3924   XZ=              0.0000   YZ=             -0.0000

 Normal termination of Gaussian 16 at Sun Aug 28 00:52:23 2022.
