 Gaussian 16, Revision A.03,
 Gaussian 16:  ES64L-G16RevA.03 25-Dec-2016

 ------------------
 #p CCSD(T)/cc-pVTZ
 ------------------

 -----------
 H2O_H2O_837
 -----------
 Symbolic Z-matrix:
 Charge =  0 Multiplicity = 1

                         Standard orientation:
 ---------------------------------------------------------------------
 Center     Atomic      Atomic             Coordinates (Angstroms)
 Number     Number       Type             X           Y           Z
 ---------------------------------------------------------------------
      1          8           0        0.056075    1.440949    0.000000
      2          1           0        0.053754    0.458350    0.000000
      3          1           0       -0.872663    1.761810   -0.000000
      4          8           0        0.056075   -1.262147    0.000000
      5          1           0        0.749236   -1.958590    0.000000
      6          1           0       -0.827525   -1.691980   -0.000000
 ---------------------------------------------------------------------

 SCF Done:  E(RHF) =  -152.111084409     A.U. after   10 cycles
 E2 =    -0.5295226709D+00 EUMP2 =    -0.15264060708031D+03
 CCSD(T)
 CCSD(T)= -0.15266734218D+03

 The electronic state is 1-A'.
 Alpha  occ. eigenvalues --  -20.59235 -20.50929  -1.36929  -1.28791  -0.74049
 Alpha  occ. eigenvalues --   -0.68667  -0.59615  -0.53902  -0.51599  -0.45859
 Alpha virt. eigenvalues --    0.11618   0.17684   0.19375   0.32643   0.48017
 Alpha virt. eigenvalues --    0.54361   0.58902   0.60661   0.70059   0.72094
 Alpha virt. eigenvalues --    0.72487   0.77608   0.81919   0.82926   0.84575

 Mulliken charges:
               1
     1  O   -0.578413
     2  H    0.305846
     3  H    0.234020
     4  O   -0.476931
     5  H    0.261255
     6  H    0.254223
 Sum of Mulliken charges =  -0.00000

 Dipole moment (field-independent basis, Debye):
    X=             -1.8323    Y=             -3.8978    Z=              0.0000  Tot=              4.3070
 Quadrupole moment (field-independent basis, Debye-Ang):
   XX=             -9.2897   YY=             -8.9575   ZZ=            -14.7131
   XY=             -3.2056   XZ=             -0.0000   YZ=              0.0000

 Normal termination of Gaussian 16 at Fri Aug 26 20:49:02 2022.
