 Gaussian 16, Revision A.03,
 Gaussian 16:  ES64L-G16RevA.03 25-Dec-2016

 ------------------
 #p CCSD(T)/cc-pVTZ
 ------------------

 ------------
 H2O_H2O_1507
 ------------
 Symbolic Z-matrix:
 Charge =  0 Multiplicity = 1

                         Standard orientation:
 ---------------------------------------------------------------------
 Center     Atomic      Atomic             Coordinates (Angstroms)
 Number     Number       Type             X           Y           Z
 ---------------------------------------------------------------------
      1          8           0        0.073560    1.703719   -0.000000
      2          1           0        0.072543    0.721118   -0.000000
      3          1           0       -0.855602    2.023347    0.000000
      4          8           0        0.073560   -1.536821   -0.000000
      5          1           0        0.507242   -2.418538   -0.000000
      6          1           0       -0.901149   -1.661113    0.000000
 ---------------------------------------------------------------------

 SCF Done:  E(RHF) =  -152.112212008     A.U. after   10 cycles
 E2 =    -0.5272826954D+00 EUMP2 =    -0.15263949470328D+03
 CCSD(T)
 CCSD(T)= -0.15266651829D+03

 The electronic state is 1-A'.
 Alpha  occ. eigenvalues --  -20.57918 -20.53410  -1.35228  -1.30820  -0.72678
 Alpha  occ. eigenvalues --   -0.68337  -0.58919  -0.54169  -0.52333  -0.47950
 Alpha virt. eigenvalues --    0.11827   0.16928   0.19510   0.28471   0.49620
 Alpha virt. eigenvalues --    0.55154   0.57039   0.58613   0.69598   0.73821
 Alpha virt. eigenvalues --    0.74275   0.76913   0.81205   0.82793   0.84137

 Mulliken charges:
               1
     1  O   -0.533088
     2  H    0.276282
     3  H    0.241592
     4  O   -0.495679
     5  H    0.257695
     6  H    0.253198
 Sum of Mulliken charges =  -0.00000

 Dipole moment (field-independent basis, Debye):
    X=             -2.4621    Y=             -3.2631    Z=              0.0000  Tot=              4.0877
 Quadrupole moment (field-independent basis, Debye-Ang):
   XX=             -9.8401   YY=             -8.4341   ZZ=            -14.7270
   XY=             -3.1324   XZ=             -0.0000   YZ=              0.0000

 Normal termination of Gaussian 16 at Sat Aug 27 01:00:31 2022.
