 Gaussian 16, Revision A.03,
 Gaussian 16:  ES64L-G16RevA.03 25-Dec-2016

 ------------------
 #p CCSD(T)/cc-pVTZ
 ------------------

 -----------
 H2O_H2O_204
 -----------
 Symbolic Z-matrix:
 Charge =  0 Multiplicity = 1

                         Standard orientation:
 ---------------------------------------------------------------------
 Center     Atomic      Atomic             Coordinates (Angstroms)
 Number     Number       Type             X           Y           Z
 ---------------------------------------------------------------------
      1          8           0        0.082835   -1.178417    0.000000
      2          1           0        0.082053   -0.195816    0.000000
      3          1           0       -0.846404   -1.497823    0.000000
      4          8           0        0.082835    1.023967    0.000000
      5          1           0        0.336396    1.973290    0.000000
      6          1           0       -0.897409    0.955949    0.000000
 ---------------------------------------------------------------------

 SCF Done:  E(RHF) =  -152.061931623     A.U. after   11 cycles
 E2 =    -0.5363193871D+00 EUMP2 =    -0.15259825101054D+03
 CCSD(T)
 CCSD(T)= -0.15262413091D+03

 The electronic state is 1-A'.
 Alpha  occ. eigenvalues --  -20.61229 -20.47733  -1.41905  -1.26818  -0.80716
 Alpha  occ. eigenvalues --   -0.71300  -0.57159  -0.57010  -0.48353  -0.43617
 Alpha virt. eigenvalues --    0.10740   0.16129   0.21284   0.32276   0.49290
 Alpha virt. eigenvalues --    0.51676   0.59781   0.65333   0.71501   0.72630
 Alpha virt. eigenvalues --    0.76420   0.77686   0.80199   0.84595   0.85836

 Mulliken charges:
               1
     1  O   -0.607994
     2  H    0.277727
     3  H    0.199209
     4  O   -0.333918
     5  H    0.228951
     6  H    0.236025
 Sum of Mulliken charges =  -0.00000

 Dipole moment (field-independent basis, Debye):
    X=             -2.5781    Y=              4.1697    Z=              0.0000  Tot=              4.9023
 Quadrupole moment (field-independent basis, Debye-Ang):
   XX=            -10.2316   YY=             -9.7635   ZZ=            -14.5707
   XY=              2.4036   XZ=              0.0000   YZ=              0.0000

 Normal termination of Gaussian 16 at Fri Aug 26 16:35:06 2022.
