 Gaussian 16, Revision A.03,
 Gaussian 16:  ES64L-G16RevA.03 25-Dec-2016

 ------------------
 #p CCSD(T)/cc-pVTZ
 ------------------

 ------------
 H2O_H2O_2557
 ------------
 Symbolic Z-matrix:
 Charge =  0 Multiplicity = 1

                         Standard orientation:
 ---------------------------------------------------------------------
 Center     Atomic      Atomic             Coordinates (Angstroms)
 Number     Number       Type             X           Y           Z
 ---------------------------------------------------------------------
      1          8           0        0.073543    2.122556    0.000000
      2          1           0        0.072734    1.139955    0.000000
      3          1           0       -0.855688    2.441986    0.000000
      4          8           0        0.073543   -1.955626    0.000000
      5          1           0        0.507412   -2.837252    0.000000
      6          1           0       -0.901140   -2.080125    0.000000
 ---------------------------------------------------------------------

 SCF Done:  E(RHF) =  -152.109932243     A.U. after   10 cycles
 E2 =    -0.5261520268D+00 EUMP2 =    -0.15263608426938D+03
 CCSD(T)
 CCSD(T)= -0.15266321117D+03

 The electronic state is 1-A'.
 Alpha  occ. eigenvalues --  -20.56905 -20.54432  -1.34178  -1.31753  -0.71594
 Alpha  occ. eigenvalues --   -0.69133  -0.57721  -0.55222  -0.51302  -0.48883
 Alpha virt. eigenvalues --    0.12060   0.16153   0.19448   0.23787   0.53380
 Alpha virt. eigenvalues --    0.55549   0.56166   0.58596   0.68821   0.70332
 Alpha virt. eigenvalues --    0.77443   0.79074   0.79983   0.80735   0.83227

 Mulliken charges:
               1
     1  O   -0.518365
     2  H    0.265162
     3  H    0.248379
     4  O   -0.508765
     5  H    0.259737
     6  H    0.253853
 Sum of Mulliken charges =  -0.00000

 Dipole moment (field-independent basis, Debye):
    X=             -2.4983    Y=             -3.0485    Z=             -0.0000  Tot=              3.9414
 Quadrupole moment (field-independent basis, Debye-Ang):
   XX=             -9.8217   YY=             -7.8920   ZZ=            -14.7195
   XY=             -3.4262   XZ=             -0.0000   YZ=             -0.0000

 CCSD(T)=-152.6632112\RMSD=6.869e-09\PG=CS [SG(H4O2)]\\@
 Normal termination of Gaussian 16 at Fri Aug 26 15:35:53 2022.
