 Gaussian 16, Revision A.03,
 Gaussian 16:  ES64L-G16RevA.03 25-Dec-2016

 ------------------
 #p CCSD(T)/cc-pVTZ
 ------------------

 ------------
 H2O_H2O_4527
 ------------
 Symbolic Z-matrix:
 Charge =  0 Multiplicity = 1

                         Standard orientation:
 ---------------------------------------------------------------------
 Center     Atomic      Atomic             Coordinates (Angstroms)
 Number     Number       Type             X           Y           Z
 ---------------------------------------------------------------------
      1          8           0        0.088229   -2.898059    0.000000
      2          1           0        0.088087   -1.915457    0.000000
      3          1           0       -0.841218   -3.216859    0.000000
      4          8           0        0.088229    2.753733    0.000000
      5          1           0        0.216344    3.727947    0.000000
      6          1           0       -0.874878    2.558977    0.000000
 ---------------------------------------------------------------------

 SCF Done:  E(RHF) =  -152.107769294     A.U. after   10 cycles
 E2 =    -0.5258641544D+00 EUMP2 =    -0.15263363344866D+03
 CCSD(T)
 CCSD(T)= -0.15266084489D+03

 The electronic state is 1-A'.
 Alpha  occ. eigenvalues --  -20.56202 -20.55260  -1.33503  -1.32562  -0.70917
 Alpha  occ. eigenvalues --   -0.69959  -0.56968  -0.56017  -0.50615  -0.49676
 Alpha virt. eigenvalues --    0.12929   0.14747   0.19094   0.21446   0.53308
 Alpha virt. eigenvalues --    0.54829   0.56571   0.57695   0.66918   0.68497
 Alpha virt. eigenvalues --    0.78275   0.79194   0.79605   0.81137   0.81811

 Mulliken charges:
               1
     1  O   -0.510229
     2  H    0.257961
     3  H    0.252200
     4  O   -0.511235
     5  H    0.258272
     6  H    0.253032
 Sum of Mulliken charges =  -0.00000

 Dipole moment (field-independent basis, Debye):
    X=             -3.0258    Y=              2.5319    Z=              0.0000  Tot=              3.9454
 Quadrupole moment (field-independent basis, Debye-Ang):
   XX=            -10.5496   YY=             -8.4748   ZZ=            -14.7123
   XY=              2.6830   XZ=              0.0000   YZ=              0.0000

 Normal termination of Gaussian 16 at Sun Aug 28 03:38:30 2022.
