 Gaussian 16, Revision A.03,
 Gaussian 16:  ES64L-G16RevA.03 25-Dec-2016

 ------------------
 #p CCSD(T)/cc-pVTZ
 ------------------

 -----------
 H2O_H2O_742
 -----------
 Symbolic Z-matrix:
 Charge =  0 Multiplicity = 1

                         Standard orientation:
 ---------------------------------------------------------------------
 Center     Atomic      Atomic             Coordinates (Angstroms)
 Number     Number       Type             X           Y           Z
 ---------------------------------------------------------------------
      1          8           0        0.037584    1.401092   -0.000000
      2          1           0        0.033992    0.418497   -0.000000
      3          1           0       -0.890738    1.723153   -0.000000
      4          8           0        0.037584   -1.222243    0.000000
      5          1           0        0.917258   -1.660054    0.000000
      6          1           0       -0.661852   -1.912385    0.000000
 ---------------------------------------------------------------------

 SCF Done:  E(RHF) =  -152.109554102     A.U. after   10 cycles
 E2 =    -0.5299485887D+00 EUMP2 =    -0.15263950269074D+03
 CCSD(T)
 CCSD(T)= -0.15266614894D+03

 The electronic state is 1-A'.
 Alpha  occ. eigenvalues --  -20.59473 -20.50292  -1.37334  -1.28314  -0.74375
 Alpha  occ. eigenvalues --   -0.69084  -0.59532  -0.54245  -0.50916  -0.45365
 Alpha virt. eigenvalues --    0.11629   0.18136   0.19169   0.33185   0.47819
 Alpha virt. eigenvalues --    0.54243   0.58313   0.63714   0.68885   0.72413
 Alpha virt. eigenvalues --    0.72428   0.77990   0.81610   0.83120   0.84362

 Mulliken charges:
               1
     1  O   -0.593505
     2  H    0.308134
     3  H    0.237243
     4  O   -0.468946
     5  H    0.264339
     6  H    0.252736
 Sum of Mulliken charges =  -0.00000

 Dipole moment (field-independent basis, Debye):
    X=             -1.2255    Y=             -4.0005    Z=              0.0000  Tot=              4.1840
 Quadrupole moment (field-independent basis, Debye-Ang):
   XX=             -9.1412   YY=             -9.0913   ZZ=            -14.7059
   XY=             -3.2992   XZ=              0.0000   YZ=             -0.0000

 Normal termination of Gaussian 16 at Fri Aug 26 20:13:44 2022.
