 Gaussian 16, Revision A.03,
 Gaussian 16:  ES64L-G16RevA.03 25-Dec-2016

 ------------------
 #p CCSD(T)/cc-pVTZ
 ------------------

 ---------
 H2O_H2O_4
 ---------
 Symbolic Z-matrix:
 Charge =  0 Multiplicity = 1

                         Standard orientation:
 ---------------------------------------------------------------------
 Center     Atomic      Atomic             Coordinates (Angstroms)
 Number     Number       Type             X           Y           Z
 ---------------------------------------------------------------------
      1          8           0        0.082840   -1.098636    0.000000
      2          1           0        0.081997   -0.116035    0.000000
      3          1           0       -0.846379   -1.418100    0.000000
      4          8           0        0.082840    0.944197    0.000000
      5          1           0        0.336342    1.893535    0.000000
      6          1           0       -0.897400    0.876118    0.000000
 ---------------------------------------------------------------------

 SCF Done:  E(RHF) =  -152.014598211     A.U. after   11 cycles
 E2 =    -0.5390945731D+00 EUMP2 =    -0.15255369278431D+03
 CCSD(T)
 CCSD(T)= -0.15257908595D+03

 The electronic state is 1-A'.
 Alpha  occ. eigenvalues --  -20.62071 -20.45344  -1.45380  -1.25364  -0.84124
 Alpha  occ. eigenvalues --   -0.73468  -0.58998  -0.54930  -0.45742  -0.41987
 Alpha virt. eigenvalues --    0.10352   0.15636   0.21892   0.31412   0.49527
 Alpha virt. eigenvalues --    0.50831   0.60296   0.65331   0.70230   0.71984
 Alpha virt. eigenvalues --    0.75722   0.78956   0.81346   0.85824   0.87626

 Mulliken charges:
               1
     1  O   -0.634747
     2  H    0.252354
     3  H    0.183360
     4  O   -0.269302
     5  H    0.227186
     6  H    0.241149
 Sum of Mulliken charges =  -0.00000

 Dipole moment (field-independent basis, Debye):
    X=             -2.5172    Y=              4.5587    Z=              0.0000  Tot=              5.2075
 Quadrupole moment (field-independent basis, Debye-Ang):
   XX=            -10.1845   YY=            -10.1237   ZZ=            -14.4942
   XY=              2.3029   XZ=              0.0000   YZ=              0.0000

 Normal termination of Gaussian 16 at Fri Aug 26 15:12:59 2022.
