 Gaussian 16, Revision A.03,
 Gaussian 16:  ES64L-G16RevA.03 25-Dec-2016

 ------------------
 #p CCSD(T)/cc-pVTZ
 ------------------

 -----------
 H2O_H2O_376
 -----------
 Symbolic Z-matrix:
 Charge =  0 Multiplicity = 1

                         Standard orientation:
 ---------------------------------------------------------------------
 Center     Atomic      Atomic             Coordinates (Angstroms)
 Number     Number       Type             X           Y           Z
 ---------------------------------------------------------------------
      1          8           0        0.090690   -1.239660    0.000000
      2          1           0        0.090526   -0.257058    0.000000
      3          1           0       -0.838749   -1.558482    0.000000
      4          8           0        0.090690    1.100966    0.000000
      5          1           0        0.154791    2.081475    0.000000
      6          1           0       -0.857612    0.843615    0.000000
 ---------------------------------------------------------------------

 SCF Done:  E(RHF) =  -152.078337922     A.U. after   11 cycles
 E2 =    -0.5349267781D+00 EUMP2 =    -0.15261326470015D+03
 CCSD(T)
 CCSD(T)= -0.15263954294D+03

 The electronic state is 1-A'.
 Alpha  occ. eigenvalues --  -20.60434 -20.50240  -1.40074  -1.28623  -0.79514
 Alpha  occ. eigenvalues --   -0.68577  -0.58926  -0.55844  -0.50996  -0.45546
 Alpha virt. eigenvalues --    0.11092   0.16258   0.21247   0.32299   0.48910
 Alpha virt. eigenvalues --    0.51457   0.59287   0.66045   0.71357   0.72360
 Alpha virt. eigenvalues --    0.74610   0.76679   0.79045   0.82677   0.84485

 Mulliken charges:
               1
     1  O   -0.573542
     2  H    0.278284
     3  H    0.206866
     4  O   -0.369699
     5  H    0.227828
     6  H    0.230263
 Sum of Mulliken charges =   0.00000

 Dipole moment (field-independent basis, Debye):
    X=             -2.8872    Y=              3.5379    Z=              0.0000  Tot=              4.5665
 Quadrupole moment (field-independent basis, Debye-Ang):
   XX=            -10.7144   YY=             -9.5771   ZZ=            -14.6032
   XY=              2.1206   XZ=              0.0000   YZ=              0.0000

 Normal termination of Gaussian 16 at Fri Aug 26 17:48:06 2022.
