 Gaussian 16, Revision A.03,
 Gaussian 16:  ES64L-G16RevA.03 25-Dec-2016

 ------------------
 #p CCSD(T)/cc-pVTZ
 ------------------

 ------------
 H2O_H2O_3442
 ------------
 Symbolic Z-matrix:
 Charge =  0 Multiplicity = 1

                         Standard orientation:
 ---------------------------------------------------------------------
 Center     Atomic      Atomic             Coordinates (Angstroms)
 Number     Number       Type             X           Y           Z
 ---------------------------------------------------------------------
      1          8           0        0.037436    2.478118   -0.000000
      2          1           0        0.035464    1.495519   -0.000000
      3          1           0       -0.891415    2.798650   -0.000000
      4          8           0        0.037436   -2.299146    0.000000
      5          1           0        0.917830   -2.735508    0.000000
      6          1           0       -0.660861   -2.990440    0.000000
 ---------------------------------------------------------------------

 SCF Done:  E(RHF) =  -152.109337725     A.U. after   10 cycles
 E2 =    -0.5258568818D+00 EUMP2 =    -0.15263519460677D+03
 CCSD(T)
 CCSD(T)= -0.15266235807D+03

 The electronic state is 1-A'.
 Alpha  occ. eigenvalues --  -20.56459 -20.54633  -1.33748  -1.31949  -0.71150
 Alpha  occ. eigenvalues --   -0.69348  -0.57274  -0.55434  -0.50874  -0.49081
 Alpha virt. eigenvalues --    0.12728   0.15591   0.19525   0.21930   0.53375
 Alpha virt. eigenvalues --    0.55183   0.56495   0.58057   0.67129   0.69339
 Alpha virt. eigenvalues --    0.78030   0.78954   0.79643   0.79755   0.83068

 Mulliken charges:
               1
     1  O   -0.517455
     2  H    0.262972
     3  H    0.253035
     4  O   -0.515855
     5  H    0.259460
     6  H    0.257843
 Sum of Mulliken charges =  -0.00000

 Dipole moment (field-independent basis, Debye):
    X=             -1.2796    Y=             -3.1889    Z=              0.0000  Tot=              3.4360
 Quadrupole moment (field-independent basis, Debye-Ang):
   XX=             -9.1590   YY=             -6.9566   ZZ=            -14.7181
   XY=             -5.4171   XZ=              0.0000   YZ=             -0.0000

 CCSD(T)=-152.6623581\RMSD=6.968e-09\PG=CS [SG(H4O2)]\\@
 Normal termination of Gaussian 16 at Fri Aug 26 21:43:20 2022.
