 Gaussian 16, Revision A.03,
 Gaussian 16:  ES64L-G16RevA.03 25-Dec-2016

 ------------------
 #p CCSD(T)/cc-pVTZ
 ------------------

 -----------
 H2O_H2O_168
 -----------
 Symbolic Z-matrix:
 Charge =  0 Multiplicity = 1

                         Standard orientation:
 ---------------------------------------------------------------------
 Center     Atomic      Atomic             Coordinates (Angstroms)
 Number     Number       Type             X           Y           Z
 ---------------------------------------------------------------------
      1          8           0        0.034009    1.170932    0.000000
      2          1           0        0.029369    0.188341    0.000000
      3          1           0       -0.893969    1.493984   -0.000000
      4          8           0        0.034009   -0.993576    0.000000
      5          1           0        0.940029   -1.373883    0.000000
      6          1           0       -0.619575   -1.727289   -0.000000
 ---------------------------------------------------------------------

 SCF Done:  E(RHF) =  -152.062552044     A.U. after   11 cycles
 E2 =    -0.5347471398D+00 EUMP2 =    -0.15259729918389D+03
 CCSD(T)
 CCSD(T)= -0.15262304850D+03

 The electronic state is 1-A'.
 Alpha  occ. eigenvalues --  -20.61557 -20.45306  -1.42205  -1.25097  -0.78713
 Alpha  occ. eigenvalues --   -0.75255  -0.57686  -0.55898  -0.45579  -0.41736
 Alpha virt. eigenvalues --    0.10658   0.16962   0.20733   0.33526   0.46773
 Alpha virt. eigenvalues --    0.52378   0.61663   0.67558   0.70202   0.71325
 Alpha virt. eigenvalues --    0.77950   0.79129   0.80459   0.83157   0.85784

 Mulliken charges:
               1
     1  O   -0.663273
     2  H    0.294991
     3  H    0.215752
     4  O   -0.347098
     5  H    0.260975
     6  H    0.238653
 Sum of Mulliken charges =  -0.00000

 Dipole moment (field-independent basis, Debye):
    X=             -1.0443    Y=             -4.8300    Z=             -0.0000  Tot=              4.9416
 Quadrupole moment (field-independent basis, Debye-Ang):
   XX=             -9.1154   YY=            -10.0176   ZZ=            -14.5904
   XY=             -2.7846   XZ=              0.0000   YZ=             -0.0000

 Normal termination of Gaussian 16 at Fri Aug 26 16:20:08 2022.
