 Gaussian 16, Revision A.03,
 Gaussian 16:  ES64L-G16RevA.03 25-Dec-2016

 ------------------
 #p CCSD(T)/cc-pVTZ
 ------------------

 -----------
 H2O_H2O_261
 -----------
 Symbolic Z-matrix:
 Charge =  0 Multiplicity = 1

                         Standard orientation:
 ---------------------------------------------------------------------
 Center     Atomic      Atomic             Coordinates (Angstroms)
 Number     Number       Type             X           Y           Z
 ---------------------------------------------------------------------
      1          8           0        0.059755    1.210775   -0.000000
      2          1           0        0.057236    0.228177   -0.000000
      3          1           0       -0.868918    1.531824   -0.000000
      4          8           0        0.059755   -1.033485    0.000000
      5          1           0        0.705734   -1.773902    0.000000
      6          1           0       -0.850139   -1.404424    0.000000
 ---------------------------------------------------------------------

 SCF Done:  E(RHF) =  -152.077522841     A.U. after   11 cycles
 E2 =    -0.5341805479D+00 EUMP2 =    -0.15261170338873D+03
 CCSD(T)
 CCSD(T)= -0.15263765481D+03

 The electronic state is 1-A'.
 Alpha  occ. eigenvalues --  -20.61183 -20.46730  -1.40967  -1.25983  -0.77440
 Alpha  occ. eigenvalues --   -0.74117  -0.56902  -0.56604  -0.47208  -0.42730
 Alpha virt. eigenvalues --    0.10765   0.16736   0.20692   0.33121   0.47844
 Alpha virt. eigenvalues --    0.52656   0.61929   0.63808   0.71568   0.71764
 Alpha virt. eigenvalues --    0.77862   0.79556   0.80415   0.82891   0.84408

 Mulliken charges:
               1
     1  O   -0.634783
     2  H    0.302795
     3  H    0.210257
     4  O   -0.370085
     5  H    0.247074
     6  H    0.244742
 Sum of Mulliken charges =  -0.00000

 Dipole moment (field-independent basis, Debye):
    X=             -1.8548    Y=             -4.6187    Z=              0.0000  Tot=              4.9772
 Quadrupole moment (field-independent basis, Debye-Ang):
   XX=             -9.3403   YY=             -9.8144   ZZ=            -14.6153
   XY=             -2.8005   XZ=              0.0000   YZ=             -0.0000

 Normal termination of Gaussian 16 at Fri Aug 26 16:59:07 2022.
