 Gaussian 16, Revision A.03,
 Gaussian 16:  ES64L-G16RevA.03 25-Dec-2016

 ------------------
 #p CCSD(T)/cc-pVTZ
 ------------------

 -----------
 H2O_H2O_528
 -----------
 Symbolic Z-matrix:
 Charge =  0 Multiplicity = 1

                         Standard orientation:
 ---------------------------------------------------------------------
 Center     Atomic      Atomic             Coordinates (Angstroms)
 Number     Number       Type             X           Y           Z
 ---------------------------------------------------------------------
      1          8           0        0.085618   -1.305393    0.000000
      2          1           0        0.085112   -0.322791    0.000000
      3          1           0       -0.843710   -1.624538    0.000000
      4          8           0        0.085618    1.155836    0.000000
      5          1           0        0.276818    2.119656    0.000000
      6          1           0       -0.888115    1.024126    0.000000
 ---------------------------------------------------------------------

 SCF Done:  E(RHF) =  -152.094394246     A.U. after   11 cycles
 E2 =    -0.5327721283D+00 EUMP2 =    -0.15262716637472D+03
 CCSD(T)
 CCSD(T)= -0.15265366833D+03

 The electronic state is 1-A'.
 Alpha  occ. eigenvalues --  -20.59983 -20.50766  -1.38650  -1.28893  -0.77255
 Alpha  occ. eigenvalues --   -0.68682  -0.59280  -0.55041  -0.51471  -0.45859
 Alpha virt. eigenvalues --    0.11194   0.16492   0.20730   0.32550   0.48574
 Alpha virt. eigenvalues --    0.52462   0.59052   0.64326   0.71124   0.71676
 Alpha virt. eigenvalues --    0.74051   0.78181   0.78598   0.83266   0.83967

 Mulliken charges:
               1
     1  O   -0.573427
     2  H    0.290871
     3  H    0.216472
     4  O   -0.397315
     5  H    0.231224
     6  H    0.232175
 Sum of Mulliken charges =  -0.00000

 Dipole moment (field-independent basis, Debye):
    X=             -2.7470    Y=              3.5740    Z=              0.0000  Tot=              4.5077
 Quadrupole moment (field-independent basis, Debye-Ang):
   XX=            -10.4308   YY=             -9.3437   ZZ=            -14.6454
   XY=              2.4172   XZ=              0.0000   YZ=              0.0000

 Normal termination of Gaussian 16 at Fri Aug 26 18:51:19 2022.
