 Gaussian 16, Revision A.03,
 Gaussian 16:  ES64L-G16RevA.03 25-Dec-2016

 ------------------
 #p CCSD(T)/cc-pVTZ
 ------------------

 ------------
 H2O_H2O_1804
 ------------
 Symbolic Z-matrix:
 Charge =  0 Multiplicity = 1

                         Standard orientation:
 ---------------------------------------------------------------------
 Center     Atomic      Atomic             Coordinates (Angstroms)
 Number     Number       Type             X           Y           Z
 ---------------------------------------------------------------------
      1          8           0        0.082813   -1.816645    0.000000
      2          1           0        0.082318   -0.834044    0.000000
      3          1           0       -0.846520   -2.135780    0.000000
      4          8           0        0.082813    1.662147    0.000000
      5          1           0        0.336650    2.611395    0.000000
      6          1           0       -0.897452    1.594414    0.000000
 ---------------------------------------------------------------------

 SCF Done:  E(RHF) =  -152.110630081     A.U. after   10 cycles
 E2 =    -0.5268571377D+00 EUMP2 =    -0.15263748721867D+03
 CCSD(T)
 CCSD(T)= -0.15266457016D+03

 The electronic state is 1-A'.
 Alpha  occ. eigenvalues --  -20.57527 -20.54156  -1.34819  -1.31501  -0.72311
 Alpha  occ. eigenvalues --   -0.68868  -0.58408  -0.54914  -0.51923  -0.48625
 Alpha virt. eigenvalues --    0.11726   0.16488   0.19794   0.26575   0.50947
 Alpha virt. eigenvalues --    0.55466   0.56875   0.57926   0.68870   0.73994
 Alpha virt. eigenvalues --    0.75428   0.78112   0.80492   0.82983   0.83502

 Mulliken charges:
               1
     1  O   -0.522426
     2  H    0.269388
     3  H    0.243379
     4  O   -0.498580
     5  H    0.257825
     6  H    0.250415
 Sum of Mulliken charges =  -0.00000

 Dipole moment (field-independent basis, Debye):
    X=             -2.7860    Y=              2.9351    Z=              0.0000  Tot=              4.0468
 Quadrupole moment (field-independent basis, Debye-Ang):
   XX=            -10.2798   YY=             -8.5418   ZZ=            -14.7213
   XY=              2.8048   XZ=              0.0000   YZ=              0.0000

 Normal termination of Gaussian 16 at Sun Aug 28 01:48:28 2022.
