 Gaussian 16, Revision A.03,
 Gaussian 16:  ES64L-G16RevA.03 25-Dec-2016

 ------------------
 #p CCSD(T)/cc-pVTZ
 ------------------

 ------------
 H2O_H2O_3135
 ------------
 Symbolic Z-matrix:
 Charge =  0 Multiplicity = 1

                         Standard orientation:
 ---------------------------------------------------------------------
 Center     Atomic      Atomic             Coordinates (Angstroms)
 Number     Number       Type             X           Y           Z
 ---------------------------------------------------------------------
      1          8           0        0.063236    2.356570   -0.000000
      2          1           0        0.062124    1.373969   -0.000000
      3          1           0       -0.865896    2.676288   -0.000000
      4          8           0        0.063236   -2.181062    0.000000
      5          1           0        0.660524   -2.961288    0.000000
      6          1           0       -0.868526   -2.493033    0.000000
 ---------------------------------------------------------------------

 SCF Done:  E(RHF) =  -152.109390018     A.U. after   10 cycles
 E2 =    -0.5259389645D+00 EUMP2 =    -0.15263532898279D+03
 CCSD(T)
 CCSD(T)= -0.15266248359D+03

 The electronic state is 1-A'.
 Alpha  occ. eigenvalues --  -20.56593 -20.54577  -1.33876  -1.31893  -0.71282
 Alpha  occ. eigenvalues --   -0.69282  -0.57399  -0.55372  -0.51001  -0.49022
 Alpha virt. eigenvalues --    0.12453   0.15767   0.19466   0.22371   0.53381
 Alpha virt. eigenvalues --    0.55265   0.56341   0.58418   0.67780   0.69339
 Alpha virt. eigenvalues --    0.77902   0.78895   0.79734   0.79814   0.83101

 Mulliken charges:
               1
     1  O   -0.516676
     2  H    0.263543
     3  H    0.250817
     4  O   -0.513506
     5  H    0.260133
     6  H    0.255690
 Sum of Mulliken charges =  -0.00000

 Dipole moment (field-independent basis, Debye):
    X=             -2.1570    Y=             -3.1491    Z=              0.0000  Tot=              3.8170
 Quadrupole moment (field-independent basis, Debye-Ang):
   XX=             -9.4574   YY=             -7.2848   ZZ=            -14.7182
   XY=             -4.1041   XZ=              0.0000   YZ=             -0.0000

 Normal termination of Gaussian 16 at Fri Aug 26 19:57:54 2022.
