 Gaussian 16, Revision A.03,
 Gaussian 16:  ES64L-G16RevA.03 25-Dec-2016

 ------------------
 #p CCSD(T)/cc-pVTZ
 ------------------

 ------------
 H2O_H2O_1883
 ------------
 Symbolic Z-matrix:
 Charge =  0 Multiplicity = 1

                         Standard orientation:
 ---------------------------------------------------------------------
 Center     Atomic      Atomic             Coordinates (Angstroms)
 Number     Number       Type             X           Y           Z
 ---------------------------------------------------------------------
      1          8           0        0.070219    1.855097    0.000000
      2          1           0        0.069128    0.872496    0.000000
      3          1           0       -0.858919    2.174795    0.000000
      4          8           0        0.070219   -1.684886   -0.000000
      5          1           0        0.560574   -2.536390   -0.000000
      6          1           0       -0.894288   -1.872589   -0.000000
 ---------------------------------------------------------------------

 SCF Done:  E(RHF) =  -152.111692295     A.U. after   10 cycles
 E2 =    -0.5266447988D+00 EUMP2 =    -0.15263833709423D+03
 CCSD(T)
 CCSD(T)= -0.15266540382D+03

 The electronic state is 1-A'.
 Alpha  occ. eigenvalues --  -20.57470 -20.53822  -1.34736  -1.31179  -0.72153
 Alpha  occ. eigenvalues --   -0.68593  -0.58392  -0.54610  -0.51862  -0.48318
 Alpha virt. eigenvalues --    0.11969   0.16770   0.19395   0.26512   0.51066
 Alpha virt. eigenvalues --    0.55482   0.56264   0.58516   0.69111   0.72864
 Alpha virt. eigenvalues --    0.75814   0.77899   0.80685   0.83264   0.83880

 Mulliken charges:
               1
     1  O   -0.526015
     2  H    0.269590
     3  H    0.245211
     4  O   -0.504091
     5  H    0.261031
     6  H    0.254273
 Sum of Mulliken charges =  -0.00000

 Dipole moment (field-independent basis, Debye):
    X=             -2.3679    Y=             -3.2231    Z=             -0.0000  Tot=              3.9994
 Quadrupole moment (field-independent basis, Debye-Ang):
   XX=             -9.7001   YY=             -8.1500   ZZ=            -14.7264
   XY=             -3.3635   XZ=             -0.0000   YZ=             -0.0000

 Normal termination of Gaussian 16 at Sun Aug 28 02:24:50 2022.
