 Gaussian 16, Revision A.03,
 Gaussian 16:  ES64L-G16RevA.03 25-Dec-2016

 ------------------
 #p CCSD(T)/cc-pVTZ
 ------------------

 ------------
 H2O_H2O_1981
 ------------
 Symbolic Z-matrix:
 Charge =  0 Multiplicity = 1

                         Standard orientation:
 ---------------------------------------------------------------------
 Center     Atomic      Atomic             Coordinates (Angstroms)
 Number     Number       Type             X           Y           Z
 ---------------------------------------------------------------------
      1          8           0        0.076771    1.891167   -0.000000
      2          1           0        0.076011    0.908566   -0.000000
      3          1           0       -0.852476    2.210552   -0.000000
      4          8           0        0.076771   -1.727982    0.000000
      5          1           0        0.452094   -2.636078    0.000000
      6          1           0       -0.903965   -1.788516    0.000000
 ---------------------------------------------------------------------

 SCF Done:  E(RHF) =  -152.110923894     A.U. after   10 cycles
 E2 =    -0.5265808881D+00 EUMP2 =    -0.15263750478209D+03
 CCSD(T)
 CCSD(T)= -0.15266459072D+03

 The electronic state is 1-A'.
 Alpha  occ. eigenvalues --  -20.57360 -20.54099  -1.34632  -1.31441  -0.72071
 Alpha  occ. eigenvalues --   -0.68825  -0.58237  -0.54878  -0.51751  -0.48573
 Alpha virt. eigenvalues --    0.11879   0.16542   0.19550   0.25900   0.51568
 Alpha virt. eigenvalues --    0.55671   0.56309   0.58184   0.68948   0.72951
 Alpha virt. eigenvalues --    0.76133   0.78442   0.80432   0.83288   0.83485

 Mulliken charges:
               1
     1  O   -0.522387
     2  H    0.267952
     3  H    0.245208
     4  O   -0.503385
     5  H    0.259892
     6  H    0.252719
 Sum of Mulliken charges =  -0.00000

 Dipole moment (field-independent basis, Debye):
    X=             -2.5915    Y=             -3.0661    Z=              0.0000  Tot=              4.0146
 Quadrupole moment (field-independent basis, Debye-Ang):
   XX=             -9.9733   YY=             -8.2597   ZZ=            -14.7231
   XY=             -3.1319   XZ=              0.0000   YZ=             -0.0000

 Normal termination of Gaussian 16 at Sun Aug 28 03:18:58 2022.
