 Gaussian 16, Revision A.03,
 Gaussian 16:  ES64L-G16RevA.03 25-Dec-2016

 ------------------
 #p CCSD(T)/cc-pVTZ
 ------------------

 ------------
 H2O_H2O_2598
 ------------
 Symbolic Z-matrix:
 Charge =  0 Multiplicity = 1

                         Standard orientation:
 ---------------------------------------------------------------------
 Center     Atomic      Atomic             Coordinates (Angstroms)
 Number     Number       Type             X           Y           Z
 ---------------------------------------------------------------------
      1          8           0       -0.016651    2.130609    0.000000
      2          1           0       -0.013490    1.148013    0.000000
      3          1           0        0.911812    2.452264    0.000000
      4          8           0       -0.016651   -1.967229    0.000000
      5          1           0       -0.996938   -2.034648    0.000000
      6          1           0        0.365040   -2.872667    0.000000
 ---------------------------------------------------------------------

 SCF Done:  E(RHF) =  -152.110512993     A.U. after   10 cycles
 E2 =    -0.5260384036D+00 EUMP2 =    -0.15263655139711D+03
 CCSD(T)
 CCSD(T)= -0.15266367257D+03

 The electronic state is 1-A'.
 Alpha  occ. eigenvalues --  -20.56842 -20.54424  -1.34121  -1.31750  -0.71532
 Alpha  occ. eigenvalues --   -0.69159  -0.57693  -0.55241  -0.51251  -0.48894
 Alpha virt. eigenvalues --    0.12217   0.16277   0.19261   0.24098   0.53866
 Alpha virt. eigenvalues --    0.55501   0.56248   0.58500   0.68759   0.70305
 Alpha virt. eigenvalues --    0.77498   0.79188   0.79963   0.80755   0.83505

 Mulliken charges:
               1
     1  O   -0.523476
     2  H    0.264527
     3  H    0.254382
     4  O   -0.512991
     5  H    0.259218
     6  H    0.258339
 Sum of Mulliken charges =  -0.00000

 Dipole moment (field-independent basis, Debye):
    X=              0.5717    Y=             -2.9773    Z=              0.0000  Tot=              3.0317
 Quadrupole moment (field-independent basis, Debye-Ang):
   XX=             -9.5435   YY=             -7.9823   ZZ=            -14.7215
   XY=              5.5899   XZ=              0.0000   YZ=              0.0000

 Normal termination of Gaussian 16 at Fri Aug 26 15:53:55 2022.
