 Gaussian 16, Revision A.03,
 Gaussian 16:  ES64L-G16RevA.03 25-Dec-2016

 ------------------
 #p CCSD(T)/cc-pVTZ
 ------------------

 -----------
 H2O_H2O_949
 -----------
 Symbolic Z-matrix:
 Charge =  0 Multiplicity = 1

                         Standard orientation:
 ---------------------------------------------------------------------
 Center     Atomic      Atomic             Coordinates (Angstroms)
 Number     Number       Type             X           Y           Z
 ---------------------------------------------------------------------
      1          8           0        0.013671   -1.470204    0.000000
      2          1           0        0.008824   -0.487615    0.000000
      3          1           0       -0.914239   -1.793451    0.000000
      4          8           0        0.013671    1.310995    0.000000
      5          1           0        0.996261    1.315840    0.000000
      6          1           0       -0.309576    2.238905    0.000000
 ---------------------------------------------------------------------

 SCF Done:  E(RHF) =  -152.111045050     A.U. after   10 cycles
 E2 =    -0.5289671357D+00 EUMP2 =    -0.15264001218563D+03
 CCSD(T)
 CCSD(T)= -0.15266684925D+03

 The electronic state is 1-A'.
 Alpha  occ. eigenvalues --  -20.58823 -20.51937  -1.36485  -1.29646  -0.74253
 Alpha  occ. eigenvalues --   -0.67841  -0.59998  -0.53452  -0.52580  -0.46758
 Alpha virt. eigenvalues --    0.11975   0.18124   0.19076   0.32338   0.48846
 Alpha virt. eigenvalues --    0.54319   0.56145   0.64064   0.68311   0.72368
 Alpha virt. eigenvalues --    0.74563   0.76288   0.80956   0.82727   0.84184

 Mulliken charges:
               1
     1  O   -0.574166
     2  H    0.289043
     3  H    0.250800
     4  O   -0.461956
     5  H    0.259303
     6  H    0.236977
 Sum of Mulliken charges =  -0.00000

 Dipole moment (field-independent basis, Debye):
    X=             -0.4668    Y=              3.4072    Z=              0.0000  Tot=              3.4390
 Quadrupole moment (field-independent basis, Debye-Ang):
   XX=             -9.6325   YY=             -8.9312   ZZ=            -14.7103
   XY=              3.9326   XZ=              0.0000   YZ=              0.0000

 Normal termination of Gaussian 16 at Fri Aug 26 21:31:02 2022.
