 Gaussian 16, Revision A.03,
 Gaussian 16:  ES64L-G16RevA.03 25-Dec-2016

 ------------------
 #p CCSD(T)/cc-pVTZ
 ------------------

 ------------
 H2O_H2O_2733
 ------------
 Symbolic Z-matrix:
 Charge =  0 Multiplicity = 1

                         Standard orientation:
 ---------------------------------------------------------------------
 Center     Atomic      Atomic             Coordinates (Angstroms)
 Number     Number       Type             X           Y           Z
 ---------------------------------------------------------------------
      1          8           0        0.070204    2.194155   -0.000000
      2          1           0        0.069288    1.211554   -0.000000
      3          1           0       -0.858992    2.513687   -0.000000
      4          8           0        0.070204   -2.023919    0.000000
      5          1           0        0.560712   -2.875334    0.000000
      6          1           0       -0.894270   -2.211794    0.000000
 ---------------------------------------------------------------------

 SCF Done:  E(RHF) =  -152.109776392     A.U. after   10 cycles
 E2 =    -0.5260670892D+00 EUMP2 =    -0.15263584348155D+03
 CCSD(T)
 CCSD(T)= -0.15266297897D+03

 The electronic state is 1-A'.
 Alpha  occ. eigenvalues --  -20.56798 -20.54469  -1.34073  -1.31788  -0.71484
 Alpha  occ. eigenvalues --   -0.69171  -0.57610  -0.55263  -0.51199  -0.48919
 Alpha virt. eigenvalues --    0.12177   0.16048   0.19428   0.23293   0.53452
 Alpha virt. eigenvalues --    0.55457   0.56199   0.58699   0.68806   0.69620
 Alpha virt. eigenvalues --    0.77637   0.79059   0.79928   0.80199   0.83193

 Mulliken charges:
               1
     1  O   -0.517881
     2  H    0.264679
     3  H    0.249246
     4  O   -0.510557
     5  H    0.259945
     6  H    0.254568
 Sum of Mulliken charges =  -0.00000

 Dipole moment (field-independent basis, Debye):
    X=             -2.3884    Y=             -3.0900    Z=             -0.0000  Tot=              3.9054
 Quadrupole moment (field-independent basis, Debye-Ang):
   XX=             -9.6880   YY=             -7.6953   ZZ=            -14.7191
   XY=             -3.6356   XZ=              0.0000   YZ=             -0.0000

 Normal termination of Gaussian 16 at Fri Aug 26 16:54:11 2022.
