 Gaussian 16, Revision A.03,
 Gaussian 16:  ES64L-G16RevA.03 25-Dec-2016

 ------------------
 #p CCSD(T)/cc-pVTZ
 ------------------

 ------------
 H2O_H2O_4754
 ------------
 Symbolic Z-matrix:
 Charge =  0 Multiplicity = 1

                         Standard orientation:
 ---------------------------------------------------------------------
 Center     Atomic      Atomic             Coordinates (Angstroms)
 Number     Number       Type             X           Y           Z
 ---------------------------------------------------------------------
      1          8           0        0.082797    2.993350    0.000000
      2          1           0        0.082502    2.010748    0.000000
      3          1           0       -0.846600    3.312295    0.000000
      4          8           0        0.082797   -2.838818   -0.000000
      5          1           0        0.336828   -3.788014   -0.000000
      6          1           0       -0.897482   -2.771285   -0.000000
 ---------------------------------------------------------------------

 SCF Done:  E(RHF) =  -152.107861019     A.U. after   10 cycles
 E2 =    -0.5258475639D+00 EUMP2 =    -0.15263370858269D+03
 CCSD(T)
 CCSD(T)= -0.15266091871D+03

 The electronic state is 1-A'.
 Alpha  occ. eigenvalues --  -20.56159 -20.55206  -1.33461  -1.32509  -0.70872
 Alpha  occ. eigenvalues --   -0.69908  -0.56929  -0.55967  -0.50574  -0.49625
 Alpha virt. eigenvalues --    0.13232   0.14682   0.19351   0.21108   0.53481
 Alpha virt. eigenvalues --    0.54781   0.56627   0.57668   0.67014   0.68443
 Alpha virt. eigenvalues --    0.78313   0.79243   0.79666   0.80846   0.81903

 Mulliken charges:
               1
     1  O   -0.510846
     2  H    0.258322
     3  H    0.252481
     4  O   -0.511755
     5  H    0.258044
     6  H    0.253754
 Sum of Mulliken charges =  -0.00000

 Dipole moment (field-independent basis, Debye):
    X=             -2.8411    Y=             -2.7067    Z=             -0.0000  Tot=              3.9241
 Quadrupole moment (field-independent basis, Debye-Ang):
   XX=            -10.2436   YY=             -7.7261   ZZ=            -14.7128
   XY=             -3.2368   XZ=             -0.0000   YZ=             -0.0000

 Normal termination of Gaussian 16 at Sun Aug 28 05:35:37 2022.
