 Gaussian 16, Revision A.03,
 Gaussian 16:  ES64L-G16RevA.03 25-Dec-2016

 ------------------
 #p CCSD(T)/cc-pVTZ
 ------------------

 ------------
 H2O_H2O_3326
 ------------
 Symbolic Z-matrix:
 Charge =  0 Multiplicity = 1

                         Standard orientation:
 ---------------------------------------------------------------------
 Center     Atomic      Atomic             Coordinates (Angstroms)
 Number     Number       Type             X           Y           Z
 ---------------------------------------------------------------------
      1          8           0        0.090684   -2.416355    0.000000
      2          1           0        0.090602   -1.433754    0.000000
      3          1           0       -0.838782   -2.735099    0.000000
      4          8           0        0.090684    2.277646    0.000000
      5          1           0        0.154868    3.258150    0.000000
      6          1           0       -0.857639    2.020374    0.000000
 ---------------------------------------------------------------------

 SCF Done:  E(RHF) =  -152.108051331     A.U. after   10 cycles
 E2 =    -0.5259879166D+00 EUMP2 =    -0.15263403924720D+03
 CCSD(T)
 CCSD(T)= -0.15266123065D+03

 The electronic state is 1-A'.
 Alpha  occ. eigenvalues --  -20.56517 -20.55138  -1.33814  -1.32441  -0.71239
 Alpha  occ. eigenvalues --   -0.69826  -0.57283  -0.55894  -0.50924  -0.49555
 Alpha virt. eigenvalues --    0.11774   0.15399   0.19172   0.22764   0.53725
 Alpha virt. eigenvalues --    0.54829   0.56451   0.58054   0.67244   0.68937
 Alpha virt. eigenvalues --    0.77982   0.78556   0.79315   0.81233   0.82533

 Mulliken charges:
               1
     1  O   -0.510551
     2  H    0.259469
     3  H    0.250191
     4  O   -0.509939
     5  H    0.259702
     6  H    0.251128
 Sum of Mulliken charges =  -0.00000

 Dipole moment (field-independent basis, Debye):
    X=             -3.0946    Y=              2.4713    Z=              0.0000  Tot=              3.9603
 Quadrupole moment (field-independent basis, Debye-Ang):
   XX=            -10.7085   YY=             -8.9174   ZZ=            -14.7130
   XY=              2.3765   XZ=              0.0000   YZ=              0.0000

 Normal termination of Gaussian 16 at Fri Aug 26 21:04:58 2022.
