 Gaussian 16, Revision A.03,
 Gaussian 16:  ES64L-G16RevA.03 25-Dec-2016

 ------------------
 #p CCSD(T)/cc-pVTZ
 ------------------

 ------------
 H2O_H2O_1536
 ------------
 Symbolic Z-matrix:
 Charge =  0 Multiplicity = 1

                         Standard orientation:
 ---------------------------------------------------------------------
 Center     Atomic      Atomic             Coordinates (Angstroms)
 Number     Number       Type             X           Y           Z
 ---------------------------------------------------------------------
      1          8           0        0.059685    1.719390    0.000000
      2          1           0        0.057951    0.736790    0.000000
      3          1           0       -0.869245    2.039696    0.000000
      4          8           0        0.059685   -1.542004   -0.000000
      5          1           0        0.706254   -2.281905   -0.000000
      6          1           0       -0.849914   -1.913671   -0.000000
 ---------------------------------------------------------------------

 SCF Done:  E(RHF) =  -152.113290382     A.U. after   10 cycles
 E2 =    -0.5271228439D+00 EUMP2 =    -0.15264041322630D+03
 CCSD(T)
 CCSD(T)= -0.15266742342D+03

 The electronic state is 1-A'.
 Alpha  occ. eigenvalues --  -20.57904 -20.53112  -1.35188  -1.30537  -0.72555
 Alpha  occ. eigenvalues --   -0.68128  -0.58959  -0.53893  -0.52313  -0.47681
 Alpha virt. eigenvalues --    0.11986   0.17304   0.19165   0.28656   0.49763
 Alpha virt. eigenvalues --    0.54986   0.56416   0.59124   0.69410   0.72454
 Alpha virt. eigenvalues --    0.74460   0.76750   0.81381   0.83016   0.84596

 Mulliken charges:
               1
     1  O   -0.537412
     2  H    0.276839
     3  H    0.243941
     4  O   -0.503679
     5  H    0.263497
     6  H    0.256813
 Sum of Mulliken charges =  -0.00000

 Dipole moment (field-independent basis, Debye):
    X=             -2.0005    Y=             -3.4635    Z=             -0.0000  Tot=              3.9998
 Quadrupole moment (field-independent basis, Debye-Ang):
   XX=             -9.3769   YY=             -8.2698   ZZ=            -14.7327
   XY=             -3.5204   XZ=             -0.0000   YZ=              0.0000

 Normal termination of Gaussian 16 at Sat Aug 27 22:58:07 2022.
