 Gaussian 16, Revision A.03,
 Gaussian 16:  ES64L-G16RevA.03 25-Dec-2016

 ------------------
 #p CCSD(T)/cc-pVTZ
 ------------------

 ------------
 H2O_H2O_1121
 ------------
 Symbolic Z-matrix:
 Charge =  0 Multiplicity = 1

                         Standard orientation:
 ---------------------------------------------------------------------
 Center     Atomic      Atomic             Coordinates (Angstroms)
 Number     Number       Type             X           Y           Z
 ---------------------------------------------------------------------
      1          8           0       -0.023334    1.546039    0.000000
      2          1           0       -0.019282    0.563446    0.000000
      3          1           0        0.904837    1.868535    0.000000
      4          8           0       -0.023334   -1.375720    0.000000
      5          1           0       -0.986257   -1.571387    0.000000
      6          1           0        0.474043   -2.223141    0.000000
 ---------------------------------------------------------------------

 SCF Done:  E(RHF) =  -152.113462890     A.U. after   10 cycles
 E2 =    -0.5281420416D+00 EUMP2 =    -0.15264160493192D+03
 CCSD(T)
 CCSD(T)= -0.15266850513D+03

 The electronic state is 1-A'.
 Alpha  occ. eigenvalues --  -20.58528 -20.52180  -1.35987  -1.29784  -0.73417
 Alpha  occ. eigenvalues --   -0.67916  -0.59704  -0.53053  -0.52889  -0.46917
 Alpha virt. eigenvalues --    0.12013   0.18208   0.18796   0.31329   0.49230
 Alpha virt. eigenvalues --    0.54642   0.55908   0.62424   0.68482   0.72924
 Alpha virt. eigenvalues --    0.73299   0.76970   0.82011   0.82449   0.84434

 Mulliken charges:
               1
     1  O   -0.563453
     2  H    0.288079
     3  H    0.248637
     4  O   -0.485888
     5  H    0.264029
     6  H    0.248597
 Sum of Mulliken charges =  -0.00000

 Dipole moment (field-independent basis, Debye):
    X=              0.7819    Y=             -3.5211    Z=              0.0000  Tot=              3.6069
 Quadrupole moment (field-independent basis, Debye-Ang):
   XX=             -9.3544   YY=             -8.6965   ZZ=            -14.7261
   XY=              3.8590   XZ=              0.0000   YZ=              0.0000

 Normal termination of Gaussian 16 at Fri Aug 26 22:35:26 2022.
