 Gaussian 16, Revision A.03,
 Gaussian 16:  ES64L-G16RevA.03 25-Dec-2016

 ------------------
 #p CCSD(T)/cc-pVTZ
 ------------------

 ------------
 H2O_H2O_2358
 ------------
 Symbolic Z-matrix:
 Charge =  0 Multiplicity = 1

                         Standard orientation:
 ---------------------------------------------------------------------
 Center     Atomic      Atomic             Coordinates (Angstroms)
 Number     Number       Type             X           Y           Z
 ---------------------------------------------------------------------
      1          8           0        0.070210    2.044571    0.000000
      2          1           0        0.069224    1.061970    0.000000
      3          1           0       -0.858963    2.364170    0.000000
      4          8           0        0.070210   -1.874346    0.000000
      5          1           0        0.560657   -2.725796    0.000000
      6          1           0       -0.894277   -2.062151    0.000000
 ---------------------------------------------------------------------

 SCF Done:  E(RHF) =  -152.110516149     A.U. after   10 cycles
 E2 =    -0.5262416385D+00 EUMP2 =    -0.15263675778765D+03
 CCSD(T)
 CCSD(T)= -0.15266386647D+03

 The electronic state is 1-A'.
 Alpha  occ. eigenvalues --  -20.57047 -20.54241  -1.34313  -1.31569  -0.71726
 Alpha  occ. eigenvalues --   -0.68952  -0.57888  -0.55037  -0.51440  -0.48704
 Alpha virt. eigenvalues --    0.12075   0.16370   0.19411   0.24476   0.52808
 Alpha virt. eigenvalues --    0.55805   0.55971   0.58618   0.68836   0.71262
 Alpha virt. eigenvalues --    0.77132   0.78804   0.80181   0.81864   0.83453

 Mulliken charges:
               1
     1  O   -0.520696
     2  H    0.266365
     3  H    0.247792
     4  O   -0.507685
     5  H    0.259982
     6  H    0.254241
 Sum of Mulliken charges =  -0.00000

 Dipole moment (field-independent basis, Debye):
    X=             -2.3812    Y=             -3.1368    Z=             -0.0000  Tot=              3.9382
 Quadrupole moment (field-independent basis, Debye-Ang):
   XX=             -9.6925   YY=             -7.8885   ZZ=            -14.7215
   XY=             -3.5163   XZ=             -0.0000   YZ=             -0.0000

 Normal termination of Gaussian 16 at Sun Aug 28 06:39:31 2022.
