 Gaussian 16, Revision A.03,
 Gaussian 16:  ES64L-G16RevA.03 25-Dec-2016

 ------------------
 #p CCSD(T)/cc-pVTZ
 ------------------

 ------------
 H2O_H2O_2932
 ------------
 Symbolic Z-matrix:
 Charge =  0 Multiplicity = 1

                         Standard orientation:
 ---------------------------------------------------------------------
 Center     Atomic      Atomic             Coordinates (Angstroms)
 Number     Number       Type             X           Y           Z
 ---------------------------------------------------------------------
      1          8           0        0.073538    2.272139   -0.000000
      2          1           0        0.072785    1.289537   -0.000000
      3          1           0       -0.855711    2.591517   -0.000000
      4          8           0        0.073538   -2.105201    0.000000
      5          1           0        0.507457   -2.986802    0.000000
      6          1           0       -0.901137   -2.229755    0.000000
 ---------------------------------------------------------------------

 SCF Done:  E(RHF) =  -152.109326370     A.U. after   10 cycles
 E2 =    -0.5260148295D+00 EUMP2 =    -0.15263534119926D+03
 CCSD(T)
 CCSD(T)= -0.15266249193D+03

 The electronic state is 1-A'.
 Alpha  occ. eigenvalues --  -20.56689 -20.54619  -1.33971  -1.31934  -0.71384
 Alpha  occ. eigenvalues --   -0.69318  -0.57488  -0.55406  -0.51093  -0.49061
 Alpha virt. eigenvalues --    0.12182   0.15852   0.19434   0.22815   0.53664
 Alpha virt. eigenvalues --    0.55238   0.56296   0.58530   0.68297   0.69324
 Alpha virt. eigenvalues --    0.77790   0.78895   0.79785   0.80222   0.83035

 Mulliken charges:
               1
     1  O   -0.516015
     2  H    0.263491
     3  H    0.249683
     4  O   -0.511357
     5  H    0.259965
     6  H    0.254234
 Sum of Mulliken charges =   0.00000

 Dipole moment (field-independent basis, Debye):
    X=             -2.5049    Y=             -3.0099    Z=              0.0000  Tot=              3.9158
 Quadrupole moment (field-independent basis, Debye-Ang):
   XX=             -9.8174   YY=             -7.7210   ZZ=            -14.7177
   XY=             -3.5281   XZ=              0.0000   YZ=             -0.0000

 Normal termination of Gaussian 16 at Fri Aug 26 18:29:26 2022.
