 Gaussian 16, Revision A.03,
 Gaussian 16:  ES64L-G16RevA.03 25-Dec-2016

 ------------------
 #p CCSD(T)/cc-pVTZ
 ------------------

 ------------
 H2O_H2O_4856
 ------------
 Symbolic Z-matrix:
 Charge =  0 Multiplicity = 1

                         Standard orientation:
 ---------------------------------------------------------------------
 Center     Atomic      Atomic             Coordinates (Angstroms)
 Number     Number       Type             X           Y           Z
 ---------------------------------------------------------------------
      1          8           0        0.076746    3.037962    0.000000
      2          1           0        0.076281    2.055361    0.000000
      3          1           0       -0.852596    3.357068    0.000000
      4          8           0        0.076746   -2.874731   -0.000000
      5          1           0        0.452343   -3.782715   -0.000000
      6          1           0       -0.903970   -2.935560   -0.000000
 ---------------------------------------------------------------------

 SCF Done:  E(RHF) =  -152.107952750     A.U. after   10 cycles
 E2 =    -0.5258365441D+00 EUMP2 =    -0.15263378929396D+03
 CCSD(T)
 CCSD(T)= -0.15266099768D+03

 The electronic state is 1-A'.
 Alpha  occ. eigenvalues --  -20.56139 -20.55153  -1.33442  -1.32457  -0.70851
 Alpha  occ. eigenvalues --   -0.69856  -0.56914  -0.55917  -0.50556  -0.49574
 Alpha virt. eigenvalues --    0.13374   0.14683   0.19520   0.20963   0.53582
 Alpha virt. eigenvalues --    0.54773   0.56663   0.57681   0.67053   0.68445
 Alpha virt. eigenvalues --    0.78330   0.79292   0.79683   0.80722   0.82000

 Mulliken charges:
               1
     1  O   -0.511402
     2  H    0.258696
     3  H    0.252669
     4  O   -0.512251
     5  H    0.257964
     6  H    0.254323
 Sum of Mulliken charges =   0.00000

 Dipole moment (field-independent basis, Debye):
    X=             -2.6341    Y=             -2.8574    Z=             -0.0000  Tot=              3.8862
 Quadrupole moment (field-independent basis, Debye-Ang):
   XX=             -9.9472   YY=             -7.0986   ZZ=            -14.7132
   XY=             -3.7873   XZ=             -0.0000   YZ=              0.0000

 Normal termination of Gaussian 16 at Sun Aug 28 06:24:34 2022.
