 Gaussian 16, Revision A.03,
 Gaussian 16:  ES64L-G16RevA.03 25-Dec-2016

 ------------------
 #p CCSD(T)/cc-pVTZ
 ------------------

 -----------
 H2O_H2O_215
 -----------
 Symbolic Z-matrix:
 Charge =  0 Multiplicity = 1

                         Standard orientation:
 ---------------------------------------------------------------------
 Center     Atomic      Atomic             Coordinates (Angstroms)
 Number     Number       Type             X           Y           Z
 ---------------------------------------------------------------------
      1          8           0        0.045032    1.192431    0.000000
      2          1           0        0.041329    0.209836    0.000000
      3          1           0       -0.883253    1.514598    0.000000
      4          8           0        0.045032   -1.012205   -0.000000
      5          1           0        0.859973   -1.561184   -0.000000
      6          1           0       -0.738568   -1.605059   -0.000000
 ---------------------------------------------------------------------

 SCF Done:  E(RHF) =  -152.071457533     A.U. after   11 cycles
 E2 =    -0.5342610796D+00 EUMP2 =    -0.15260571861309D+03
 CCSD(T)
 CCSD(T)= -0.15263156993D+03

 The electronic state is 1-A'.
 Alpha  occ. eigenvalues --  -20.61398 -20.45838  -1.41533  -1.25403  -0.77044
 Alpha  occ. eigenvalues --   -0.75816  -0.57308  -0.56125  -0.46217  -0.42083
 Alpha virt. eigenvalues --    0.10695   0.16916   0.20682   0.33390   0.46935
 Alpha virt. eigenvalues --    0.52583   0.62633   0.65355   0.70508   0.71567
 Alpha virt. eigenvalues --    0.78662   0.80204   0.80335   0.82107   0.84829

 Mulliken charges:
               1
     1  O   -0.652055
     2  H    0.302822
     3  H    0.212818
     4  O   -0.364245
     5  H    0.256508
     6  H    0.244152
 Sum of Mulliken charges =  -0.00000

 Dipole moment (field-independent basis, Debye):
    X=             -1.3900    Y=             -4.7941    Z=             -0.0000  Tot=              4.9916
 Quadrupole moment (field-independent basis, Debye-Ang):
   XX=             -9.1109   YY=             -9.9488   ZZ=            -14.6076
   XY=             -2.8036   XZ=             -0.0000   YZ=             -0.0000

 Normal termination of Gaussian 16 at Fri Aug 26 16:39:52 2022.
