 Gaussian 16, Revision A.03,
 Gaussian 16:  ES64L-G16RevA.03 25-Dec-2016

 ------------------
 #p CCSD(T)/cc-pVTZ
 ------------------

 ------------
 H2O_H2O_3877
 ------------
 Symbolic Z-matrix:
 Charge =  0 Multiplicity = 1

                         Standard orientation:
 ---------------------------------------------------------------------
 Center     Atomic      Atomic             Coordinates (Angstroms)
 Number     Number       Type             X           Y           Z
 ---------------------------------------------------------------------
      1          8           0        0.088230   -2.638787    0.000000
      2          1           0        0.088074   -1.656186    0.000000
      3          1           0       -0.841212   -2.957601    0.000000
      4          8           0        0.088230    2.494464    0.000000
      5          1           0        0.216330    3.468679    0.000000
      6          1           0       -0.874875    2.299693    0.000000
 ---------------------------------------------------------------------

 SCF Done:  E(RHF) =  -152.107942060     A.U. after   10 cycles
 E2 =    -0.5259003868D+00 EUMP2 =    -0.15263384244646D+03
 CCSD(T)
 CCSD(T)= -0.15266104476D+03

 The electronic state is 1-A'.
 Alpha  occ. eigenvalues --  -20.56343 -20.55169  -1.33642  -1.32473  -0.71059
 Alpha  occ. eigenvalues --   -0.69865  -0.57112  -0.55929  -0.50754  -0.49588
 Alpha virt. eigenvalues --    0.12328   0.15094   0.19041   0.22032   0.53158
 Alpha virt. eigenvalues --    0.54993   0.56487   0.57896   0.66754   0.68852
 Alpha virt. eigenvalues --    0.78145   0.79008   0.79280   0.81271   0.82459

 Mulliken charges:
               1
     1  O   -0.510559
     2  H    0.258865
     3  H    0.251345
     4  O   -0.511448
     5  H    0.259257
     6  H    0.252540
 Sum of Mulliken charges =   0.00000

 Dipole moment (field-independent basis, Debye):
    X=             -3.0192    Y=              2.5491    Z=              0.0000  Tot=              3.9514
 Quadrupole moment (field-independent basis, Debye-Ang):
   XX=            -10.5529   YY=             -8.5597   ZZ=            -14.7128
   XY=              2.6375   XZ=              0.0000   YZ=              0.0000

 Normal termination of Gaussian 16 at Sat Aug 27 00:13:54 2022.
