 Gaussian 16, Revision A.03,
 Gaussian 16:  ES64L-G16RevA.03 25-Dec-2016

 ------------------
 #p CCSD(T)/cc-pVTZ
 ------------------

 ------------
 H2O_H2O_1786
 ------------
 Symbolic Z-matrix:
 Charge =  0 Multiplicity = 1

                         Standard orientation:
 ---------------------------------------------------------------------
 Center     Atomic      Atomic             Coordinates (Angstroms)
 Number     Number       Type             X           Y           Z
 ---------------------------------------------------------------------
      1          8           0        0.059676    1.819116    0.000000
      2          1           0        0.058042    0.836516    0.000000
      3          1           0       -0.869286    2.139327    0.000000
      4          8           0        0.059676   -1.641717   -0.000000
      5          1           0        0.706321   -2.381552   -0.000000
      6          1           0       -0.849885   -2.013476   -0.000000
 ---------------------------------------------------------------------

 SCF Done:  E(RHF) =  -152.112612235     A.U. after   10 cycles
 E2 =    -0.5267102921D+00 EUMP2 =    -0.15263932252714D+03
 CCSD(T)
 CCSD(T)= -0.15266636788D+03

 The electronic state is 1-A'.
 Alpha  occ. eigenvalues --  -20.57589 -20.53501  -1.34849  -1.30880  -0.72233
 Alpha  occ. eigenvalues --   -0.68344  -0.58571  -0.54300  -0.51982  -0.48027
 Alpha virt. eigenvalues --    0.12066   0.17074   0.19202   0.27230   0.50682
 Alpha virt. eigenvalues --    0.55122   0.56304   0.58914   0.69146   0.72554
 Alpha virt. eigenvalues --    0.75474   0.77237   0.80966   0.83244   0.84319

 Mulliken charges:
               1
     1  O   -0.531004
     2  H    0.271706
     3  H    0.245872
     4  O   -0.505695
     5  H    0.262826
     6  H    0.256296
 Sum of Mulliken charges =  -0.00000

 Dipole moment (field-independent basis, Debye):
    X=             -2.0101    Y=             -3.3876    Z=             -0.0000  Tot=              3.9391
 Quadrupole moment (field-independent basis, Debye-Ang):
   XX=             -9.3749   YY=             -8.0785   ZZ=            -14.7304
   XY=             -3.6398   XZ=             -0.0000   YZ=              0.0000

 Normal termination of Gaussian 16 at Sun Aug 28 01:34:16 2022.
