 Gaussian 16, Revision A.03,
 Gaussian 16:  ES64L-G16RevA.03 25-Dec-2016

 ------------------
 #p CCSD(T)/cc-pVTZ
 ------------------

 ------------
 H2O_H2O_1061
 ------------
 Symbolic Z-matrix:
 Charge =  0 Multiplicity = 1

                         Standard orientation:
 ---------------------------------------------------------------------
 Center     Atomic      Atomic             Coordinates (Angstroms)
 Number     Number       Type             X           Y           Z
 ---------------------------------------------------------------------
      1          8           0        0.059705    1.529910   -0.000000
      2          1           0        0.057744    0.547311   -0.000000
      3          1           0       -0.869150    1.850431   -0.000000
      4          8           0        0.059705   -1.352552    0.000000
      5          1           0        0.706103   -2.092603    0.000000
      6          1           0       -0.849980   -1.724008    0.000000
 ---------------------------------------------------------------------

 SCF Done:  E(RHF) =  -152.113089957     A.U. after   10 cycles
 E2 =    -0.5285014872D+00 EUMP2 =    -0.15264159144418D+03
 CCSD(T)
 CCSD(T)= -0.15266846592D+03

 The electronic state is 1-A'.
 Alpha  occ. eigenvalues --  -20.58713 -20.51923  -1.36179  -1.29559  -0.73457
 Alpha  occ. eigenvalues --   -0.68072  -0.59647  -0.53239  -0.52638  -0.46668
 Alpha virt. eigenvalues --    0.11767   0.17582   0.19256   0.31510   0.48403
 Alpha virt. eigenvalues --    0.54704   0.57632   0.59850   0.69813   0.72210
 Alpha virt. eigenvalues --    0.72846   0.77021   0.82271   0.82490   0.84704

 Mulliken charges:
               1
     1  O   -0.559811
     2  H    0.294913
     3  H    0.237838
     4  O   -0.489431
     5  H    0.261052
     6  H    0.255439
 Sum of Mulliken charges =  -0.00000

 Dipole moment (field-independent basis, Debye):
    X=             -1.9720    Y=             -3.6936    Z=              0.0000  Tot=              4.1871
 Quadrupole moment (field-independent basis, Debye-Ang):
   XX=             -9.3759   YY=             -8.7028   ZZ=            -14.7254
   XY=             -3.2832   XZ=              0.0000   YZ=             -0.0000

 Normal termination of Gaussian 16 at Fri Aug 26 22:13:20 2022.
