 Gaussian 16, Revision A.03,
 Gaussian 16:  ES64L-G16RevA.03 25-Dec-2016

 ------------------
 #p CCSD(T)/cc-pVTZ
 ------------------

 ------------
 H2O_H2O_4510
 ------------
 Symbolic Z-matrix:
 Charge =  0 Multiplicity = 1

                         Standard orientation:
 ---------------------------------------------------------------------
 Center     Atomic      Atomic             Coordinates (Angstroms)
 Number     Number       Type             X           Y           Z
 ---------------------------------------------------------------------
      1          8           0        0.063217    2.905040    0.000000
      2          1           0        0.062321    1.922439    0.000000
      3          1           0       -0.865986    3.224553    0.000000
      4          8           0        0.063217   -2.729504   -0.000000
      5          1           0        0.660677   -3.509599   -0.000000
      6          1           0       -0.868477   -3.041679   -0.000000
 ---------------------------------------------------------------------

 SCF Done:  E(RHF) =  -152.108269615     A.U. after   10 cycles
 E2 =    -0.5258224223D+00 EUMP2 =    -0.15263409203705D+03
 CCSD(T)
 CCSD(T)= -0.15266129216D+03

 The electronic state is 1-A'.
 Alpha  occ. eigenvalues --  -20.56189 -20.54991  -1.33490  -1.32298  -0.70896
 Alpha  occ. eigenvalues --   -0.69697  -0.56977  -0.55764  -0.50607  -0.49419
 Alpha virt. eigenvalues --    0.13315   0.14890   0.19635   0.21045   0.53591
 Alpha virt. eigenvalues --    0.54856   0.56644   0.57779   0.66854   0.68721
 Alpha virt. eigenvalues --    0.78280   0.79440   0.79548   0.80348   0.82605

 Mulliken charges:
               1
     1  O   -0.512969
     2  H    0.260119
     3  H    0.252731
     4  O   -0.513847
     5  H    0.258488
     6  H    0.255478
 Sum of Mulliken charges =   0.00000

 Dipole moment (field-independent basis, Debye):
    X=             -2.1679    Y=             -3.0812    Z=             -0.0000  Tot=              3.7674
 Quadrupole moment (field-independent basis, Debye-Ang):
   XX=             -9.4538   YY=             -6.4951   ZZ=            -14.7143
   XY=             -4.6712   XZ=             -0.0000   YZ=              0.0000

 Normal termination of Gaussian 16 at Sun Aug 28 03:27:48 2022.
