 Gaussian 16, Revision A.03,
 Gaussian 16:  ES64L-G16RevA.03 25-Dec-2016

 ------------------
 #p CCSD(T)/cc-pVTZ
 ------------------

 ------------
 H2O_H2O_1844
 ------------
 Symbolic Z-matrix:
 Charge =  0 Multiplicity = 1

                         Standard orientation:
 ---------------------------------------------------------------------
 Center     Atomic      Atomic             Coordinates (Angstroms)
 Number     Number       Type             X           Y           Z
 ---------------------------------------------------------------------
      1          8           0        0.030250    1.838069   -0.000000
      2          1           0        0.027207    0.855473   -0.000000
      3          1           0       -0.898251    2.159613   -0.000000
      4          8           0        0.030250   -1.662505    0.000000
      5          1           0        0.959723   -1.981232    0.000000
      6          1           0       -0.572686   -2.438373    0.000000
 ---------------------------------------------------------------------

 SCF Done:  E(RHF) =  -152.112889743     A.U. after   10 cycles
 E2 =    -0.5265547251D+00 EUMP2 =    -0.15263944446848D+03
 CCSD(T)
 CCSD(T)= -0.15266649113D+03

 The electronic state is 1-A'.
 Alpha  occ. eigenvalues --  -20.57500 -20.53539  -1.34761  -1.30917  -0.72148
 Alpha  occ. eigenvalues --   -0.68386  -0.58504  -0.54355  -0.51900  -0.48074
 Alpha virt. eigenvalues --    0.12217   0.17227   0.19097   0.27070   0.51652
 Alpha virt. eigenvalues --    0.54517   0.56204   0.59221   0.69058   0.72697
 Alpha virt. eigenvalues --    0.75671   0.77552   0.80905   0.83329   0.84464

 Mulliken charges:
               1
     1  O   -0.534239
     2  H    0.270403
     3  H    0.250916
     4  O   -0.508461
     5  H    0.262729
     6  H    0.258654
 Sum of Mulliken charges =  -0.00000

 Dipole moment (field-independent basis, Debye):
    X=             -1.0236    Y=             -3.3395    Z=              0.0000  Tot=              3.4928
 Quadrupole moment (field-independent basis, Debye-Ang):
   XX=             -9.2309   YY=             -8.0707   ZZ=            -14.7313
   XY=             -4.3678   XZ=              0.0000   YZ=             -0.0000

 Normal termination of Gaussian 16 at Sun Aug 28 02:08:46 2022.
