 Gaussian 16, Revision A.03,
 Gaussian 16:  ES64L-G16RevA.03 25-Dec-2016

 ------------------
 #p CCSD(T)/cc-pVTZ
 ------------------

 ------------
 H2O_H2O_4823
 ------------
 Symbolic Z-matrix:
 Charge =  0 Multiplicity = 1

                         Standard orientation:
 ---------------------------------------------------------------------
 Center     Atomic      Atomic             Coordinates (Angstroms)
 Number     Number       Type             X           Y           Z
 ---------------------------------------------------------------------
      1          8           0       -0.016572    3.018124    0.000000
      2          1           0       -0.014366    2.035525    0.000000
      3          1           0        0.912203    3.338876    0.000000
      4          8           0       -0.016572   -2.854712    0.000000
      5          1           0       -0.996923   -2.921177    0.000000
      6          1           0        0.364239   -3.760520    0.000000
 ---------------------------------------------------------------------

 SCF Done:  E(RHF) =  -152.108296208     A.U. after   10 cycles
 E2 =    -0.5257999395D+00 EUMP2 =    -0.15263409614794D+03
 CCSD(T)
 CCSD(T)= -0.15266129814D+03

 The electronic state is 1-A'.
 Alpha  occ. eigenvalues --  -20.56128 -20.55116  -1.33431  -1.32423  -0.70837
 Alpha  occ. eigenvalues --   -0.69829  -0.56918  -0.55893  -0.50549  -0.49545
 Alpha virt. eigenvalues --    0.13408   0.14761   0.19529   0.21059   0.53580
 Alpha virt. eigenvalues --    0.54809   0.56707   0.57724   0.67012   0.68470
 Alpha virt. eigenvalues --    0.78334   0.79316   0.79691   0.80725   0.82035

 Mulliken charges:
               1
     1  O   -0.513698
     2  H    0.258844
     3  H    0.254812
     4  O   -0.514164
     5  H    0.256716
     6  H    0.257490
 Sum of Mulliken charges =   0.00000

 Dipole moment (field-independent basis, Debye):
    X=              0.5701    Y=             -2.8599    Z=              0.0000  Tot=              2.9161
 Quadrupole moment (field-independent basis, Debye-Ang):
   XX=             -9.5440   YY=             -7.0795   ZZ=            -14.7144
   XY=              7.9251   XZ=              0.0000   YZ=              0.0000

 Normal termination of Gaussian 16 at Sun Aug 28 06:10:21 2022.
