 Gaussian 16, Revision A.03,
 Gaussian 16:  ES64L-G16RevA.03 25-Dec-2016

 ------------------
 #p CCSD(T)/cc-pVTZ
 ------------------

 ------------
 H2O_H2O_1751
 ------------
 Symbolic Z-matrix:
 Charge =  0 Multiplicity = 1

                         Standard orientation:
 ---------------------------------------------------------------------
 Center     Atomic      Atomic             Coordinates (Angstroms)
 Number     Number       Type             X           Y           Z
 ---------------------------------------------------------------------
      1          8           0        0.090686   -1.788121    0.000000
      2          1           0        0.090575   -0.805519    0.000000
      3          1           0       -0.838770   -2.106893    0.000000
      4          8           0        0.090686    1.649417    0.000000
      5          1           0        0.154841    2.629922    0.000000
      6          1           0       -0.857629    1.392116    0.000000
 ---------------------------------------------------------------------

 SCF Done:  E(RHF) =  -152.109424386     A.U. after   10 cycles
 E2 =    -0.5270717890D+00 EUMP2 =    -0.15263649617531D+03
 CCSD(T)
 CCSD(T)= -0.15266360431D+03

 The electronic state is 1-A'.
 Alpha  occ. eigenvalues --  -20.57561 -20.54535  -1.34875  -1.31866  -0.72472
 Alpha  occ. eigenvalues --   -0.69155  -0.58393  -0.55268  -0.51958  -0.48975
 Alpha virt. eigenvalues --    0.11521   0.16267   0.20232   0.26605   0.50953
 Alpha virt. eigenvalues --    0.55075   0.57467   0.57493   0.68104   0.74368
 Alpha virt. eigenvalues --    0.75040   0.78026   0.80258   0.82513   0.83362

 Mulliken charges:
               1
     1  O   -0.518681
     2  H    0.268956
     3  H    0.242347
     4  O   -0.493193
     5  H    0.255509
     6  H    0.245061
 Sum of Mulliken charges =  -0.00000

 Dipole moment (field-independent basis, Debye):
    X=             -3.0447    Y=              2.6395    Z=              0.0000  Tot=              4.0296
 Quadrupole moment (field-independent basis, Debye-Ang):
   XX=            -10.7435   YY=             -8.9705   ZZ=            -14.7150
   XY=              2.3063   XZ=              0.0000   YZ=              0.0000

 Normal termination of Gaussian 16 at Sun Aug 28 01:17:35 2022.
