 Gaussian 16, Revision A.03,
 Gaussian 16:  ES64L-G16RevA.03 25-Dec-2016

 ------------------
 #p CCSD(T)/cc-pVTZ
 ------------------

 ------------
 H2O_H2O_1055
 ------------
 Symbolic Z-matrix:
 Charge =  0 Multiplicity = 1

                         Standard orientation:
 ---------------------------------------------------------------------
 Center     Atomic      Atomic             Coordinates (Angstroms)
 Number     Number       Type             X           Y           Z
 ---------------------------------------------------------------------
      1          8           0        0.079875   -1.519942    0.000000
      2          1           0        0.079103   -0.537341    0.000000
      3          1           0       -0.849368   -1.839338    0.000000
      4          8           0        0.079875    1.360926    0.000000
      5          1           0        0.394991    2.291630    0.000000
      6          1           0       -0.902720    1.357175    0.000000
 ---------------------------------------------------------------------

 SCF Done:  E(RHF) =  -152.110437244     A.U. after   10 cycles
 E2 =    -0.5288551099D+00 EUMP2 =    -0.15263929235376D+03
 CCSD(T)
 CCSD(T)= -0.15266620928D+03

 The electronic state is 1-A'.
 Alpha  occ. eigenvalues --  -20.58656 -20.52693  -1.36187  -1.30260  -0.73861
 Alpha  occ. eigenvalues --   -0.68170  -0.59560  -0.53400  -0.53188  -0.47347
 Alpha virt. eigenvalues --    0.11584   0.16826   0.19925   0.30919   0.48446
 Alpha virt. eigenvalues --    0.54328   0.58569   0.59502   0.69321   0.72568
 Alpha virt. eigenvalues --    0.74560   0.77037   0.81352   0.82135   0.83849

 Mulliken charges:
               1
     1  O   -0.546954
     2  H    0.288081
     3  H    0.233904
     4  O   -0.460910
     5  H    0.241022
     6  H    0.244856
 Sum of Mulliken charges =  -0.00000

 Dipole moment (field-independent basis, Debye):
    X=             -2.6344    Y=              3.3108    Z=              0.0000  Tot=              4.2310
 Quadrupole moment (field-independent basis, Debye-Ang):
   XX=            -10.1396   YY=             -8.8286   ZZ=            -14.7101
   XY=              2.7868   XZ=              0.0000   YZ=              0.0000

 Normal termination of Gaussian 16 at Fri Aug 26 22:11:08 2022.
