 Gaussian 16, Revision A.03,
 Gaussian 16:  ES64L-G16RevA.03 25-Dec-2016

 ------------------
 #p CCSD(T)/cc-pVTZ
 ------------------

 ------------
 H2O_H2O_2918
 ------------
 Symbolic Z-matrix:
 Charge =  0 Multiplicity = 1

                         Standard orientation:
 ---------------------------------------------------------------------
 Center     Atomic      Atomic             Coordinates (Angstroms)
 Number     Number       Type             X           Y           Z
 ---------------------------------------------------------------------
      1          8           0        0.033798    2.267919   -0.000000
      2          1           0        0.031494    1.285320   -0.000000
      3          1           0       -0.894945    2.588764   -0.000000
      4          8           0        0.033798   -2.090402    0.000000
      5          1           0        0.940720   -2.468555    0.000000
      6          1           0       -0.618039   -2.825666    0.000000
 ---------------------------------------------------------------------

 SCF Done:  E(RHF) =  -152.110122053     A.U. after   10 cycles
 E2 =    -0.5259434374D+00 EUMP2 =    -0.15263606549030D+03
 CCSD(T)
 CCSD(T)= -0.15266320066D+03

 The electronic state is 1-A'.
 Alpha  occ. eigenvalues --  -20.56685 -20.54408  -1.33962  -1.31731  -0.71361
 Alpha  occ. eigenvalues --   -0.69130  -0.57518  -0.55222  -0.51093  -0.48870
 Alpha virt. eigenvalues --    0.12464   0.16039   0.19401   0.22962   0.53233
 Alpha virt. eigenvalues --    0.55539   0.56405   0.58564   0.68569   0.69343
 Alpha virt. eigenvalues --    0.77786   0.79040   0.79708   0.79958   0.83300

 Mulliken charges:
               1
     1  O   -0.520643
     2  H    0.264592
     3  H    0.252698
     4  O   -0.514447
     5  H    0.259917
     6  H    0.257884
 Sum of Mulliken charges =  -0.00000

 Dipole moment (field-independent basis, Debye):
    X=             -1.1527    Y=             -3.2050    Z=              0.0000  Tot=              3.4060
 Quadrupole moment (field-independent basis, Debye-Ang):
   XX=             -9.1859   YY=             -7.3335   ZZ=            -14.7206
   XY=             -5.1573   XZ=              0.0000   YZ=              0.0000

 CCSD(T)=-152.6632007\RMSD=6.794e-09\PG=CS [SG(H4O2)]\\@
 Normal termination of Gaussian 16 at Fri Aug 26 18:21:01 2022.
