 Gaussian 16, Revision A.03,
 Gaussian 16:  ES64L-G16RevA.03 25-Dec-2016

 ------------------
 #p CCSD(T)/cc-pVTZ
 ------------------

 ------------
 H2O_H2O_1731
 ------------
 Symbolic Z-matrix:
 Charge =  0 Multiplicity = 1

                         Standard orientation:
 ---------------------------------------------------------------------
 Center     Atomic      Atomic             Coordinates (Angstroms)
 Number     Number       Type             X           Y           Z
 ---------------------------------------------------------------------
      1          8           0        0.076775    1.791444    0.000000
      2          1           0        0.075971    0.808843    0.000000
      3          1           0       -0.852458    2.110871    0.000000
      4          8           0        0.076775   -1.628267   -0.000000
      5          1           0        0.452058   -2.536379   -0.000000
      6          1           0       -0.903964   -1.688757   -0.000000
 ---------------------------------------------------------------------

 SCF Done:  E(RHF) =  -152.111469830     A.U. after   10 cycles
 E2 =    -0.5269009511D+00 EUMP2 =    -0.15263837078110D+03
 CCSD(T)
 CCSD(T)= -0.15266543171D+03

 The electronic state is 1-A'.
 Alpha  occ. eigenvalues --  -20.57625 -20.53839  -1.34910  -1.31204  -0.72366
 Alpha  occ. eigenvalues --   -0.68617  -0.58555  -0.54607  -0.52022  -0.48335
 Alpha virt. eigenvalues --    0.11832   0.16705   0.19583   0.27119   0.50515
 Alpha virt. eigenvalues --    0.55399   0.56695   0.58297   0.69233   0.73678
 Alpha virt. eigenvalues --    0.75188   0.77716   0.80761   0.83031   0.83809

 Mulliken charges:
               1
     1  O   -0.526296
     2  H    0.271134
     3  H    0.243346
     4  O   -0.499777
     5  H    0.258986
     6  H    0.252607
 Sum of Mulliken charges =  -0.00000

 Dipole moment (field-independent basis, Debye):
    X=             -2.5812    Y=             -3.1224    Z=             -0.0000  Tot=              4.0512
 Quadrupole moment (field-independent basis, Debye-Ang):
   XX=             -9.9787   YY=             -8.3766   ZZ=            -14.7250
   XY=             -3.0722   XZ=             -0.0000   YZ=             -0.0000

 Normal termination of Gaussian 16 at Sun Aug 28 01:01:13 2022.
