 Gaussian 16, Revision A.03,
 Gaussian 16:  ES64L-G16RevA.03 25-Dec-2016

 ------------------
 #p CCSD(T)/cc-pVTZ
 ------------------

 -----------
 H2O_H2O_531
 -----------
 Symbolic Z-matrix:
 Charge =  0 Multiplicity = 1

                         Standard orientation:
 ---------------------------------------------------------------------
 Center     Atomic      Atomic             Coordinates (Angstroms)
 Number     Number       Type             X           Y           Z
 ---------------------------------------------------------------------
      1          8           0        0.076800   -1.312767    0.000000
      2          1           0        0.075684   -0.330167    0.000000
      3          1           0       -0.852330   -1.632489    0.000000
      4          8           0        0.076800    1.149639    0.000000
      5          1           0        0.451795    2.057870    0.000000
      6          1           0       -0.903957    1.209817    0.000000
 ---------------------------------------------------------------------

 SCF Done:  E(RHF) =  -152.098019658     A.U. after   11 cycles
 E2 =    -0.5322619125D+00 EUMP2 =    -0.15263028157016D+03
 CCSD(T)
 CCSD(T)= -0.15265674109D+03

 The electronic state is 1-A'.
 Alpha  occ. eigenvalues --  -20.60049 -20.50050  -1.38561  -1.28281  -0.76436
 Alpha  occ. eigenvalues --   -0.69560  -0.58954  -0.55094  -0.50701  -0.45241
 Alpha virt. eigenvalues --    0.11189   0.16738   0.20387   0.32891   0.48430
 Alpha virt. eigenvalues --    0.53120   0.59394   0.63502   0.71572   0.72033
 Alpha virt. eigenvalues --    0.74015   0.78483   0.79109   0.83862   0.84075

 Mulliken charges:
               1
     1  O   -0.586896
     2  H    0.298720
     3  H    0.219042
     4  O   -0.406035
     5  H    0.236452
     6  H    0.238718
 Sum of Mulliken charges =  -0.00000

 Dipole moment (field-independent basis, Debye):
    X=             -2.4576    Y=              3.8701    Z=              0.0000  Tot=              4.5845
 Quadrupole moment (field-independent basis, Debye-Ang):
   XX=             -9.9725   YY=             -9.3094   ZZ=            -14.6582
   XY=              2.7145   XZ=              0.0000   YZ=              0.0000

 Normal termination of Gaussian 16 at Fri Aug 26 18:52:31 2022.
