 Gaussian 16, Revision A.03,
 Gaussian 16:  ES64L-G16RevA.03 25-Dec-2016

 ------------------
 #p CCSD(T)/cc-pVTZ
 ------------------

 -----------
 H2O_H2O_681
 -----------
 Symbolic Z-matrix:
 Charge =  0 Multiplicity = 1

                         Standard orientation:
 ---------------------------------------------------------------------
 Center     Atomic      Atomic             Coordinates (Angstroms)
 Number     Number       Type             X           Y           Z
 ---------------------------------------------------------------------
      1          8           0        0.076796   -1.372603    0.000000
      2          1           0        0.075732   -0.390002    0.000000
      3          1           0       -0.852351   -1.692276    0.000000
      4          8           0        0.076796    1.209466    0.000000
      5          1           0        0.451839    2.117679    0.000000
      6          1           0       -0.903957    1.269695    0.000000
 ---------------------------------------------------------------------

 SCF Done:  E(RHF) =  -152.104537678     A.U. after   11 cycles
 E2 =    -0.5310020534D+00 EUMP2 =    -0.15263553973149D+03
 CCSD(T)
 CCSD(T)= -0.15266218184D+03

 The electronic state is 1-A'.
 Alpha  occ. eigenvalues --  -20.59582 -20.50974  -1.37647  -1.28936  -0.75411
 Alpha  occ. eigenvalues --   -0.68797  -0.59466  -0.54406  -0.51641  -0.45950
 Alpha virt. eigenvalues --    0.11351   0.16852   0.20154   0.32645   0.48231
 Alpha virt. eigenvalues --    0.53559   0.59164   0.62262   0.70332   0.72100
 Alpha virt. eigenvalues --    0.74111   0.77828   0.79956   0.83471   0.83884

 Mulliken charges:
               1
     1  O   -0.574468
     2  H    0.299105
     3  H    0.224685
     4  O   -0.428720
     5  H    0.238830
     6  H    0.240567
 Sum of Mulliken charges =  -0.00000

 Dipole moment (field-independent basis, Debye):
    X=             -2.4842    Y=              3.6991    Z=              0.0000  Tot=              4.4559
 Quadrupole moment (field-independent basis, Debye-Ang):
   XX=             -9.9814   YY=             -9.1343   ZZ=            -14.6807
   XY=              2.7722   XZ=              0.0000   YZ=              0.0000

 Normal termination of Gaussian 16 at Fri Aug 26 19:48:59 2022.
