 Gaussian 16, Revision A.03,
 Gaussian 16:  ES64L-G16RevA.03 25-Dec-2016

 ------------------
 #p CCSD(T)/cc-pVTZ
 ------------------

 ------------
 H2O_H2O_2978
 ------------
 Symbolic Z-matrix:
 Charge =  0 Multiplicity = 1

                         Standard orientation:
 ---------------------------------------------------------------------
 Center     Atomic      Atomic             Coordinates (Angstroms)
 Number     Number       Type             X           Y           Z
 ---------------------------------------------------------------------
      1          8           0        0.085601   -2.282662    0.000000
      2          1           0        0.085319   -1.300060    0.000000
      3          1           0       -0.843800   -2.601595    0.000000
      4          8           0        0.085601    2.133066    0.000000
      5          1           0        0.277021    3.096842    0.000000
      6          1           0       -0.888162    2.001578    0.000000
 ---------------------------------------------------------------------

 SCF Done:  E(RHF) =  -152.108636992     A.U. after   10 cycles
 E2 =    -0.5260488689D+00 EUMP2 =    -0.15263468586139D+03
 CCSD(T)
 CCSD(T)= -0.15266185439D+03

 The electronic state is 1-A'.
 Alpha  occ. eigenvalues --  -20.56663 -20.54901  -1.33953  -1.32209  -0.71379
 Alpha  occ. eigenvalues --   -0.69589  -0.57441  -0.55668  -0.51067  -0.49328
 Alpha virt. eigenvalues --    0.11840   0.15678   0.19420   0.22937   0.54190
 Alpha virt. eigenvalues --    0.54810   0.56420   0.58259   0.68080   0.69148
 Alpha virt. eigenvalues --    0.77818   0.78623   0.79538   0.80882   0.82766

 Mulliken charges:
               1
     1  O   -0.512935
     2  H    0.261641
     3  H    0.249301
     4  O   -0.509562
     5  H    0.259745
     6  H    0.251810
 Sum of Mulliken charges =  -0.00000

 Dipole moment (field-independent basis, Debye):
    X=             -2.9152    Y=              2.6892    Z=              0.0000  Tot=              3.9662
 Quadrupole moment (field-independent basis, Debye-Ang):
   XX=            -10.4092   YY=             -8.4258   ZZ=            -14.7150
   XY=              2.7806   XZ=              0.0000   YZ=              0.0000

 Normal termination of Gaussian 16 at Fri Aug 26 18:56:36 2022.
