 Gaussian 16, Revision A.03,
 Gaussian 16:  ES64L-G16RevA.03 25-Dec-2016

 ------------------
 #p CCSD(T)/cc-pVTZ
 ------------------

 ------------
 H2O_H2O_3950
 ------------
 Symbolic Z-matrix:
 Charge =  0 Multiplicity = 1

                         Standard orientation:
 ---------------------------------------------------------------------
 Center     Atomic      Atomic             Coordinates (Angstroms)
 Number     Number       Type             X           Y           Z
 ---------------------------------------------------------------------
      1          8           0        0.092949   -2.662437    0.000000
      2          1           0        0.092949   -1.679836    0.000000
      3          1           0       -0.836544   -2.981104    0.000000
      4          8           0        0.092949    2.529650    0.000000
      5          1           0        0.092949    3.512251    0.000000
      6          1           0       -0.836544    2.210984    0.000000
 ---------------------------------------------------------------------

 SCF Done:  E(RHF) =  -152.107701505     A.U. after   10 cycles
 E2 =    -0.5259113906D+00 EUMP2 =    -0.15263361289592D+03
 CCSD(T)
 CCSD(T)= -0.15266082229D+03

 The electronic state is 1-A'.
 Alpha  occ. eigenvalues --  -20.56329 -20.55298  -1.33629  -1.32599  -0.71048
 Alpha  occ. eigenvalues --   -0.69992  -0.57090  -0.56050  -0.50739  -0.49711
 Alpha virt. eigenvalues --    0.12150   0.15020   0.18839   0.22324   0.53135
 Alpha virt. eigenvalues --    0.54922   0.56493   0.57827   0.66785   0.68694
 Alpha virt. eigenvalues --    0.78160   0.79162   0.79201   0.81485   0.82256

 Mulliken charges:
               1
     1  O   -0.509464
     2  H    0.257804
     3  H    0.251437
     4  O   -0.510458
     5  H    0.258994
     6  H    0.251687
 Sum of Mulliken charges =  -0.00000

 Dipole moment (field-independent basis, Debye):
    X=             -3.1816    Y=              2.3423    Z=              0.0000  Tot=              3.9508
 Quadrupole moment (field-independent basis, Debye-Ang):
   XX=            -10.8481   YY=             -9.2670   ZZ=            -14.7118
   XY=              2.1544   XZ=              0.0000   YZ=              0.0000

 Normal termination of Gaussian 16 at Sat Aug 27 00:38:34 2022.
