 Gaussian 16, Revision A.03,
 Gaussian 16:  ES64L-G16RevA.03 25-Dec-2016

 ------------------
 #p CCSD(T)/cc-pVTZ
 ------------------

 ------------
 H2O_H2O_3338
 ------------
 Symbolic Z-matrix:
 Charge =  0 Multiplicity = 1

                         Standard orientation:
 ---------------------------------------------------------------------
 Center     Atomic      Atomic             Coordinates (Angstroms)
 Number     Number       Type             X           Y           Z
 ---------------------------------------------------------------------
      1          8           0        0.052293    2.438730    0.000000
      2          1           0        0.050824    1.456130    0.000000
      3          1           0       -0.876722    2.758786   -0.000000
      4          8           0        0.052293   -2.258834    0.000000
      5          1           0        0.790084   -2.907811    0.000000
      6          1           0       -0.800880   -2.746278   -0.000000
 ---------------------------------------------------------------------

 SCF Done:  E(RHF) =  -152.109339236     A.U. after   10 cycles
 E2 =    -0.5258855978D+00 EUMP2 =    -0.15263522483366D+03
 CCSD(T)
 CCSD(T)= -0.15266238548D+03

 The electronic state is 1-A'.
 Alpha  occ. eigenvalues --  -20.56505 -20.54595  -1.33791  -1.31911  -0.71194
 Alpha  occ. eigenvalues --   -0.69305  -0.57316  -0.55393  -0.50917  -0.49042
 Alpha virt. eigenvalues --    0.12658   0.15650   0.19528   0.22025   0.53357
 Alpha virt. eigenvalues --    0.55177   0.56430   0.58186   0.67324   0.69354
 Alpha virt. eigenvalues --    0.77989   0.79027   0.79439   0.79793   0.83096

 Mulliken charges:
               1
     1  O   -0.516968
     2  H    0.263333
     3  H    0.251891
     4  O   -0.514970
     5  H    0.259946
     6  H    0.256767
 Sum of Mulliken charges =  -0.00000

 Dipole moment (field-independent basis, Debye):
    X=             -1.7858    Y=             -3.2130    Z=             -0.0000  Tot=              3.6759
 Quadrupole moment (field-independent basis, Debye-Ang):
   XX=             -9.2259   YY=             -6.9870   ZZ=            -14.7181
   XY=             -4.6930   XZ=              0.0000   YZ=             -0.0000

 Normal termination of Gaussian 16 at Fri Aug 26 21:08:55 2022.
