 Gaussian 16, Revision A.03,
 Gaussian 16:  ES64L-G16RevA.03 25-Dec-2016

 ------------------
 #p CCSD(T)/cc-pVTZ
 ------------------

 ------------
 H2O_H2O_1153
 ------------
 Symbolic Z-matrix:
 Charge =  0 Multiplicity = 1

                         Standard orientation:
 ---------------------------------------------------------------------
 Center     Atomic      Atomic             Coordinates (Angstroms)
 Number     Number       Type             X           Y           Z
 ---------------------------------------------------------------------
      1          8           0        0.085612   -1.554698    0.000000
      2          1           0        0.085191   -0.572097    0.000000
      3          1           0       -0.843744   -1.873764    0.000000
      4          8           0        0.085612    1.405127    0.000000
      5          1           0        0.276895    2.368930    0.000000
      6          1           0       -0.888134    1.273501    0.000000
 ---------------------------------------------------------------------

 SCF Done:  E(RHF) =  -152.109743342     A.U. after   10 cycles
 E2 =    -0.5285936159D+00 EUMP2 =    -0.15263833695814D+03
 CCSD(T)
 CCSD(T)= -0.15266531821D+03

 The electronic state is 1-A'.
 Alpha  occ. eigenvalues --  -20.58437 -20.53322  -1.35925  -1.30808  -0.73727
 Alpha  occ. eigenvalues --   -0.68314  -0.59368  -0.54035  -0.52931  -0.47896
 Alpha virt. eigenvalues --    0.11555   0.16611   0.20165   0.30086   0.48720
 Alpha virt. eigenvalues --    0.54142   0.58210   0.59308   0.68726   0.72639
 Alpha virt. eigenvalues --    0.74527   0.77461   0.81217   0.81713   0.83557

 Mulliken charges:
               1
     1  O   -0.536929
     2  H    0.282584
     3  H    0.234895
     4  O   -0.462420
     5  H    0.239799
     6  H    0.242071
 Sum of Mulliken charges =  -0.00000

 Dipole moment (field-independent basis, Debye):
    X=             -2.8331    Y=              3.0612    Z=              0.0000  Tot=              4.1711
 Quadrupole moment (field-independent basis, Debye-Ang):
   XX=            -10.4503   YY=             -8.8891   ZZ=            -14.7085
   XY=              2.5556   XZ=              0.0000   YZ=              0.0000

 Normal termination of Gaussian 16 at Fri Aug 26 22:46:49 2022.
