 Gaussian 16, Revision A.03,
 Gaussian 16:  ES64L-G16RevA.03 25-Dec-2016

 ------------------
 #p CCSD(T)/cc-pVTZ
 ------------------

 ------------
 H2O_H2O_3632
 ------------
 Symbolic Z-matrix:
 Charge =  0 Multiplicity = 1

                         Standard orientation:
 ---------------------------------------------------------------------
 Center     Atomic      Atomic             Coordinates (Angstroms)
 Number     Number       Type             X           Y           Z
 ---------------------------------------------------------------------
      1          8           0        0.073531    2.551359   -0.000000
      2          1           0        0.072863    1.568758   -0.000000
      3          1           0       -0.855746    2.870657   -0.000000
      4          8           0        0.073531   -2.384408    0.000000
      5          1           0        0.507526   -3.265972    0.000000
      6          1           0       -0.901134   -2.509047    0.000000
 ---------------------------------------------------------------------

 SCF Done:  E(RHF) =  -152.108589558     A.U. after   10 cycles
 E2 =    -0.5258860015D+00 EUMP2 =    -0.15263447555997D+03
 CCSD(T)
 CCSD(T)= -0.15266165836D+03

 The electronic state is 1-A'.
 Alpha  occ. eigenvalues --  -20.56406 -20.54866  -1.33701  -1.32175  -0.71111
 Alpha  occ. eigenvalues --   -0.69567  -0.57195  -0.55643  -0.50819  -0.49297
 Alpha virt. eigenvalues --    0.12585   0.15340   0.19413   0.21745   0.53325
 Alpha virt. eigenvalues --    0.55063   0.56463   0.58007   0.66839   0.69185
 Alpha virt. eigenvalues --    0.78084   0.78770   0.79554   0.80412   0.82820

 Mulliken charges:
               1
     1  O   -0.513481
     2  H    0.261310
     3  H    0.251312
     4  O   -0.513547
     5  H    0.259763
     6  H    0.254643
 Sum of Mulliken charges =  -0.00000

 Dipole moment (field-independent basis, Debye):
    X=             -2.5139    Y=             -2.9625    Z=              0.0000  Tot=              3.8854
 Quadrupole moment (field-independent basis, Debye-Ang):
   XX=             -9.8122   YY=             -7.4079   ZZ=            -14.7154
   XY=             -3.7179   XZ=              0.0000   YZ=             -0.0000

 CCSD(T)=-152.6616584\RMSD=7.135e-09\PG=CS [SG(H4O2)]\\@
 Normal termination of Gaussian 16 at Fri Aug 26 22:47:27 2022.
