 Gaussian 16, Revision A.03,
 Gaussian 16:  ES64L-G16RevA.03 25-Dec-2016

 ------------------
 #p CCSD(T)/cc-pVTZ
 ------------------

 ------------
 H2O_H2O_4679
 ------------
 Symbolic Z-matrix:
 Charge =  0 Multiplicity = 1

                         Standard orientation:
 ---------------------------------------------------------------------
 Center     Atomic      Atomic             Coordinates (Angstroms)
 Number     Number       Type             X           Y           Z
 ---------------------------------------------------------------------
      1          8           0        0.082797    2.963433   -0.000000
      2          1           0        0.082499    1.980832   -0.000000
      3          1           0       -0.846599    3.282382   -0.000000
      4          8           0        0.082797   -2.808902    0.000000
      5          1           0        0.336825   -3.758099    0.000000
      6          1           0       -0.897481   -2.741366    0.000000
 ---------------------------------------------------------------------

 SCF Done:  E(RHF) =  -152.107877475     A.U. after   10 cycles
 E2 =    -0.5258487227D+00 EUMP2 =    -0.15263372619757D+03
 CCSD(T)
 CCSD(T)= -0.15266093571D+03

 The electronic state is 1-A'.
 Alpha  occ. eigenvalues --  -20.56171 -20.55196  -1.33473  -1.32499  -0.70884
 Alpha  occ. eigenvalues --   -0.69897  -0.56942  -0.55957  -0.50586  -0.49615
 Alpha virt. eigenvalues --    0.13184   0.14713   0.19329   0.21157   0.53448
 Alpha virt. eigenvalues --    0.54803   0.56616   0.57686   0.66977   0.68482
 Alpha virt. eigenvalues --    0.78302   0.79253   0.79631   0.80867   0.81962

 Mulliken charges:
               1
     1  O   -0.510897
     2  H    0.258431
     3  H    0.252412
     4  O   -0.511840
     5  H    0.258156
     6  H    0.253738
 Sum of Mulliken charges =   0.00000

 Dipole moment (field-independent basis, Debye):
    X=             -2.8406    Y=             -2.7082    Z=              0.0000  Tot=              3.9247
 Quadrupole moment (field-independent basis, Debye-Ang):
   XX=            -10.2438   YY=             -7.7476   ZZ=            -14.7128
   XY=             -3.2259   XZ=              0.0000   YZ=             -0.0000

 Normal termination of Gaussian 16 at Sun Aug 28 05:01:15 2022.
