 Gaussian 16, Revision A.03,
 Gaussian 16:  ES64L-G16RevA.03 25-Dec-2016

 ------------------
 #p CCSD(T)/cc-pVTZ
 ------------------

 ------------
 H2O_H2O_3088
 ------------
 Symbolic Z-matrix:
 Charge =  0 Multiplicity = 1

                         Standard orientation:
 ---------------------------------------------------------------------
 Center     Atomic      Atomic             Coordinates (Angstroms)
 Number     Number       Type             X           Y           Z
 ---------------------------------------------------------------------
      1          8           0        0.052299    2.339008    0.000000
      2          1           0        0.050765    1.356408    0.000000
      3          1           0       -0.876695    2.659125   -0.000000
      4          8           0        0.052299   -2.159118    0.000000
      5          1           0        0.790046   -2.808145    0.000000
      6          1           0       -0.800906   -2.646505   -0.000000
 ---------------------------------------------------------------------

 SCF Done:  E(RHF) =  -152.109687078     A.U. after   10 cycles
 E2 =    -0.5259279007D+00 EUMP2 =    -0.15263561497828D+03
 CCSD(T)
 CCSD(T)= -0.15266276249D+03

 The electronic state is 1-A'.
 Alpha  occ. eigenvalues --  -20.56612 -20.54484  -1.33892  -1.31803  -0.71294
 Alpha  occ. eigenvalues --   -0.69196  -0.57429  -0.55288  -0.51020  -0.48937
 Alpha virt. eigenvalues --    0.12530   0.15858   0.19478   0.22478   0.53241
 Alpha virt. eigenvalues --    0.55361   0.56356   0.58475   0.67990   0.69342
 Alpha virt. eigenvalues --    0.77880   0.79100   0.79329   0.79893   0.83203

 Mulliken charges:
               1
     1  O   -0.518220
     2  H    0.264151
     3  H    0.251442
     4  O   -0.514218
     5  H    0.260140
     6  H    0.256705
 Sum of Mulliken charges =  -0.00000

 Dipole moment (field-independent basis, Debye):
    X=             -1.7838    Y=             -3.2328    Z=             -0.0000  Tot=              3.6923
 Quadrupole moment (field-independent basis, Debye-Ang):
   XX=             -9.2264   YY=             -7.1460   ZZ=            -14.7192
   XY=             -4.5523   XZ=              0.0000   YZ=             -0.0000

 Normal termination of Gaussian 16 at Fri Aug 26 19:42:12 2022.
