 Gaussian 16, Revision A.03,
 Gaussian 16:  ES64L-G16RevA.03 25-Dec-2016

 ------------------
 #p CCSD(T)/cc-pVTZ
 ------------------

 ------------
 H2O_H2O_4949
 ------------
 Symbolic Z-matrix:
 Charge =  0 Multiplicity = 1

                         Standard orientation:
 ---------------------------------------------------------------------
 Center     Atomic      Atomic             Coordinates (Angstroms)
 Number     Number       Type             X           Y           Z
 ---------------------------------------------------------------------
      1          8           0       -0.013461    3.065740    0.000000
      2          1           0       -0.011204    2.083142    0.000000
      3          1           0        0.915298    3.386541    0.000000
      4          8           0       -0.013461   -2.906459    0.000000
      5          1           0       -0.996060   -2.908716    0.000000
      6          1           0        0.307340   -3.835218    0.000000
 ---------------------------------------------------------------------

 SCF Done:  E(RHF) =  -152.108230933     A.U. after   10 cycles
 E2 =    -0.5258017494D+00 EUMP2 =    -0.15263403268252D+03
 CCSD(T)
 CCSD(T)= -0.15266123647D+03

 The electronic state is 1-A'.
 Alpha  occ. eigenvalues --  -20.56111 -20.55164  -1.33414  -1.32470  -0.70821
 Alpha  occ. eigenvalues --   -0.69877  -0.56898  -0.55939  -0.50532  -0.49591
 Alpha virt. eigenvalues --    0.13437   0.14700   0.19502   0.21031   0.53598
 Alpha virt. eigenvalues --    0.54766   0.56717   0.57687   0.67074   0.68387
 Alpha virt. eigenvalues --    0.78351   0.79271   0.79743   0.80761   0.81874

 Mulliken charges:
               1
     1  O   -0.513408
     2  H    0.258412
     3  H    0.254968
     4  O   -0.513817
     5  H    0.256418
     6  H    0.257426
 Sum of Mulliken charges =  -0.00000

 Dipole moment (field-independent basis, Debye):
    X=              0.4636    Y=             -2.7850    Z=              0.0000  Tot=              2.8234
 Quadrupole moment (field-independent basis, Debye-Ang):
   XX=             -9.6491   YY=             -7.3100   ZZ=            -14.7141
   XY=              8.3125   XZ=              0.0000   YZ=              0.0000

 Normal termination of Gaussian 16 at Sun Aug 28 07:11:15 2022.
