 Gaussian 16, Revision A.03,
 Gaussian 16:  ES64L-G16RevA.03 25-Dec-2016

 ------------------
 #p CCSD(T)/cc-pVTZ
 ------------------

 ------------
 H2O_H2O_2288
 ------------
 Symbolic Z-matrix:
 Charge =  0 Multiplicity = 1

                         Standard orientation:
 ---------------------------------------------------------------------
 Center     Atomic      Atomic             Coordinates (Angstroms)
 Number     Number       Type             X           Y           Z
 ---------------------------------------------------------------------
      1          8           0        0.052323    2.019893   -0.000000
      2          1           0        0.050535    1.037293   -0.000000
      3          1           0       -0.876589    2.340250   -0.000000
      4          8           0        0.052323   -1.840030    0.000000
      5          1           0        0.789902   -2.489248    0.000000
      6          1           0       -0.801009   -2.327196    0.000000
 ---------------------------------------------------------------------

 SCF Done:  E(RHF) =  -152.111377567     A.U. after   10 cycles
 E2 =    -0.5262176524D+00 EUMP2 =    -0.15263759521974D+03
 CCSD(T)
 CCSD(T)= -0.15266468634D+03

 The electronic state is 1-A'.
 Alpha  occ. eigenvalues --  -20.57108 -20.53968  -1.34363  -1.31309  -0.71756
 Alpha  occ. eigenvalues --   -0.68709  -0.57989  -0.54785  -0.51500  -0.48454
 Alpha virt. eigenvalues --    0.12261   0.16642   0.19275   0.24925   0.52255
 Alpha virt. eigenvalues --    0.55474   0.56289   0.58999   0.69001   0.71601
 Alpha virt. eigenvalues --    0.77000   0.78258   0.80414   0.82490   0.83588

 Mulliken charges:
               1
     1  O   -0.524907
     2  H    0.267648
     3  H    0.249230
     4  O   -0.509227
     5  H    0.260900
     6  H    0.256355
 Sum of Mulliken charges =   0.00000

 Dipole moment (field-independent basis, Debye):
    X=             -1.7742    Y=             -3.3307    Z=              0.0000  Tot=              3.7737
 Quadrupole moment (field-independent basis, Debye-Ang):
   XX=             -9.2294   YY=             -7.6728   ZZ=            -14.7249
   XY=             -4.1012   XZ=              0.0000   YZ=             -0.0000

 Normal termination of Gaussian 16 at Sun Aug 28 06:01:01 2022.
