 Gaussian 16, Revision A.03,
 Gaussian 16:  ES64L-G16RevA.03 25-Dec-2016

 ------------------
 #p CCSD(T)/cc-pVTZ
 ------------------

 ------------
 H2O_H2O_4389
 ------------
 Symbolic Z-matrix:
 Charge =  0 Multiplicity = 1

                         Standard orientation:
 ---------------------------------------------------------------------
 Center     Atomic      Atomic             Coordinates (Angstroms)
 Number     Number       Type             X           Y           Z
 ---------------------------------------------------------------------
      1          8           0        0.048555    2.857834    0.000000
      2          1           0        0.047194    1.875234    0.000000
      3          1           0       -0.880496    3.177787    0.000000
      4          8           0        0.048555   -2.677415   -0.000000
      5          1           0        0.827276   -3.276665   -0.000000
      6          1           0       -0.770852   -3.219706   -0.000000
 ---------------------------------------------------------------------

 SCF Done:  E(RHF) =  -152.108477069     A.U. after   10 cycles
 E2 =    -0.5258103984D+00 EUMP2 =    -0.15263428746730D+03
 CCSD(T)
 CCSD(T)= -0.15266148249D+03

 The electronic state is 1-A'.
 Alpha  occ. eigenvalues --  -20.56206 -20.54916  -1.33507  -1.32224  -0.70911
 Alpha  occ. eigenvalues --   -0.69624  -0.57003  -0.55696  -0.50626  -0.49347
 Alpha virt. eigenvalues --    0.13310   0.14987   0.19689   0.21091   0.53640
 Alpha virt. eigenvalues --    0.54860   0.56647   0.57805   0.66779   0.68838
 Alpha virt. eigenvalues --    0.78262   0.79507   0.79661   0.79984   0.82744

 Mulliken charges:
               1
     1  O   -0.514096
     2  H    0.260739
     3  H    0.253180
     4  O   -0.514832
     5  H    0.258475
     6  H    0.256535
 Sum of Mulliken charges =  -0.00000

 Dipole moment (field-independent basis, Debye):
    X=             -1.6647    Y=             -3.1705    Z=             -0.0000  Tot=              3.5810
 Quadrupole moment (field-independent basis, Debye-Ang):
   XX=             -9.1821   YY=             -6.2892   ZZ=            -14.7150
   XY=             -5.4996   XZ=             -0.0000   YZ=              0.0000

 Normal termination of Gaussian 16 at Sun Aug 28 02:26:24 2022.
