 Gaussian 16, Revision A.03,
 Gaussian 16:  ES64L-G16RevA.03 25-Dec-2016

 ------------------
 #p CCSD(T)/cc-pVTZ
 ------------------

 ------------
 H2O_H2O_3143
 ------------
 Symbolic Z-matrix:
 Charge =  0 Multiplicity = 1

                         Standard orientation:
 ---------------------------------------------------------------------
 Center     Atomic      Atomic             Coordinates (Angstroms)
 Number     Number       Type             X           Y           Z
 ---------------------------------------------------------------------
      1          8           0        0.033790    2.357669   -0.000000
      2          1           0        0.031577    1.375070   -0.000000
      3          1           0       -0.894983    2.678428   -0.000000
      4          8           0        0.033790   -2.180146    0.000000
      5          1           0        0.940747   -2.558215    0.000000
      6          1           0       -0.617979   -2.915471    0.000000
 ---------------------------------------------------------------------

 SCF Done:  E(RHF) =  -152.109748373     A.U. after   10 cycles
 E2 =    -0.5258973481D+00 EUMP2 =    -0.15263564572142D+03
 CCSD(T)
 CCSD(T)= -0.15266279418D+03

 The electronic state is 1-A'.
 Alpha  occ. eigenvalues --  -20.56577 -20.54520  -1.33860  -1.31839  -0.71261
 Alpha  occ. eigenvalues --   -0.69239  -0.57401  -0.55329  -0.50989  -0.48975
 Alpha virt. eigenvalues --    0.12555   0.15836   0.19447   0.22464   0.53309
 Alpha virt. eigenvalues --    0.55408   0.56443   0.58322   0.67821   0.69350
 Alpha virt. eigenvalues --    0.77912   0.78916   0.79687   0.79855   0.83179

 Mulliken charges:
               1
     1  O   -0.519126
     2  H    0.263757
     3  H    0.252996
     4  O   -0.515313
     5  H    0.259656
     6  H    0.258030
 Sum of Mulliken charges =  -0.00000

 Dipole moment (field-independent basis, Debye):
    X=             -1.1537    Y=             -3.1847    Z=              0.0000  Tot=              3.3873
 Quadrupole moment (field-independent basis, Debye-Ang):
   XX=             -9.1860   YY=             -7.1967   ZZ=            -14.7195
   XY=             -5.3410   XZ=              0.0000   YZ=             -0.0000

 CCSD(T)=-152.6627942\RMSD=6.876e-09\PG=CS [SG(H4O2)]\\@
 Normal termination of Gaussian 16 at Fri Aug 26 20:01:03 2022.
