 Gaussian 16, Revision A.03,
 Gaussian 16:  ES64L-G16RevA.03 25-Dec-2016

 ------------------
 #p CCSD(T)/cc-pVTZ
 ------------------

 -----------
 H2O_H2O_267
 -----------
 Symbolic Z-matrix:
 Charge =  0 Multiplicity = 1

                         Standard orientation:
 ---------------------------------------------------------------------
 Center     Atomic      Atomic             Coordinates (Angstroms)
 Number     Number       Type             X           Y           Z
 ---------------------------------------------------------------------
      1          8           0        0.037639    1.211603   -0.000000
      2          1           0        0.033441    0.229011   -0.000000
      3          1           0       -0.890484    1.534238    0.000000
      4          8           0        0.037639   -1.032801   -0.000000
      5          1           0        0.917043   -1.471155   -0.000000
      6          1           0       -0.662222   -1.722512    0.000000
 ---------------------------------------------------------------------

 SCF Done:  E(RHF) =  -152.078463951     A.U. after   11 cycles
 E2 =    -0.5337602824D+00 EUMP2 =    -0.15261222423317D+03
 CCSD(T)
 CCSD(T)= -0.15263817456D+03

 The electronic state is 1-A'.
 Alpha  occ. eigenvalues --  -20.61145 -20.46422  -1.40911  -1.25753  -0.77154
 Alpha  occ. eigenvalues --   -0.74289  -0.56884  -0.56749  -0.46814  -0.42502
 Alpha virt. eigenvalues --    0.10856   0.17191   0.20445   0.33638   0.46871
 Alpha virt. eigenvalues --    0.52804   0.61686   0.66848   0.70043   0.71786
 Alpha virt. eigenvalues --    0.78012   0.79402   0.79877   0.82725   0.84256

 Mulliken charges:
               1
     1  O   -0.647525
     2  H    0.303252
     3  H    0.219257
     4  O   -0.377693
     5  H    0.259960
     6  H    0.242749
 Sum of Mulliken charges =  -0.00000

 Dipole moment (field-independent basis, Debye):
    X=             -1.1724    Y=             -4.6704    Z=             -0.0000  Tot=              4.8153
 Quadrupole moment (field-independent basis, Debye-Ang):
   XX=             -9.1062   YY=             -9.8416   ZZ=            -14.6211
   XY=             -2.8692   XZ=             -0.0000   YZ=             -0.0000

 Normal termination of Gaussian 16 at Fri Aug 26 17:02:25 2022.
