 Gaussian 16, Revision A.03,
 Gaussian 16:  ES64L-G16RevA.03 25-Dec-2016

 ------------------
 #p CCSD(T)/cc-pVTZ
 ------------------

 ------------
 H2O_H2O_1216
 ------------
 Symbolic Z-matrix:
 Charge =  0 Multiplicity = 1

                         Standard orientation:
 ---------------------------------------------------------------------
 Center     Atomic      Atomic             Coordinates (Angstroms)
 Number     Number       Type             X           Y           Z
 ---------------------------------------------------------------------
      1          8           0        0.041231    1.591094    0.000000
      2          1           0        0.038301    0.608497    0.000000
      3          1           0       -0.887308    1.912530    0.000000
      4          8           0        0.041231   -1.411253   -0.000000
      5          1           0        0.890720   -1.905088   -0.000000
      6          1           0       -0.701411   -2.054673   -0.000000
 ---------------------------------------------------------------------

 SCF Done:  E(RHF) =  -152.114240581     A.U. after   10 cycles
 E2 =    -0.5278405859D+00 EUMP2 =    -0.15264208116727D+03
 CCSD(T)
 CCSD(T)= -0.15266900733D+03

 The electronic state is 1-A'.
 Alpha  occ. eigenvalues --  -20.58412 -20.52226  -1.35782  -1.29786  -0.73062
 Alpha  occ. eigenvalues --   -0.67899  -0.59535  -0.52972  -0.52886  -0.46924
 Alpha virt. eigenvalues --    0.11974   0.18048   0.18813   0.30792   0.49158
 Alpha virt. eigenvalues --    0.54693   0.55989   0.60721   0.68801   0.71746
 Alpha virt. eigenvalues --    0.73280   0.77161   0.82146   0.82711   0.84929

 Mulliken charges:
               1
     1  O   -0.556129
     2  H    0.288134
     3  H    0.244405
     4  O   -0.501295
     5  H    0.266390
     6  H    0.258494
 Sum of Mulliken charges =  -0.00000

 Dipole moment (field-independent basis, Debye):
    X=             -1.3724    Y=             -3.6581    Z=             -0.0000  Tot=              3.9071
 Quadrupole moment (field-independent basis, Debye-Ang):
   XX=             -9.1486   YY=             -8.5400   ZZ=            -14.7334
   XY=             -3.6382   XZ=             -0.0000   YZ=             -0.0000

 Normal termination of Gaussian 16 at Fri Aug 26 23:11:03 2022.
