 Gaussian 16, Revision A.03,
 Gaussian 16:  ES64L-G16RevA.03 25-Dec-2016

 ------------------
 #p CCSD(T)/cc-pVTZ
 ------------------

 -----------
 H2O_H2O_711
 -----------
 Symbolic Z-matrix:
 Charge =  0 Multiplicity = 1

                         Standard orientation:
 ---------------------------------------------------------------------
 Center     Atomic      Atomic             Coordinates (Angstroms)
 Number     Number       Type             X           Y           Z
 ---------------------------------------------------------------------
      1          8           0        0.059724    1.390291    0.000000
      2          1           0        0.057552    0.407692    0.000000
      3          1           0       -0.869062    1.711011    0.000000
      4          8           0        0.059724   -1.212958    0.000000
      5          1           0        0.705964   -1.953147    0.000000
      6          1           0       -0.850041   -1.584218    0.000000
 ---------------------------------------------------------------------

 SCF Done:  E(RHF) =  -152.108087233     A.U. after   10 cycles
 E2 =    -0.5303398758D+00 EUMP2 =    -0.15263842710911D+03
 CCSD(T)
 CCSD(T)= -0.15266505504D+03

 The electronic state is 1-A'.
 Alpha  occ. eigenvalues --  -20.59570 -20.50357  -1.37486  -1.28385  -0.74567
 Alpha  occ. eigenvalues --   -0.69293  -0.59358  -0.54359  -0.51002  -0.45413
 Alpha virt. eigenvalues --    0.11468   0.17472   0.19643   0.33004   0.47914
 Alpha virt. eigenvalues --    0.54068   0.60391   0.60652   0.70489   0.72360
 Alpha virt. eigenvalues --    0.72731   0.77826   0.81369   0.83137   0.84369

 Mulliken charges:
               1
     1  O   -0.587564
     2  H    0.309359
     3  H    0.229678
     4  O   -0.459568
     5  H    0.256974
     6  H    0.251121
 Sum of Mulliken charges =  -0.00000

 Dipole moment (field-independent basis, Debye):
    X=             -1.9356    Y=             -3.9859    Z=              0.0000  Tot=              4.4310
 Quadrupole moment (field-independent basis, Debye-Ang):
   XX=             -9.3675   YY=             -9.1129   ZZ=            -14.6990
   XY=             -3.0912   XZ=              0.0000   YZ=              0.0000

 Normal termination of Gaussian 16 at Fri Aug 26 20:01:08 2022.
