 Gaussian 16, Revision A.03,
 Gaussian 16:  ES64L-G16RevA.03 25-Dec-2016

 ------------------
 #p CCSD(T)/cc-pVTZ
 ------------------

 ------------
 H2O_H2O_4247
 ------------
 Symbolic Z-matrix:
 Charge =  0 Multiplicity = 1

                         Standard orientation:
 ---------------------------------------------------------------------
 Center     Atomic      Atomic             Coordinates (Angstroms)
 Number     Number       Type             X           Y           Z
 ---------------------------------------------------------------------
      1          8           0       -0.019823    2.790785    0.000000
      2          1           0       -0.017532    1.808186    0.000000
      3          1           0        0.908924    3.111618    0.000000
      4          8           0       -0.019823   -2.623663    0.000000
      5          1           0       -0.993717   -2.754190    0.000000
      6          1           0        0.419492   -3.502588    0.000000
 ---------------------------------------------------------------------

 SCF Done:  E(RHF) =  -152.108592365     A.U. after   10 cycles
 E2 =    -0.5258021019D+00 EUMP2 =    -0.15263439446655D+03
 CCSD(T)
 CCSD(T)= -0.15266158696D+03

 The electronic state is 1-A'.
 Alpha  occ. eigenvalues --  -20.56228 -20.54979  -1.33530  -1.32288  -0.70935
 Alpha  occ. eigenvalues --   -0.69693  -0.57028  -0.55764  -0.50649  -0.49413
 Alpha virt. eigenvalues --    0.13107   0.15040   0.19446   0.21380   0.53387
 Alpha virt. eigenvalues --    0.54994   0.56644   0.57813   0.66730   0.68846
 Alpha virt. eigenvalues --    0.78239   0.79296   0.79441   0.80576   0.82681

 Mulliken charges:
               1
     1  O   -0.514974
     2  H    0.260139
     3  H    0.254612
     4  O   -0.515440
     5  H    0.257517
     6  H    0.258146
 Sum of Mulliken charges =  -0.00000

 Dipole moment (field-independent basis, Debye):
    X=              0.6808    Y=             -2.9394    Z=              0.0000  Tot=              3.0172
 Quadrupole moment (field-independent basis, Debye-Ang):
   XX=             -9.4472   YY=             -7.1045   ZZ=            -14.7153
   XY=              7.0986   XZ=              0.0000   YZ=              0.0000

 Normal termination of Gaussian 16 at Sun Aug 28 01:10:22 2022.
