 Gaussian 16, Revision A.03,
 Gaussian 16:  ES64L-G16RevA.03 25-Dec-2016

 ------------------
 #p CCSD(T)/cc-pVTZ
 ------------------

 ------------
 H2O_H2O_3059
 ------------
 Symbolic Z-matrix:
 Charge =  0 Multiplicity = 1

                         Standard orientation:
 ---------------------------------------------------------------------
 Center     Atomic      Atomic             Coordinates (Angstroms)
 Number     Number       Type             X           Y           Z
 ---------------------------------------------------------------------
      1          8           0        0.066761    2.325348   -0.000000
      2          1           0        0.065768    1.342747   -0.000000
      3          1           0       -0.862409    2.644953   -0.000000
      4          8           0        0.066761   -2.152245    0.000000
      5          1           0        0.611840   -2.969799    0.000000
      6          1           0       -0.883380   -2.402721    0.000000
 ---------------------------------------------------------------------

 SCF Done:  E(RHF) =  -152.109394994     A.U. after   10 cycles
 E2 =    -0.5259632737D+00 EUMP2 =    -0.15263535826804D+03
 CCSD(T)
 CCSD(T)= -0.15266251083D+03

 The electronic state is 1-A'.
 Alpha  occ. eigenvalues --  -20.56628 -20.54580  -1.33910  -1.31896  -0.71318
 Alpha  occ. eigenvalues --   -0.69283  -0.57433  -0.55373  -0.51034  -0.49025
 Alpha virt. eigenvalues --    0.12365   0.15807   0.19448   0.22525   0.53444
 Alpha virt. eigenvalues --    0.55281   0.56313   0.58489   0.67974   0.69329
 Alpha virt. eigenvalues --    0.77864   0.78891   0.79813   0.79875   0.83091

 Mulliken charges:
               1
     1  O   -0.516540
     2  H    0.263582
     3  H    0.250423
     4  O   -0.512834
     5  H    0.260117
     6  H    0.255253
 Sum of Mulliken charges =  -0.00000

 Dipole moment (field-independent basis, Debye):
    X=             -2.2762    Y=             -3.1116    Z=              0.0000  Tot=              3.8552
 Quadrupole moment (field-independent basis, Debye-Ang):
   XX=             -9.5651   YY=             -7.4204   ZZ=            -14.7181
   XY=             -3.9089   XZ=              0.0000   YZ=             -0.0000

 Normal termination of Gaussian 16 at Fri Aug 26 19:32:41 2022.
