 Gaussian 16, Revision A.03,
 Gaussian 16:  ES64L-G16RevA.03 25-Dec-2016

 ------------------
 #p CCSD(T)/cc-pVTZ
 ------------------

 -----------
 H2O_H2O_855
 -----------
 Symbolic Z-matrix:
 Charge =  0 Multiplicity = 1

                         Standard orientation:
 ---------------------------------------------------------------------
 Center     Atomic      Atomic             Coordinates (Angstroms)
 Number     Number       Type             X           Y           Z
 ---------------------------------------------------------------------
      1          8           0        0.079878   -1.440163    0.000000
      2          1           0        0.079061   -0.457562    0.000000
      3          1           0       -0.849350   -1.759602    0.000000
      4          8           0        0.079878    1.281154    0.000000
      5          1           0        0.394952    2.211872    0.000000
      6          1           0       -0.902716    1.277358    0.000000
 ---------------------------------------------------------------------

 SCF Done:  E(RHF) =  -152.108055299     A.U. after   10 cycles
 E2 =    -0.5299175809D+00 EUMP2 =    -0.15263797287969D+03
 CCSD(T)
 CCSD(T)= -0.15266477861D+03

 The electronic state is 1-A'.
 Alpha  occ. eigenvalues --  -20.59102 -20.51999  -1.36859  -1.29723  -0.74658
 Alpha  occ. eigenvalues --   -0.68251  -0.59693  -0.53754  -0.52687  -0.46778
 Alpha virt. eigenvalues --    0.11472   0.16811   0.20078   0.31921   0.48221
 Alpha virt. eigenvalues --    0.53842   0.58777   0.60989   0.69489   0.72170
 Alpha virt. eigenvalues --    0.74378   0.77434   0.80557   0.82754   0.83766

 Mulliken charges:
               1
     1  O   -0.558372
     2  H    0.293726
     3  H    0.229242
     4  O   -0.443661
     5  H    0.238062
     6  H    0.241003
 Sum of Mulliken charges =  -0.00000

 Dipole moment (field-independent basis, Debye):
    X=             -2.6107    Y=              3.4510    Z=              0.0000  Tot=              4.3273
 Quadrupole moment (field-independent basis, Debye-Ang):
   XX=            -10.1379   YY=             -8.9837   ZZ=            -14.6959
   XY=              2.7328   XZ=              0.0000   YZ=              0.0000

 Normal termination of Gaussian 16 at Fri Aug 26 20:55:36 2022.
