 Gaussian 16, Revision A.03,
 Gaussian 16:  ES64L-G16RevA.03 25-Dec-2016

 ------------------
 #p CCSD(T)/cc-pVTZ
 ------------------

 ------------
 H2O_H2O_1961
 ------------
 Symbolic Z-matrix:
 Charge =  0 Multiplicity = 1

                         Standard orientation:
 ---------------------------------------------------------------------
 Center     Atomic      Atomic             Coordinates (Angstroms)
 Number     Number       Type             X           Y           Z
 ---------------------------------------------------------------------
      1          8           0        0.059670    1.888923    0.000000
      2          1           0        0.058099    0.906322    0.000000
      3          1           0       -0.869313    2.209074    0.000000
      4          8           0        0.059670   -1.711516    0.000000
      5          1           0        0.706363   -2.451311    0.000000
      6          1           0       -0.849867   -2.083335    0.000000
 ---------------------------------------------------------------------

 SCF Done:  E(RHF) =  -152.112084868     A.U. after   10 cycles
 E2 =    -0.5265041497D+00 EUMP2 =    -0.15263858901755D+03
 CCSD(T)
 CCSD(T)= -0.15266565377D+03

 The electronic state is 1-A'.
 Alpha  occ. eigenvalues --  -20.57401 -20.53715  -1.34656  -1.31075  -0.72047
 Alpha  occ. eigenvalues --   -0.68499  -0.58336  -0.54521  -0.51791  -0.48221
 Alpha virt. eigenvalues --    0.12115   0.16902   0.19238   0.26325   0.51328
 Alpha virt. eigenvalues --    0.55281   0.56252   0.58853   0.69021   0.72418
 Alpha virt. eigenvalues --    0.76109   0.77670   0.80724   0.83374   0.84120

 Mulliken charges:
               1
     1  O   -0.527854
     2  H    0.269606
     3  H    0.246917
     4  O   -0.506547
     5  H    0.261958
     6  H    0.255920
 Sum of Mulliken charges =  -0.00000

 Dipole moment (field-independent basis, Debye):
    X=             -2.0153    Y=             -3.3457    Z=              0.0000  Tot=              3.9058
 Quadrupole moment (field-independent basis, Debye-Ang):
   XX=             -9.3731   YY=             -7.9538   ZZ=            -14.7281
   XY=             -3.7222   XZ=              0.0000   YZ=              0.0000

 Normal termination of Gaussian 16 at Sun Aug 28 03:11:18 2022.
