 Gaussian 16, Revision A.03,
 Gaussian 16:  ES64L-G16RevA.03 25-Dec-2016

 ------------------
 #p CCSD(T)/cc-pVTZ
 ------------------

 -----------
 H2O_H2O_321
 -----------
 Symbolic Z-matrix:
 Charge =  0 Multiplicity = 1

                         Standard orientation:
 ---------------------------------------------------------------------
 Center     Atomic      Atomic             Coordinates (Angstroms)
 Number     Number       Type             X           Y           Z
 ---------------------------------------------------------------------
      1          8           0       -0.023432    1.226913    0.000000
      2          1           0       -0.018248    0.244325    0.000000
      3          1           0        0.904367    1.550479    0.000000
      4          8           0       -0.023432   -1.056648    0.000000
      5          1           0       -0.986128   -1.253426    0.000000
      6          1           0        0.474922   -1.903496    0.000000
 ---------------------------------------------------------------------

 SCF Done:  E(RHF) =  -152.083011124     A.U. after   11 cycles
 E2 =    -0.5335103936D+00 EUMP2 =    -0.15261652151750D+03
 CCSD(T)
 CCSD(T)= -0.15264257238D+03

 The electronic state is 1-A'.
 Alpha  occ. eigenvalues --  -20.60814 -20.47333  -1.40365  -1.26365  -0.77926
 Alpha  occ. eigenvalues --   -0.71826  -0.57768  -0.56418  -0.47701  -0.43210
 Alpha virt. eigenvalues --    0.11108   0.17549   0.20144   0.33965   0.47285
 Alpha virt. eigenvalues --    0.52844   0.59879   0.68532   0.70894   0.71945
 Alpha virt. eigenvalues --    0.76594   0.77748   0.78587   0.84067   0.84348

 Mulliken charges:
               1
     1  O   -0.641449
     2  H    0.295801
     3  H    0.230199
     4  O   -0.380863
     5  H    0.261153
     6  H    0.235160
 Sum of Mulliken charges =  -0.00000

 Dipole moment (field-independent basis, Debye):
    X=              0.7404    Y=             -4.3842    Z=              0.0000  Tot=              4.4463
 Quadrupole moment (field-independent basis, Debye-Ang):
   XX=             -9.2903   YY=             -9.6855   ZZ=            -14.6269
   XY=              3.0289   XZ=              0.0000   YZ=              0.0000

 Normal termination of Gaussian 16 at Fri Aug 26 17:25:05 2022.
