 Gaussian 16, Revision A.03,
 Gaussian 16:  ES64L-G16RevA.03 25-Dec-2016

 ------------------
 #p CCSD(T)/cc-pVTZ
 ------------------

 ------------
 H2O_H2O_2977
 ------------
 Symbolic Z-matrix:
 Charge =  0 Multiplicity = 1

                         Standard orientation:
 ---------------------------------------------------------------------
 Center     Atomic      Atomic             Coordinates (Angstroms)
 Number     Number       Type             X           Y           Z
 ---------------------------------------------------------------------
      1          8           0        0.088232   -2.279795    0.000000
      2          1           0        0.088050   -1.297194    0.000000
      3          1           0       -0.841202   -2.598633    0.000000
      4          8           0        0.088232    2.135476    0.000000
      5          1           0        0.216308    3.109696    0.000000
      6          1           0       -0.874868    1.940681    0.000000
 ---------------------------------------------------------------------

 SCF Done:  E(RHF) =  -152.108455779     A.U. after   10 cycles
 E2 =    -0.5260626261D+00 EUMP2 =    -0.15263451840479D+03
 CCSD(T)
 CCSD(T)= -0.15266169179D+03

 The electronic state is 1-A'.
 Alpha  occ. eigenvalues --  -20.56663 -20.54980  -1.33954  -1.32285  -0.71384
 Alpha  occ. eigenvalues --   -0.69665  -0.57435  -0.55742  -0.51066  -0.49402
 Alpha virt. eigenvalues --    0.11730   0.15642   0.19416   0.23052   0.54327
 Alpha virt. eigenvalues --    0.54678   0.56444   0.58193   0.68079   0.69078
 Alpha virt. eigenvalues --    0.77818   0.78555   0.79469   0.80968   0.82716

 Mulliken charges:
               1
     1  O   -0.512157
     2  H    0.261149
     3  H    0.249228
     4  O   -0.508992
     5  H    0.259719
     6  H    0.251053
 Sum of Mulliken charges =   0.00000

 Dipole moment (field-independent basis, Debye):
    X=             -3.0044    Y=              2.5931    Z=              0.0000  Tot=              3.9687
 Quadrupole moment (field-independent basis, Debye-Ang):
   XX=            -10.5626   YY=             -8.6646   ZZ=            -14.7143
   XY=              2.5746   XZ=              0.0000   YZ=              0.0000

 CCSD(T)=-152.6616918\RMSD=7.161e-09\PG=CS [SG(H4O2)]\\@
 Normal termination of Gaussian 16 at Fri Aug 26 18:56:05 2022.
