 Gaussian 16, Revision A.03,
 Gaussian 16:  ES64L-G16RevA.03 25-Dec-2016

 ------------------
 #p CCSD(T)/cc-pVTZ
 ------------------

 ------------
 H2O_H2O_4628
 ------------
 Symbolic Z-matrix:
 Charge =  0 Multiplicity = 1

                         Standard orientation:
 ---------------------------------------------------------------------
 Center     Atomic      Atomic             Coordinates (Angstroms)
 Number     Number       Type             X           Y           Z
 ---------------------------------------------------------------------
      1          8           0        0.085596   -2.940815    0.000000
      2          1           0        0.085379   -1.958213    0.000000
      3          1           0       -0.843826   -3.259687    0.000000
      4          8           0        0.085596    2.791208    0.000000
      5          1           0        0.277079    3.754971    0.000000
      6          1           0       -0.888176    2.659784    0.000000
 ---------------------------------------------------------------------

 SCF Done:  E(RHF) =  -152.107821878     A.U. after   10 cycles
 E2 =    -0.5258553700D+00 EUMP2 =    -0.15263367724824D+03
 CCSD(T)
 CCSD(T)= -0.15266088785D+03

 The electronic state is 1-A'.
 Alpha  occ. eigenvalues --  -20.56182 -20.55229  -1.33484  -1.32532  -0.70896
 Alpha  occ. eigenvalues --   -0.69929  -0.56950  -0.55988  -0.50596  -0.49647
 Alpha virt. eigenvalues --    0.13086   0.14717   0.19223   0.21268   0.53390
 Alpha virt. eigenvalues --    0.54809   0.56597   0.57683   0.66959   0.68478
 Alpha virt. eigenvalues --    0.78293   0.79222   0.79629   0.80972   0.81880

 Mulliken charges:
               1
     1  O   -0.510567
     2  H    0.258183
     3  H    0.252327
     4  O   -0.511534
     5  H    0.258181
     6  H    0.253410
 Sum of Mulliken charges =   0.00000

 Dipole moment (field-independent basis, Debye):
    X=             -2.9363    Y=              2.6227    Z=              0.0000  Tot=              3.9370
 Quadrupole moment (field-independent basis, Debye-Ang):
   XX=            -10.3966   YY=             -8.0952   ZZ=            -14.7126
   XY=              2.9554   XZ=              0.0000   YZ=              0.0000

 Normal termination of Gaussian 16 at Sun Aug 28 04:29:52 2022.
