 Gaussian 16, Revision A.03,
 Gaussian 16:  ES64L-G16RevA.03 25-Dec-2016

 ------------------
 #p CCSD(T)/cc-pVTZ
 ------------------

 ------------
 H2O_H2O_1261
 ------------
 Symbolic Z-matrix:
 Charge =  0 Multiplicity = 1

                         Standard orientation:
 ---------------------------------------------------------------------
 Center     Atomic      Atomic             Coordinates (Angstroms)
 Number     Number       Type             X           Y           Z
 ---------------------------------------------------------------------
      1          8           0        0.059696    1.609692   -0.000000
      2          1           0        0.057837    0.627092   -0.000000
      3          1           0       -0.869193    1.930116   -0.000000
      4          8           0        0.059696   -1.432321    0.000000
      5          1           0        0.706171   -2.172304    0.000000
      6          1           0       -0.849950   -1.803872    0.000000
 ---------------------------------------------------------------------

 SCF Done:  E(RHF) =  -152.113604520     A.U. after   10 cycles
 E2 =    -0.5278019824D+00 EUMP2 =    -0.15264140650287D+03
 CCSD(T)
 CCSD(T)= -0.15266835532D+03

 The electronic state is 1-A'.
 Alpha  occ. eigenvalues --  -20.58332 -20.52518  -1.35688  -1.30037  -0.73017
 Alpha  occ. eigenvalues --   -0.67980  -0.59408  -0.53266  -0.52789  -0.47168
 Alpha virt. eigenvalues --    0.11876   0.17506   0.19176   0.30335   0.48891
 Alpha virt. eigenvalues --    0.54882   0.56842   0.59495   0.69695   0.72201
 Alpha virt. eigenvalues --    0.73414   0.76731   0.81947   0.82677   0.84766

 Mulliken charges:
               1
     1  O   -0.548390
     2  H    0.286135
     3  H    0.240914
     4  O   -0.497849
     5  H    0.262580
     6  H    0.256609
 Sum of Mulliken charges =  -0.00000

 Dipole moment (field-independent basis, Debye):
    X=             -1.9862    Y=             -3.5790    Z=              0.0000  Tot=              4.0932
 Quadrupole moment (field-independent basis, Debye-Ang):
   XX=             -9.3773   YY=             -8.5065   ZZ=            -14.7313
   XY=             -3.3853   XZ=              0.0000   YZ=              0.0000

 CCSD(T)=-152.6683553\RMSD=6.993e-09\PG=CS [SG(H4O2)]\\@
 Normal termination of Gaussian 16 at Fri Aug 26 23:27:32 2022.
