 Gaussian 16, Revision A.03,
 Gaussian 16:  ES64L-G16RevA.03 25-Dec-2016

 ------------------
 #p CCSD(T)/cc-pVTZ
 ------------------

 ------------
 H2O_H2O_2993
 ------------
 Symbolic Z-matrix:
 Charge =  0 Multiplicity = 1

                         Standard orientation:
 ---------------------------------------------------------------------
 Center     Atomic      Atomic             Coordinates (Angstroms)
 Number     Number       Type             X           Y           Z
 ---------------------------------------------------------------------
      1          8           0        0.033795    2.297836   -0.000000
      2          1           0        0.031522    1.315237   -0.000000
      3          1           0       -0.894958    2.618652   -0.000000
      4          8           0        0.033795   -2.120317    0.000000
      5          1           0        0.940728   -2.498440    0.000000
      6          1           0       -0.618019   -2.855602    0.000000
 ---------------------------------------------------------------------

 SCF Done:  E(RHF) =  -152.109990123     A.U. after   10 cycles
 E2 =    -0.5259264680D+00 EUMP2 =    -0.15263591659077D+03
 CCSD(T)
 CCSD(T)= -0.15266305638D+03

 The electronic state is 1-A'.
 Alpha  occ. eigenvalues --  -20.56647 -20.54447  -1.33926  -1.31769  -0.71326
 Alpha  occ. eigenvalues --   -0.69168  -0.57476  -0.55259  -0.51057  -0.48907
 Alpha virt. eigenvalues --    0.12492   0.15969   0.19416   0.22783   0.53263
 Alpha virt. eigenvalues --    0.55501   0.56416   0.58485   0.68306   0.69338
 Alpha virt. eigenvalues --    0.77833   0.78999   0.79677   0.79921   0.83255

 Mulliken charges:
               1
     1  O   -0.520100
     2  H    0.264299
     3  H    0.252804
     4  O   -0.514775
     5  H    0.259829
     6  H    0.257944
 Sum of Mulliken charges =   0.00000

 Dipole moment (field-independent basis, Debye):
    X=             -1.1530    Y=             -3.1978    Z=              0.0000  Tot=              3.3994
 Quadrupole moment (field-independent basis, Debye-Ang):
   XX=             -9.1859   YY=             -7.2877   ZZ=            -14.7202
   XY=             -5.2185   XZ=              0.0000   YZ=              0.0000

 CCSD(T)=-152.6630564\RMSD=6.822e-09\PG=CS [SG(H4O2)]\\@
 Normal termination of Gaussian 16 at Fri Aug 26 19:06:30 2022.
