 Gaussian 16, Revision A.03,
 Gaussian 16:  ES64L-G16RevA.03 25-Dec-2016

 ------------------
 #p CCSD(T)/cc-pVTZ
 ------------------

 ------------
 H2O_H2O_1204
 ------------
 Symbolic Z-matrix:
 Charge =  0 Multiplicity = 1

                         Standard orientation:
 ---------------------------------------------------------------------
 Center     Atomic      Atomic             Coordinates (Angstroms)
 Number     Number       Type             X           Y           Z
 ---------------------------------------------------------------------
      1          8           0        0.082819   -1.577312    0.000000
      2          1           0        0.082245   -0.594711    0.000000
      3          1           0       -0.846488   -1.896521    0.000000
      4          8           0        0.082819    1.422827    0.000000
      5          1           0        0.336581    2.372095    0.000000
      6          1           0       -0.897440    1.355016    0.000000
 ---------------------------------------------------------------------

 SCF Done:  E(RHF) =  -152.110618713     A.U. after   10 cycles
 E2 =    -0.5283123014D+00 EUMP2 =    -0.15263893101397D+03
 CCSD(T)
 CCSD(T)= -0.15266591435D+03

 The electronic state is 1-A'.
 Alpha  occ. eigenvalues --  -20.58359 -20.53255  -1.35802  -1.30732  -0.73483
 Alpha  occ. eigenvalues --   -0.68302  -0.59320  -0.53974  -0.52836  -0.47830
 Alpha virt. eigenvalues --    0.11607   0.16703   0.19988   0.29923   0.48821
 Alpha virt. eigenvalues --    0.54481   0.58286   0.58847   0.69052   0.72927
 Alpha virt. eigenvalues --    0.74645   0.77162   0.81458   0.81829   0.83742

 Mulliken charges:
               1
     1  O   -0.537709
     2  H    0.282451
     3  H    0.236205
     4  O   -0.469139
     5  H    0.242790
     6  H    0.245403
 Sum of Mulliken charges =  -0.00000

 Dipole moment (field-independent basis, Debye):
    X=             -2.7459    Y=              3.1362    Z=              0.0000  Tot=              4.1684
 Quadrupole moment (field-independent basis, Debye-Ang):
   XX=            -10.2932   YY=             -8.7912   ZZ=            -14.7137
   XY=              2.6991   XZ=              0.0000   YZ=              0.0000

 Normal termination of Gaussian 16 at Fri Aug 26 23:06:34 2022.
