 Gaussian 16, Revision A.03,
 Gaussian 16:  ES64L-G16RevA.03 25-Dec-2016

 ------------------
 #p CCSD(T)/cc-pVTZ
 ------------------

 ------------
 H2O_H2O_4965
 ------------
 Symbolic Z-matrix:
 Charge =  0 Multiplicity = 1

                         Standard orientation:
 ---------------------------------------------------------------------
 Center     Atomic      Atomic             Coordinates (Angstroms)
 Number     Number       Type             X           Y           Z
 ---------------------------------------------------------------------
      1          8           0        0.044818    3.087200   -0.000000
      2          1           0        0.043455    2.104600   -0.000000
      3          1           0       -0.884233    3.407155   -0.000000
      4          8           0        0.044818   -2.906760    0.000000
      5          1           0        0.861063   -3.453796    0.000000
      6          1           0       -0.737369   -3.501480    0.000000
 ---------------------------------------------------------------------

 SCF Done:  E(RHF) =  -152.108242292     A.U. after   10 cycles
 E2 =    -0.5258067375D+00 EUMP2 =    -0.15263404902931D+03
 CCSD(T)
 CCSD(T)= -0.15266125177D+03

 The electronic state is 1-A'.
 Alpha  occ. eigenvalues --  -20.56112 -20.55033  -1.33414  -1.32338  -0.70818
 Alpha  occ. eigenvalues --   -0.69741  -0.56900  -0.55806  -0.50532  -0.49460
 Alpha virt. eigenvalues --    0.13546   0.14765   0.19750   0.20886   0.53734
 Alpha virt. eigenvalues --    0.54799   0.56723   0.57763   0.67075   0.68501
 Alpha virt. eigenvalues --    0.78351   0.79401   0.79763   0.80518   0.82197

 Mulliken charges:
               1
     1  O   -0.513179
     2  H    0.259518
     3  H    0.253628
     4  O   -0.513792
     5  H    0.257590
     6  H    0.256235
 Sum of Mulliken charges =  -0.00000

 Dipole moment (field-independent basis, Debye):
    X=             -1.5387    Y=             -3.1566    Z=              0.0000  Tot=              3.5117
 Quadrupole moment (field-independent basis, Debye-Ang):
   XX=             -9.1570   YY=             -5.9092   ZZ=            -14.7143
   XY=             -6.0963   XZ=              0.0000   YZ=              0.0000

 07192\MP4DQ=-152.643174\MP4SDQ=-152.6462217\CCSD=-152.6456372\CCSD(T)=
 Normal termination of Gaussian 16 at Sun Aug 28 07:16:45 2022.
