 Gaussian 16, Revision A.03,
 Gaussian 16:  ES64L-G16RevA.03 25-Dec-2016

 ------------------
 #p CCSD(T)/cc-pVTZ
 ------------------

 ------------
 H2O_H2O_4489
 ------------
 Symbolic Z-matrix:
 Charge =  0 Multiplicity = 1

                         Standard orientation:
 ---------------------------------------------------------------------
 Center     Atomic      Atomic             Coordinates (Angstroms)
 Number     Number       Type             X           Y           Z
 ---------------------------------------------------------------------
      1          8           0        0.048553    2.897723    0.000000
      2          1           0        0.047212    1.915122    0.000000
      3          1           0       -0.880504    3.217658   -0.000000
      4          8           0        0.048553   -2.717302    0.000000
      5          1           0        0.827286   -3.316536    0.000000
      6          1           0       -0.770843   -3.259609   -0.000000
 ---------------------------------------------------------------------

 SCF Done:  E(RHF) =  -152.108424160     A.U. after   10 cycles
 E2 =    -0.5258091310D+00 EUMP2 =    -0.15263423329107D+03
 CCSD(T)
 CCSD(T)= -0.15266143014D+03

 The electronic state is 1-A'.
 Alpha  occ. eigenvalues --  -20.56188 -20.54939  -1.33489  -1.32246  -0.70893
 Alpha  occ. eigenvalues --   -0.69647  -0.56982  -0.55717  -0.50608  -0.49369
 Alpha virt. eigenvalues --    0.13360   0.14941   0.19700   0.21047   0.53658
 Alpha virt. eigenvalues --    0.54850   0.56661   0.57800   0.66828   0.68771
 Alpha virt. eigenvalues --    0.78279   0.79486   0.79682   0.80092   0.82691

 Mulliken charges:
               1
     1  O   -0.513890
     2  H    0.260511
     3  H    0.253243
     4  O   -0.514634
     5  H    0.258322
     6  H    0.256448
 Sum of Mulliken charges =  -0.00000

 Dipole moment (field-independent basis, Debye):
    X=             -1.6651    Y=             -3.1676    Z=             -0.0000  Tot=              3.5785
 Quadrupole moment (field-independent basis, Debye-Ang):
   XX=             -9.1821   YY=             -6.2239   ZZ=            -14.7149
   XY=             -5.5609   XZ=              0.0000   YZ=             -0.0000

 Normal termination of Gaussian 16 at Sun Aug 28 03:18:51 2022.
