 Gaussian 16, Revision A.03,
 Gaussian 16:  ES64L-G16RevA.03 25-Dec-2016

 ------------------
 #p CCSD(T)/cc-pVTZ
 ------------------

 -----------
 H2O_H2O_342
 -----------
 Symbolic Z-matrix:
 Charge =  0 Multiplicity = 1

                         Standard orientation:
 ---------------------------------------------------------------------
 Center     Atomic      Atomic             Coordinates (Angstroms)
 Number     Number       Type             X           Y           Z
 ---------------------------------------------------------------------
      1          8           0        0.037629    1.241523    0.000000
      2          1           0        0.033540    0.258930    0.000000
      3          1           0       -0.890530    1.564055    0.000000
      4          8           0        0.037629   -1.062712   -0.000000
      5          1           0        0.917081   -1.500970   -0.000000
      6          1           0       -0.662156   -1.752500   -0.000000
 ---------------------------------------------------------------------

 SCF Done:  E(RHF) =  -152.087219301     A.U. after   11 cycles
 E2 =    -0.5330620547D+00 EUMP2 =    -0.15262028135534D+03
 CCSD(T)
 CCSD(T)= -0.15264637321D+03

 The electronic state is 1-A'.
 Alpha  occ. eigenvalues --  -20.60832 -20.47211  -1.40103  -1.26241  -0.76506
 Alpha  occ. eigenvalues --   -0.73188  -0.57398  -0.56338  -0.47660  -0.43064
 Alpha virt. eigenvalues --    0.11013   0.17388   0.20213   0.33719   0.46984
 Alpha virt. eigenvalues --    0.53088   0.61292   0.66669   0.69862   0.72011
 Alpha virt. eigenvalues --    0.76833   0.78969   0.80171   0.82776   0.83869

 Mulliken charges:
               1
     1  O   -0.637674
     2  H    0.306775
     3  H    0.223034
     4  O   -0.396989
     5  H    0.260416
     6  H    0.244439
 Sum of Mulliken charges =   0.00000

 Dipole moment (field-independent basis, Debye):
    X=             -1.1837    Y=             -4.5380    Z=             -0.0000  Tot=              4.6898
 Quadrupole moment (field-independent basis, Debye-Ang):
   XX=             -9.1133   YY=             -9.7062   ZZ=            -14.6401
   XY=             -2.9404   XZ=             -0.0000   YZ=              0.0000

 Normal termination of Gaussian 16 at Fri Aug 26 17:34:00 2022.
