 Gaussian 16, Revision A.03,
 Gaussian 16:  ES64L-G16RevA.03 25-Dec-2016

 ------------------
 #p CCSD(T)/cc-pVTZ
 ------------------

 -----------
 H2O_H2O_906
 -----------
 Symbolic Z-matrix:
 Charge =  0 Multiplicity = 1

                         Standard orientation:
 ---------------------------------------------------------------------
 Center     Atomic      Atomic             Coordinates (Angstroms)
 Number     Number       Type             X           Y           Z
 ---------------------------------------------------------------------
      1          8           0        0.076790   -1.462356    0.000000
      2          1           0        0.075795   -0.479755    0.000000
      3          1           0       -0.852379   -1.781963    0.000000
      4          8           0        0.076790    1.299208    0.000000
      5          1           0        0.451897    2.207394    0.000000
      6          1           0       -0.903960    1.359507    0.000000
 ---------------------------------------------------------------------

 SCF Done:  E(RHF) =  -152.109533017     A.U. after   10 cycles
 E2 =    -0.5295270989D+00 EUMP2 =    -0.15263906011617D+03
 CCSD(T)
 CCSD(T)= -0.15266588670D+03

 The electronic state is 1-A'.
 Alpha  occ. eigenvalues --  -20.58997 -20.52012  -1.36665  -1.29707  -0.74306
 Alpha  occ. eigenvalues --   -0.68240  -0.59682  -0.53611  -0.52702  -0.46776
 Alpha virt. eigenvalues --    0.11530   0.16931   0.19906   0.31818   0.48221
 Alpha virt. eigenvalues --    0.54144   0.58881   0.60328   0.69587   0.72341
 Alpha virt. eigenvalues --    0.74384   0.77117   0.81013   0.82663   0.83950

 Mulliken charges:
               1
     1  O   -0.558383
     2  H    0.294296
     3  H    0.231155
     4  O   -0.452946
     5  H    0.241558
     6  H    0.244320
 Sum of Mulliken charges =  -0.00000

 Dipole moment (field-independent basis, Debye):
    X=             -2.5162    Y=              3.4992    Z=              0.0000  Tot=              4.3100
 Quadrupole moment (field-independent basis, Debye-Ang):
   XX=             -9.9880   YY=             -8.9139   ZZ=            -14.7035
   XY=              2.8486   XZ=              0.0000   YZ=              0.0000

 Normal termination of Gaussian 16 at Fri Aug 26 21:15:42 2022.
