 Gaussian 16, Revision A.03,
 Gaussian 16:  ES64L-G16RevA.03 25-Dec-2016

 ------------------
 #p CCSD(T)/cc-pVTZ
 ------------------

 ------------
 H2O_H2O_2063
 ------------
 Symbolic Z-matrix:
 Charge =  0 Multiplicity = 1

                         Standard orientation:
 ---------------------------------------------------------------------
 Center     Atomic      Atomic             Coordinates (Angstroms)
 Number     Number       Type             X           Y           Z
 ---------------------------------------------------------------------
      1          8           0        0.052331    1.930141   -0.000000
      2          1           0        0.050455    0.947541   -0.000000
      3          1           0       -0.876553    2.250580   -0.000000
      4          8           0        0.052331   -1.750287    0.000000
      5          1           0        0.789852   -2.399570    0.000000
      6          1           0       -0.801044   -2.237379    0.000000
 ---------------------------------------------------------------------

 SCF Done:  E(RHF) =  -152.112035258     A.U. after   10 cycles
 E2 =    -0.5263808404D+00 EUMP2 =    -0.15263841609831D+03
 CCSD(T)
 CCSD(T)= -0.15266548691D+03

 The electronic state is 1-A'.
 Alpha  occ. eigenvalues --  -20.57304 -20.53754  -1.34555  -1.31109  -0.71941
 Alpha  occ. eigenvalues --   -0.68527  -0.58228  -0.54570  -0.51693  -0.48258
 Alpha virt. eigenvalues --    0.12202   0.16886   0.19207   0.25920   0.51677
 Alpha virt. eigenvalues --    0.55221   0.56346   0.58966   0.69023   0.72233
 Alpha virt. eigenvalues --    0.76433   0.77731   0.80652   0.83459   0.84087

 Mulliken charges:
               1
     1  O   -0.527856
     2  H    0.269045
     3  H    0.248332
     4  O   -0.507878
     5  H    0.261748
     6  H    0.256608
 Sum of Mulliken charges =  -0.00000

 Dipole moment (field-independent basis, Debye):
    X=             -1.7701    Y=             -3.3719    Z=              0.0000  Tot=              3.8083
 Quadrupole moment (field-independent basis, Debye-Ang):
   XX=             -9.2311   YY=             -7.8317   ZZ=            -14.7277
   XY=             -3.9736   XZ=              0.0000   YZ=             -0.0000

 Normal termination of Gaussian 16 at Sun Aug 28 04:01:55 2022.
