 Gaussian 16, Revision A.03,
 Gaussian 16:  ES64L-G16RevA.03 25-Dec-2016

 ------------------
 #p CCSD(T)/cc-pVTZ
 ------------------

 ------------
 H2O_H2O_1255
 ------------
 Symbolic Z-matrix:
 Charge =  0 Multiplicity = 1

                         Standard orientation:
 ---------------------------------------------------------------------
 Center     Atomic      Atomic             Coordinates (Angstroms)
 Number     Number       Type             X           Y           Z
 ---------------------------------------------------------------------
      1          8           0        0.079871   -1.599721    0.000000
      2          1           0        0.079140   -0.617120    0.000000
      3          1           0       -0.849384   -1.919079    0.000000
      4          8           0        0.079871    1.440698    0.000000
      5          1           0        0.395025    2.371388    0.000000
      6          1           0       -0.902723    1.436988    0.000000
 ---------------------------------------------------------------------

 SCF Done:  E(RHF) =  -152.111321019     A.U. after   10 cycles
 E2 =    -0.5280635002D+00 EUMP2 =    -0.15263938451974D+03
 CCSD(T)
 CCSD(T)= -0.15266637071D+03

 The electronic state is 1-A'.
 Alpha  occ. eigenvalues --  -20.58284 -20.53202  -1.35690  -1.30670  -0.73276
 Alpha  occ. eigenvalues --   -0.68278  -0.59270  -0.53928  -0.52746  -0.47777
 Alpha virt. eigenvalues --    0.11663   0.16800   0.19824   0.29749   0.48915
 Alpha virt. eigenvalues --    0.54730   0.58260   0.58543   0.69352   0.73191
 Alpha virt. eigenvalues --    0.74630   0.76880   0.81519   0.82073   0.83914

 Mulliken charges:
               1
     1  O   -0.538145
     2  H    0.282109
     3  H    0.237454
     4  O   -0.476285
     5  H    0.246624
     6  H    0.248243
 Sum of Mulliken charges =  -0.00000

 Dipole moment (field-independent basis, Debye):
    X=             -2.6532    Y=              3.2046    Z=              0.0000  Tot=              4.1604
 Quadrupole moment (field-independent basis, Debye-Ang):
   XX=            -10.1378   YY=             -8.6995   ZZ=            -14.7184
   XY=              2.8353   XZ=              0.0000   YZ=              0.0000

 Normal termination of Gaussian 16 at Fri Aug 26 23:25:19 2022.
