 Gaussian 16, Revision A.03,
 Gaussian 16:  ES64L-G16RevA.03 25-Dec-2016

 ------------------
 #p CCSD(T)/cc-pVTZ
 ------------------

 ------------
 H2O_H2O_4834
 ------------
 Symbolic Z-matrix:
 Charge =  0 Multiplicity = 1

                         Standard orientation:
 ---------------------------------------------------------------------
 Center     Atomic      Atomic             Coordinates (Angstroms)
 Number     Number       Type             X           Y           Z
 ---------------------------------------------------------------------
      1          8           0        0.066740    3.033371    0.000000
      2          1           0        0.065986    2.050769    0.000000
      3          1           0       -0.862508    3.352750    0.000000
      4          8           0        0.066740   -2.860235   -0.000000
      5          1           0        0.612018   -3.677658   -0.000000
      6          1           0       -0.883339   -3.110943   -0.000000
 ---------------------------------------------------------------------

 SCF Done:  E(RHF) =  -152.108104037     A.U. after   10 cycles
 E2 =    -0.5258239408D+00 EUMP2 =    -0.15263392797796D+03
 CCSD(T)
 CCSD(T)= -0.15266113306D+03

 The electronic state is 1-A'.
 Alpha  occ. eigenvalues --  -20.56138 -20.55073  -1.33440  -1.32378  -0.70846
 Alpha  occ. eigenvalues --   -0.69777  -0.56919  -0.55841  -0.50556  -0.49497
 Alpha virt. eigenvalues --    0.13444   0.14746   0.19649   0.20922   0.53650
 Alpha virt. eigenvalues --    0.54799   0.56683   0.57731   0.67029   0.68517
 Alpha virt. eigenvalues --    0.78329   0.79366   0.79679   0.80576   0.82213

 Mulliken charges:
               1
     1  O   -0.512248
     2  H    0.259323
     3  H    0.252880
     4  O   -0.513055
     5  H    0.258015
     6  H    0.255085
 Sum of Mulliken charges =  -0.00000

 Dipole moment (field-independent basis, Debye):
    X=             -2.2905    Y=             -3.0314    Z=             -0.0000  Tot=              3.7995
 Quadrupole moment (field-independent basis, Debye-Ang):
   XX=             -9.5596   YY=             -6.4582   ZZ=            -14.7137
   XY=             -4.5551   XZ=             -0.0000   YZ=              0.0000

 Normal termination of Gaussian 16 at Sun Aug 28 06:15:45 2022.
