 Gaussian 16, Revision A.03,
 Gaussian 16:  ES64L-G16RevA.03 25-Dec-2016

 ------------------
 #p CCSD(T)/cc-pVTZ
 ------------------

 ------------
 H2O_H2O_1172
 ------------
 Symbolic Z-matrix:
 Charge =  0 Multiplicity = 1

                         Standard orientation:
 ---------------------------------------------------------------------
 Center     Atomic      Atomic             Coordinates (Angstroms)
 Number     Number       Type             X           Y           Z
 ---------------------------------------------------------------------
      1          8           0       -0.019984    1.564205    0.000000
      2          1           0       -0.015796    0.581612    0.000000
      3          1           0        0.908142    1.886830    0.000000
      4          8           0       -0.019984   -1.397160    0.000000
      5          1           0       -0.993625   -1.529566    0.000000
      6          1           0        0.421026   -2.275235    0.000000
 ---------------------------------------------------------------------

 SCF Done:  E(RHF) =  -152.113368709     A.U. after   10 cycles
 E2 =    -0.5279725628D+00 EUMP2 =    -0.15264134127214D+03
 CCSD(T)
 CCSD(T)= -0.15266826600D+03

 The electronic state is 1-A'.
 Alpha  occ. eigenvalues --  -20.58414 -20.52432  -1.35853  -1.30000  -0.73339
 Alpha  occ. eigenvalues --   -0.67934  -0.59624  -0.53150  -0.52924  -0.47138
 Alpha virt. eigenvalues --    0.12052   0.18055   0.18909   0.30997   0.49488
 Alpha virt. eigenvalues --    0.54626   0.55775   0.62241   0.68566   0.73027
 Alpha virt. eigenvalues --    0.73718   0.76827   0.81940   0.82339   0.84365

 Mulliken charges:
               1
     1  O   -0.560094
     2  H    0.285093
     3  H    0.250255
     4  O   -0.485474
     5  H    0.263436
     6  H    0.246784
 Sum of Mulliken charges =  -0.00000

 Dipole moment (field-independent basis, Debye):
    X=              0.6741    Y=             -3.4246    Z=              0.0000  Tot=              3.4903
 Quadrupole moment (field-independent basis, Debye-Ang):
   XX=             -9.4411   YY=             -8.6806   ZZ=            -14.7261
   XY=              3.9911   XZ=              0.0000   YZ=              0.0000

 CCSD(T)=-152.668266\RMSD=6.492e-09\PG=CS [SG(H4O2)]\\@
 Normal termination of Gaussian 16 at Fri Aug 26 22:53:45 2022.
