 Gaussian 16, Revision A.03,
 Gaussian 16:  ES64L-G16RevA.03 25-Dec-2016

 ------------------
 #p CCSD(T)/cc-pVTZ
 ------------------

 ------------
 H2O_H2O_4400
 ------------
 Symbolic Z-matrix:
 Charge =  0 Multiplicity = 1

                         Standard orientation:
 ---------------------------------------------------------------------
 Center     Atomic      Atomic             Coordinates (Angstroms)
 Number     Number       Type             X           Y           Z
 ---------------------------------------------------------------------
      1          8           0        0.092949   -2.841932    0.000000
      2          1           0        0.092949   -1.859330    0.000000
      3          1           0       -0.836544   -3.160598    0.000000
      4          8           0        0.092949    2.709145    0.000000
      5          1           0        0.092949    3.691746    0.000000
      6          1           0       -0.836544    2.390478    0.000000
 ---------------------------------------------------------------------

 SCF Done:  E(RHF) =  -152.107627465     A.U. after   10 cycles
 E2 =    -0.5258826393D+00 EUMP2 =    -0.15263351010473D+03
 CCSD(T)
 CCSD(T)= -0.15266072444D+03

 The electronic state is 1-A'.
 Alpha  occ. eigenvalues --  -20.56231 -20.55344  -1.33532  -1.32645  -0.70948
 Alpha  occ. eigenvalues --   -0.70041  -0.56991  -0.56096  -0.50642  -0.49757
 Alpha virt. eigenvalues --    0.12614   0.14781   0.18843   0.21836   0.53200
 Alpha virt. eigenvalues --    0.54830   0.56534   0.57692   0.66885   0.68480
 Alpha virt. eigenvalues --    0.78251   0.79117   0.79607   0.81479   0.81589

 Mulliken charges:
               1
     1  O   -0.509414
     2  H    0.257292
     3  H    0.252048
     4  O   -0.510449
     5  H    0.258303
     6  H    0.252219
 Sum of Mulliken charges =  -0.00000

 Dipole moment (field-independent basis, Debye):
    X=             -3.1867    Y=              2.3315    Z=              0.0000  Tot=              3.9485
 Quadrupole moment (field-independent basis, Debye-Ang):
   XX=            -10.8456   YY=             -9.2835   ZZ=            -14.7117
   XY=              2.1569   XZ=              0.0000   YZ=              0.0000

 501824\MP4DQ=-152.64263\MP4SDQ=-152.6456842\CCSD=-152.6450974\CCSD(T)=
 Normal termination of Gaussian 16 at Sun Aug 28 02:30:41 2022.
