 Gaussian 16, Revision A.03,
 Gaussian 16:  ES64L-G16RevA.03 25-Dec-2016

 ------------------
 #p CCSD(T)/cc-pVTZ
 ------------------

 -----------
 H2O_H2O_149
 -----------
 Symbolic Z-matrix:
 Charge =  0 Multiplicity = 1

                         Standard orientation:
 ---------------------------------------------------------------------
 Center     Atomic      Atomic             Coordinates (Angstroms)
 Number     Number       Type             X           Y           Z
 ---------------------------------------------------------------------
      1          8           0       -0.013788   -1.151088    0.000000
      2          1           0       -0.007498   -0.168506    0.000000
      3          1           0        0.913646   -1.475697    0.000000
      4          8           0       -0.013788    0.991918    0.000000
      5          1           0       -0.996369    0.998208    0.000000
      6          1           0        0.310823    1.919353    0.000000
 ---------------------------------------------------------------------

 SCF Done:  E(RHF) =  -152.052544138     A.U. after   11 cycles
 E2 =    -0.5358473655D+00 EUMP2 =    -0.15258839150389D+03
 CCSD(T)
 CCSD(T)= -0.15261405559D+03

 The electronic state is 1-A'.
 Alpha  occ. eigenvalues --  -20.61400 -20.45927  -1.42739  -1.25562  -0.81434
 Alpha  occ. eigenvalues --   -0.71975  -0.57696  -0.56946  -0.46081  -0.42315
 Alpha virt. eigenvalues --    0.10920   0.17282   0.20561   0.33782   0.47857
 Alpha virt. eigenvalues --    0.51701   0.59850   0.69192   0.71261   0.72466
 Alpha virt. eigenvalues --    0.76439   0.76559   0.79810   0.85631   0.85683

 Mulliken charges:
               1
     1  O   -0.665706
     2  H    0.275484
     3  H    0.229746
     4  O   -0.332931
     5  H    0.264725
     6  H    0.228682
 Sum of Mulliken charges =  -0.00000

 Dipole moment (field-independent basis, Debye):
    X=              0.4187    Y=              4.4445    Z=             -0.0000  Tot=              4.4642
 Quadrupole moment (field-independent basis, Debye-Ang):
   XX=             -9.5136   YY=             -9.9346   ZZ=            -14.5652
   XY=             -2.9971   XZ=             -0.0000   YZ=              0.0000

 Normal termination of Gaussian 16 at Fri Aug 26 16:12:13 2022.
