 Gaussian 16, Revision A.03,
 Gaussian 16:  ES64L-G16RevA.03 25-Dec-2016

 ------------------
 #p CCSD(T)/cc-pVTZ
 ------------------

 ------------
 H2O_H2O_3682
 ------------
 Symbolic Z-matrix:
 Charge =  0 Multiplicity = 1

                         Standard orientation:
 ---------------------------------------------------------------------
 Center     Atomic      Atomic             Coordinates (Angstroms)
 Number     Number       Type             X           Y           Z
 ---------------------------------------------------------------------
      1          8           0        0.073530    2.571303    0.000000
      2          1           0        0.072868    1.588702    0.000000
      3          1           0       -0.855748    2.890596    0.000000
      4          8           0        0.073530   -2.404352   -0.000000
      5          1           0        0.507530   -3.285913   -0.000000
      6          1           0       -0.901133   -2.528996   -0.000000
 ---------------------------------------------------------------------

 SCF Done:  E(RHF) =  -152.108551728     A.U. after   10 cycles
 E2 =    -0.5258806860D+00 EUMP2 =    -0.15263443241434D+03
 CCSD(T)
 CCSD(T)= -0.15266161694D+03

 The electronic state is 1-A'.
 Alpha  occ. eigenvalues --  -20.56390 -20.54880  -1.33686  -1.32189  -0.71096
 Alpha  occ. eigenvalues --   -0.69581  -0.57179  -0.55657  -0.50804  -0.49311
 Alpha virt. eigenvalues --    0.12622   0.15306   0.19413   0.21695   0.53314
 Alpha virt. eigenvalues --    0.55054   0.56473   0.57982   0.66800   0.69164
 Alpha virt. eigenvalues --    0.78098   0.78798   0.79541   0.80425   0.82807

 Mulliken charges:
               1
     1  O   -0.513372
     2  H    0.261198
     3  H    0.251397
     4  O   -0.513591
     5  H    0.259712
     6  H    0.254656
 Sum of Mulliken charges =   0.00000

 Dipole moment (field-independent basis, Debye):
    X=             -2.5144    Y=             -2.9600    Z=             -0.0000  Tot=              3.8838
 Quadrupole moment (field-independent basis, Debye-Ang):
   XX=             -9.8119   YY=             -7.3856   ZZ=            -14.7152
   XY=             -3.7314   XZ=             -0.0000   YZ=              0.0000

 CCSD(T)=-152.6616169\RMSD=7.143e-09\PG=CS [SG(H4O2)]\\@
 Normal termination of Gaussian 16 at Fri Aug 26 23:05:20 2022.
