 Gaussian 16, Revision A.03,
 Gaussian 16:  ES64L-G16RevA.03 25-Dec-2016

 ------------------
 #p CCSD(T)/cc-pVTZ
 ------------------

 ------------
 H2O_H2O_3417
 ------------
 Symbolic Z-matrix:
 Charge =  0 Multiplicity = 1

                         Standard orientation:
 ---------------------------------------------------------------------
 Center     Atomic      Atomic             Coordinates (Angstroms)
 Number     Number       Type             X           Y           Z
 ---------------------------------------------------------------------
      1          8           0        0.037437    2.468146   -0.000000
      2          1           0        0.035456    1.485547   -0.000000
      3          1           0       -0.891412    2.788685   -0.000000
      4          8           0        0.037437   -2.289174    0.000000
      5          1           0        0.917828   -2.725543    0.000000
      6          1           0       -0.660865   -2.980463    0.000000
 ---------------------------------------------------------------------

 SCF Done:  E(RHF) =  -152.109368058     A.U. after   10 cycles
 E2 =    -0.5258598586D+00 EUMP2 =    -0.15263522791704D+03
 CCSD(T)
 CCSD(T)= -0.15266239022D+03

 The electronic state is 1-A'.
 Alpha  occ. eigenvalues --  -20.56468 -20.54623  -1.33757  -1.31939  -0.71158
 Alpha  occ. eigenvalues --   -0.69338  -0.57284  -0.55425  -0.50883  -0.49071
 Alpha virt. eigenvalues --    0.12714   0.15611   0.19520   0.21966   0.53368
 Alpha virt. eigenvalues --    0.55199   0.56489   0.58077   0.67173   0.69343
 Alpha virt. eigenvalues --    0.78021   0.78947   0.79635   0.79764   0.83077

 Mulliken charges:
               1
     1  O   -0.517566
     2  H    0.263042
     3  H    0.253010
     4  O   -0.515820
     5  H    0.259489
     6  H    0.257846
 Sum of Mulliken charges =  -0.00000

 Dipole moment (field-independent basis, Debye):
    X=             -1.2795    Y=             -3.1905    Z=              0.0000  Tot=              3.4375
 Quadrupole moment (field-independent basis, Debye-Ang):
   XX=             -9.1590   YY=             -6.9722   ZZ=            -14.7182
   XY=             -5.3979   XZ=              0.0000   YZ=             -0.0000

 Normal termination of Gaussian 16 at Fri Aug 26 21:35:04 2022.
