 Gaussian 16, Revision A.03,
 Gaussian 16:  ES64L-G16RevA.03 25-Dec-2016

 ------------------
 #p CCSD(T)/cc-pVTZ
 ------------------

 ------------
 H2O_H2O_3212
 ------------
 Symbolic Z-matrix:
 Charge =  0 Multiplicity = 1

                         Standard orientation:
 ---------------------------------------------------------------------
 Center     Atomic      Atomic             Coordinates (Angstroms)
 Number     Number       Type             X           Y           Z
 ---------------------------------------------------------------------
      1          8           0        0.055988    2.388335    0.000000
      2          1           0        0.054623    1.405735    0.000000
      3          1           0       -0.873062    2.708292    0.000000
      4          8           0        0.055988   -2.209424    0.000000
      5          1           0        0.749827   -2.905193    0.000000
      6          1           0       -0.827194   -2.640118    0.000000
 ---------------------------------------------------------------------

 SCF Done:  E(RHF) =  -152.109444053     A.U. after   10 cycles
 E2 =    -0.5259109543D+00 EUMP2 =    -0.15263535500703D+03
 CCSD(T)
 CCSD(T)= -0.15266251048D+03

 The electronic state is 1-A'.
 Alpha  occ. eigenvalues --  -20.56558 -20.54558  -1.33841  -1.31875  -0.71244
 Alpha  occ. eigenvalues --   -0.69267  -0.57369  -0.55357  -0.50967  -0.49006
 Alpha virt. eigenvalues --    0.12566   0.15739   0.19498   0.22231   0.53324
 Alpha virt. eigenvalues --    0.55251   0.56383   0.58330   0.67612   0.69352
 Alpha virt. eigenvalues --    0.77938   0.78981   0.79487   0.79828   0.83128

 Mulliken charges:
               1
     1  O   -0.517186
     2  H    0.263624
     3  H    0.251433
     4  O   -0.514382
     5  H    0.260086
     6  H    0.256426
 Sum of Mulliken charges =  -0.00000

 Dipole moment (field-independent basis, Debye):
    X=             -1.9107    Y=             -3.2047    Z=              0.0000  Tot=              3.7311
 Quadrupole moment (field-independent basis, Debye-Ang):
   XX=             -9.2869   YY=             -7.1057   ZZ=            -14.7184
   XY=             -4.4638   XZ=              0.0000   YZ=              0.0000

 Normal termination of Gaussian 16 at Fri Aug 26 20:25:41 2022.
