 Gaussian 16, Revision A.03,
 Gaussian 16:  ES64L-G16RevA.03 25-Dec-2016

 ------------------
 #p CCSD(T)/cc-pVTZ
 ------------------

 ------------
 H2O_H2O_3074
 ------------
 Symbolic Z-matrix:
 Charge =  0 Multiplicity = 1

                         Standard orientation:
 ---------------------------------------------------------------------
 Center     Atomic      Atomic             Coordinates (Angstroms)
 Number     Number       Type             X           Y           Z
 ---------------------------------------------------------------------
      1          8           0       -0.013522    2.317838    0.000000
      2          1           0       -0.010511    1.335241    0.000000
      3          1           0        0.914990    2.639351    0.000000
      4          8           0       -0.013522   -2.158577    0.000000
      5          1           0       -0.996119   -2.161588    0.000000
      6          1           0        0.307992   -3.087090    0.000000
 ---------------------------------------------------------------------

 SCF Done:  E(RHF) =  -152.109608950     A.U. after   10 cycles
 E2 =    -0.5259079467D+00 EUMP2 =    -0.15263551689623D+03
 CCSD(T)
 CCSD(T)= -0.15266266992D+03

 The electronic state is 1-A'.
 Alpha  occ. eigenvalues --  -20.56587 -20.54711  -1.33878  -1.32029  -0.71288
 Alpha  occ. eigenvalues --   -0.69437  -0.57409  -0.55518  -0.51003  -0.49164
 Alpha virt. eigenvalues --    0.12253   0.15827   0.19212   0.23048   0.53738
 Alpha virt. eigenvalues --    0.55549   0.56414   0.58177   0.67847   0.69336
 Alpha virt. eigenvalues --    0.77886   0.78680   0.79677   0.80743   0.83088

 Mulliken charges:
               1
     1  O   -0.519381
     2  H    0.262226
     3  H    0.254999
     4  O   -0.515125
     5  H    0.258181
     6  H    0.259100
 Sum of Mulliken charges =   0.00000

 Dipole moment (field-independent basis, Debye):
    X=              0.4661    Y=             -2.8570    Z=              0.0000  Tot=              2.8947
 Quadrupole moment (field-independent basis, Debye-Ang):
   XX=             -9.6481   YY=             -7.9604   ZZ=            -14.7187
   XY=              6.2658   XZ=              0.0000   YZ=              0.0000

 Normal termination of Gaussian 16 at Fri Aug 26 19:37:36 2022.
