 Gaussian 16, Revision A.03,
 Gaussian 16:  ES64L-G16RevA.03 25-Dec-2016

 ------------------
 #p CCSD(T)/cc-pVTZ
 ------------------

 -----------
 H2O_H2O_332
 -----------
 Symbolic Z-matrix:
 Charge =  0 Multiplicity = 1

                         Standard orientation:
 ---------------------------------------------------------------------
 Center     Atomic      Atomic             Coordinates (Angstroms)
 Number     Number       Type             X           Y           Z
 ---------------------------------------------------------------------
      1          8           0        0.073596   -1.235007    0.000000
      2          1           0        0.072165   -0.252407    0.000000
      3          1           0       -0.855432   -1.555027    0.000000
      4          8           0        0.073596    1.068171    0.000000
      5          1           0        0.506905    1.950072    0.000000
      6          1           0       -0.901166    1.192052    0.000000
 ---------------------------------------------------------------------

 SCF Done:  E(RHF) =  -152.083320251     A.U. after   11 cycles
 E2 =    -0.5341028966D+00 EUMP2 =    -0.15261742314770D+03
 CCSD(T)
 CCSD(T)= -0.15264353978D+03

 The electronic state is 1-A'.
 Alpha  occ. eigenvalues --  -20.60804 -20.48215  -1.40240  -1.27018  -0.78002
 Alpha  occ. eigenvalues --   -0.71546  -0.57597  -0.56296  -0.48802  -0.43863
 Alpha virt. eigenvalues --    0.10906   0.16557   0.20724   0.32887   0.48698
 Alpha virt. eigenvalues --    0.52611   0.59985   0.64295   0.71913   0.72470
 Alpha virt. eigenvalues --    0.76030   0.78297   0.79725   0.84152   0.84491

 Mulliken charges:
               1
     1  O   -0.610033
     2  H    0.295340
     3  H    0.210304
     4  O   -0.371078
     5  H    0.235967
     6  H    0.239499
 Sum of Mulliken charges =  -0.00000

 Dipole moment (field-independent basis, Debye):
    X=             -2.3101    Y=              4.2400    Z=              0.0000  Tot=              4.8285
 Quadrupole moment (field-independent basis, Debye-Ang):
   XX=             -9.8111   YY=             -9.6024   ZZ=            -14.6205
   XY=              2.6930   XZ=              0.0000   YZ=              0.0000

 Normal termination of Gaussian 16 at Fri Aug 26 17:29:46 2022.
