 Gaussian 16, Revision A.03,
 Gaussian 16:  ES64L-G16RevA.03 25-Dec-2016

 ------------------
 #p CCSD(T)/cc-pVTZ
 ------------------

 ------------
 H2O_H2O_4269
 ------------
 Symbolic Z-matrix:
 Charge =  0 Multiplicity = 1

                         Standard orientation:
 ---------------------------------------------------------------------
 Center     Atomic      Atomic             Coordinates (Angstroms)
 Number     Number       Type             X           Y           Z
 ---------------------------------------------------------------------
      1          8           0        0.030154    2.805377    0.000000
      2          1           0        0.028193    1.822778    0.000000
      3          1           0       -0.898702    3.125897    0.000000
      4          8           0        0.030154   -2.629746   -0.000000
      5          1           0        0.959977   -2.947448   -0.000000
      6          1           0       -0.571927   -3.406279   -0.000000
 ---------------------------------------------------------------------

 SCF Done:  E(RHF) =  -152.108614041     A.U. after   10 cycles
 E2 =    -0.5258027079D+00 EUMP2 =    -0.15263441674885D+03
 CCSD(T)
 CCSD(T)= -0.15266160839D+03

 The electronic state is 1-A'.
 Alpha  occ. eigenvalues --  -20.56226 -20.54916  -1.33526  -1.32225  -0.70930
 Alpha  occ. eigenvalues --   -0.69629  -0.57027  -0.55701  -0.50647  -0.49351
 Alpha virt. eigenvalues --    0.13213   0.15050   0.19607   0.21222   0.53528
 Alpha virt. eigenvalues --    0.54929   0.56643   0.57815   0.66729   0.68888
 Alpha virt. eigenvalues --    0.78242   0.79396   0.79501   0.80228   0.82759

 Mulliken charges:
               1
     1  O   -0.514941
     2  H    0.260703
     3  H    0.254005
     4  O   -0.515483
     5  H    0.258064
     6  H    0.257652
 Sum of Mulliken charges =  -0.00000

 Dipole moment (field-independent basis, Debye):
    X=             -1.0341    Y=             -3.0894    Z=             -0.0000  Tot=              3.2579
 Quadrupole moment (field-independent basis, Debye-Ang):
   XX=             -9.2302   YY=             -6.6208   ZZ=            -14.7155
   XY=             -6.4707   XZ=             -0.0000   YZ=             -0.0000

 Normal termination of Gaussian 16 at Sun Aug 28 01:22:47 2022.
