 Gaussian 16, Revision A.03,
 Gaussian 16:  ES64L-G16RevA.03 25-Dec-2016

 ------------------
 #p CCSD(T)/cc-pVTZ
 ------------------

 ------------
 H2O_H2O_2048
 ------------
 Symbolic Z-matrix:
 Charge =  0 Multiplicity = 1

                         Standard orientation:
 ---------------------------------------------------------------------
 Center     Atomic      Atomic             Coordinates (Angstroms)
 Number     Number       Type             X           Y           Z
 ---------------------------------------------------------------------
      1          8           0       -0.016683    1.911221    0.000000
      2          1           0       -0.013143    0.928626    0.000000
      3          1           0        0.911656    2.233234    0.000000
      4          8           0       -0.016683   -1.747854    0.000000
      5          1           0       -0.996942   -1.815651    0.000000
      6          1           0        0.365358   -2.653145    0.000000
 ---------------------------------------------------------------------

 SCF Done:  E(RHF) =  -152.111839281     A.U. after   10 cycles
 E2 =    -0.5263547163D+00 EUMP2 =    -0.15263819399730D+03
 CCSD(T)
 CCSD(T)= -0.15266527227D+03

 The electronic state is 1-A'.
 Alpha  occ. eigenvalues --  -20.57257 -20.54012  -1.34531  -1.31364  -0.71956
 Alpha  occ. eigenvalues --   -0.68788  -0.58192  -0.54829  -0.51662  -0.48517
 Alpha virt. eigenvalues --    0.12196   0.16862   0.19237   0.26097   0.52918
 Alpha virt. eigenvalues --    0.54643   0.56009   0.59002   0.68776   0.72852
 Alpha virt. eigenvalues --    0.76328   0.78673   0.80455   0.83440   0.83718

 Mulliken charges:
               1
     1  O   -0.530081
     2  H    0.266874
     3  H    0.253975
     4  O   -0.509730
     5  H    0.260782
     6  H    0.258180
 Sum of Mulliken charges =  -0.00000

 Dipole moment (field-independent basis, Debye):
    X=              0.5722    Y=             -3.0590    Z=              0.0000  Tot=              3.1121
 Quadrupole moment (field-independent basis, Debye-Ang):
   XX=             -9.5448   YY=             -8.2204   ZZ=            -14.7264
   XY=              5.0118   XZ=              0.0000   YZ=              0.0000

 Normal termination of Gaussian 16 at Sun Aug 28 03:51:07 2022.
