 Gaussian 16, Revision A.03,
 Gaussian 16:  ES64L-G16RevA.03 25-Dec-2016

 ------------------
 #p CCSD(T)/cc-pVTZ
 ------------------

 ------------
 H2O_H2O_2749
 ------------
 Symbolic Z-matrix:
 Charge =  0 Multiplicity = 1

                         Standard orientation:
 ---------------------------------------------------------------------
 Center     Atomic      Atomic             Coordinates (Angstroms)
 Number     Number       Type             X           Y           Z
 ---------------------------------------------------------------------
      1          8           0       -0.013537    2.188201    0.000000
      2          1           0       -0.010341    1.205605    0.000000
      3          1           0        0.914915    2.509889    0.000000
      4          8           0       -0.013537   -2.028945    0.000000
      5          1           0       -0.996134   -2.032141    0.000000
      6          1           0        0.308151   -2.957397    0.000000
 ---------------------------------------------------------------------

 SCF Done:  E(RHF) =  -152.110122252     A.U. after   10 cycles
 E2 =    -0.5259885400D+00 EUMP2 =    -0.15263611079172D+03
 CCSD(T)
 CCSD(T)= -0.15266324515D+03

 The electronic state is 1-A'.
 Alpha  occ. eigenvalues --  -20.56748 -20.54568  -1.34032  -1.31890  -0.71446
 Alpha  occ. eigenvalues --   -0.69299  -0.57585  -0.55380  -0.51160  -0.49030
 Alpha virt. eigenvalues --    0.12180   0.16109   0.19239   0.23774   0.54027
 Alpha virt. eigenvalues --    0.55553   0.56257   0.58399   0.68606   0.69738
 Alpha virt. eigenvalues --    0.77660   0.78974   0.79820   0.80687   0.83336

 Mulliken charges:
               1
     1  O   -0.521899
     2  H    0.263487
     3  H    0.254905
     4  O   -0.513792
     5  H    0.258572
     6  H    0.258727
 Sum of Mulliken charges =  -0.00000

 Dipole moment (field-independent basis, Debye):
    X=              0.4670    Y=             -2.8847    Z=              0.0000  Tot=              2.9223
 Quadrupole moment (field-independent basis, Debye-Ang):
   XX=             -9.6485   YY=             -8.0722   ZZ=            -14.7202
   XY=              5.9112   XZ=              0.0000   YZ=              0.0000

 6877\MP4DQ=-152.6451416\MP4SDQ=-152.6481985\CCSD=-152.6476054\CCSD(T)=
 Normal termination of Gaussian 16 at Fri Aug 26 17:01:12 2022.
