 Gaussian 16, Revision A.03,
 Gaussian 16:  ES64L-G16RevA.03 25-Dec-2016

 ------------------
 #p CCSD(T)/cc-pVTZ
 ------------------

 -----------
 H2O_H2O_738
 -----------
 Symbolic Z-matrix:
 Charge =  0 Multiplicity = 1

                         Standard orientation:
 ---------------------------------------------------------------------
 Center     Atomic      Atomic             Coordinates (Angstroms)
 Number     Number       Type             X           Y           Z
 ---------------------------------------------------------------------
      1          8           0        0.052400    1.401590   -0.000000
      2          1           0        0.049769    0.418992   -0.000000
      3          1           0       -0.876237    1.722743   -0.000000
      4          8           0        0.052400   -1.221817    0.000000
      5          1           0        0.789422   -1.871667    0.000000
      6          1           0       -0.801349   -1.708252    0.000000
 ---------------------------------------------------------------------

 SCF Done:  E(RHF) =  -152.109286714     A.U. after   10 cycles
 E2 =    -0.5300612865D+00 EUMP2 =    -0.15263934800049D+03
 CCSD(T)
 CCSD(T)= -0.15266599464D+03

 The electronic state is 1-A'.
 Alpha  occ. eigenvalues --  -20.59504 -20.50342  -1.37357  -1.28353  -0.74342
 Alpha  occ. eigenvalues --   -0.69222  -0.59422  -0.54267  -0.50986  -0.45394
 Alpha virt. eigenvalues --    0.11537   0.17739   0.19443   0.33037   0.47839
 Alpha virt. eigenvalues --    0.54170   0.59519   0.61422   0.70134   0.72185
 Alpha virt. eigenvalues --    0.72409   0.77952   0.81806   0.82903   0.84477

 Mulliken charges:
               1
     1  O   -0.589117
     2  H    0.310262
     3  H    0.232415
     4  O   -0.469186
     5  H    0.261868
     6  H    0.253758
 Sum of Mulliken charges =  -0.00000

 Dipole moment (field-independent basis, Debye):
    X=             -1.7024    Y=             -4.0160    Z=              0.0000  Tot=              4.3619
 Quadrupole moment (field-independent basis, Debye-Ang):
   XX=             -9.2212   YY=             -9.0897   ZZ=            -14.7051
   XY=             -3.1781   XZ=              0.0000   YZ=             -0.0000

 Normal termination of Gaussian 16 at Fri Aug 26 20:12:14 2022.
