 Gaussian 16, Revision A.03,
 Gaussian 16:  ES64L-G16RevA.03 25-Dec-2016

 ------------------
 #p CCSD(T)/cc-pVTZ
 ------------------

 ------------
 H2O_H2O_4950
 ------------
 Symbolic Z-matrix:
 Charge =  0 Multiplicity = 1

                         Standard orientation:
 ---------------------------------------------------------------------
 Center     Atomic      Atomic             Coordinates (Angstroms)
 Number     Number       Type             X           Y           Z
 ---------------------------------------------------------------------
      1          8           0        0.092949   -3.061314    0.000000
      2          1           0        0.092949   -2.078713    0.000000
      3          1           0       -0.836544   -3.379981    0.000000
      4          8           0        0.092949    2.928528    0.000000
      5          1           0        0.092950    3.911128    0.000000
      6          1           0       -0.836543    2.609860    0.000000
 ---------------------------------------------------------------------

 SCF Done:  E(RHF) =  -152.107578518     A.U. after   10 cycles
 E2 =    -0.5258670743D+00 EUMP2 =    -0.15263344559209D+03
 CCSD(T)
 CCSD(T)= -0.15266066258D+03

 The electronic state is 1-A'.
 Alpha  occ. eigenvalues --  -20.56140 -20.55390  -1.33441  -1.32690  -0.70854
 Alpha  occ. eigenvalues --   -0.70089  -0.56898  -0.56141  -0.50552  -0.49802
 Alpha virt. eigenvalues --    0.13114   0.14535   0.19041   0.21270   0.53457
 Alpha virt. eigenvalues --    0.54653   0.56606   0.57533   0.67116   0.68229
 Alpha virt. eigenvalues --    0.78336   0.79073   0.79654   0.80919   0.81682

 Mulliken charges:
               1
     1  O   -0.509401
     2  H    0.256795
     3  H    0.252591
     4  O   -0.510181
     5  H    0.257518
     6  H    0.252678
 Sum of Mulliken charges =  -0.00000

 Dipole moment (field-independent basis, Debye):
    X=             -3.1912    Y=              2.3225    Z=              0.0000  Tot=              3.9469
 Quadrupole moment (field-independent basis, Debye-Ang):
   XX=            -10.8438   YY=             -9.2977   ZZ=            -14.7117
   XY=              2.1600   XZ=              0.0000   YZ=              0.0000

 Normal termination of Gaussian 16 at Sun Aug 28 07:11:35 2022.
