 Gaussian 16, Revision A.03,
 Gaussian 16:  ES64L-G16RevA.03 25-Dec-2016

 ------------------
 #p CCSD(T)/cc-pVTZ
 ------------------

 ------------
 H2O_H2O_3796
 ------------
 Symbolic Z-matrix:
 Charge =  0 Multiplicity = 1

                         Standard orientation:
 ---------------------------------------------------------------------
 Center     Atomic      Atomic             Coordinates (Angstroms)
 Number     Number       Type             X           Y           Z
 ---------------------------------------------------------------------
      1          8           0       -0.023186    2.613071    0.000000
      2          1           0       -0.020844    1.630472    0.000000
      3          1           0        0.905545    2.933951    0.000000
      4          8           0       -0.023186   -2.442671    0.000000
      5          1           0       -0.986447   -2.636663    0.000000
      6          1           0        0.472716   -3.290956    0.000000
 ---------------------------------------------------------------------

 SCF Done:  E(RHF) =  -152.108943982     A.U. after   10 cycles
 E2 =    -0.5258200775D+00 EUMP2 =    -0.15263476405943D+03
 CCSD(T)
 CCSD(T)= -0.15266194336D+03

 The electronic state is 1-A'.
 Alpha  occ. eigenvalues --  -20.56338 -20.54834  -1.33635  -1.32146  -0.71040
 Alpha  occ. eigenvalues --   -0.69551  -0.57147  -0.55628  -0.50758  -0.49275
 Alpha virt. eigenvalues --    0.12836   0.15322   0.19429   0.21695   0.53319
 Alpha virt. eigenvalues --    0.55144   0.56583   0.57880   0.66731   0.69155
 Alpha virt. eigenvalues --    0.78138   0.78922   0.79570   0.80344   0.82878

 Mulliken charges:
               1
     1  O   -0.516298
     2  H    0.261337
     3  H    0.254299
     4  O   -0.516116
     5  H    0.258289
     6  H    0.258489
 Sum of Mulliken charges =   0.00000

 Dipole moment (field-independent basis, Debye):
    X=              0.7949    Y=             -3.0151    Z=              0.0000  Tot=              3.1181
 Quadrupole moment (field-independent basis, Debye-Ang):
   XX=             -9.3614   YY=             -7.1472   ZZ=            -14.7166
   XY=              6.4469   XZ=              0.0000   YZ=              0.0000

 Normal termination of Gaussian 16 at Fri Aug 26 23:43:15 2022.
