 Gaussian 16, Revision A.03,
 Gaussian 16:  ES64L-G16RevA.03 25-Dec-2016

 ------------------
 #p CCSD(T)/cc-pVTZ
 ------------------

 -----------
 H2O_H2O_179
 -----------
 Symbolic Z-matrix:
 Charge =  0 Multiplicity = 1

                         Standard orientation:
 ---------------------------------------------------------------------
 Center     Atomic      Atomic             Coordinates (Angstroms)
 Number     Number       Type             X           Y           Z
 ---------------------------------------------------------------------
      1          8           0        0.082836   -1.168444    0.000000
      2          1           0        0.082047   -0.185843    0.000000
      3          1           0       -0.846401   -1.487857    0.000000
      4          8           0        0.082836    1.013996    0.000000
      5          1           0        0.336390    1.963320    0.000000
      6          1           0       -0.897408    0.945970    0.000000
 ---------------------------------------------------------------------

 SCF Done:  E(RHF) =  -152.057555848     A.U. after   11 cycles
 E2 =    -0.5366501529D+00 EUMP2 =    -0.15259420600103D+03
 CCSD(T)
 CCSD(T)= -0.15262002824D+03

 The electronic state is 1-A'.
 Alpha  occ. eigenvalues --  -20.61333 -20.47463  -1.42262  -1.26648  -0.81093
 Alpha  occ. eigenvalues --   -0.71543  -0.57363  -0.56776  -0.48068  -0.43428
 Alpha virt. eigenvalues --    0.10696   0.16079   0.21352   0.32193   0.49338
 Alpha virt. eigenvalues --    0.51583   0.59841   0.65357   0.71412   0.72567
 Alpha virt. eigenvalues --    0.76294   0.78012   0.80343   0.84946   0.85934

 Mulliken charges:
               1
     1  O   -0.610845
     2  H    0.275808
     3  H    0.197437
     4  O   -0.327807
     5  H    0.228912
     6  H    0.236496
 Sum of Mulliken charges =  -0.00000

 Dipole moment (field-independent basis, Debye):
    X=             -2.5710    Y=              4.2149    Z=              0.0000  Tot=              4.9372
 Quadrupole moment (field-independent basis, Debye-Ang):
   XX=            -10.2267   YY=             -9.8045   ZZ=            -14.5625
   XY=              2.3922   XZ=              0.0000   YZ=              0.0000

 Normal termination of Gaussian 16 at Fri Aug 26 16:24:45 2022.
