 Gaussian 16, Revision A.03,
 Gaussian 16:  ES64L-G16RevA.03 25-Dec-2016

 ------------------
 #p CCSD(T)/cc-pVTZ
 ------------------

 ------------
 H2O_H2O_3100
 ------------
 Symbolic Z-matrix:
 Charge =  0 Multiplicity = 1

                         Standard orientation:
 ---------------------------------------------------------------------
 Center     Atomic      Atomic             Coordinates (Angstroms)
 Number     Number       Type             X           Y           Z
 ---------------------------------------------------------------------
      1          8           0        0.092949   -2.323391    0.000000
      2          1           0        0.092949   -1.340790    0.000000
      3          1           0       -0.836544   -2.642058    0.000000
      4          8           0        0.092949    2.190604    0.000000
      5          1           0        0.092950    3.173206    0.000000
      6          1           0       -0.836544    1.871938    0.000000
 ---------------------------------------------------------------------

 SCF Done:  E(RHF) =  -152.107996553     A.U. after   10 cycles
 E2 =    -0.5260549236D+00 EUMP2 =    -0.15263405147694D+03
 CCSD(T)
 CCSD(T)= -0.15266124035D+03

 The electronic state is 1-A'.
 Alpha  occ. eigenvalues --  -20.56608 -20.55176  -1.33903  -1.32477  -0.71337
 Alpha  occ. eigenvalues --   -0.69858  -0.57369  -0.55927  -0.51011  -0.49589
 Alpha virt. eigenvalues --    0.11534   0.15500   0.19294   0.23225   0.54245
 Alpha virt. eigenvalues --    0.54567   0.56457   0.58061   0.67747   0.68856
 Alpha virt. eigenvalues --    0.77884   0.78443   0.79290   0.81115   0.82577

 Mulliken charges:
               1
     1  O   -0.510258
     2  H    0.259636
     3  H    0.249551
     4  O   -0.508468
     5  H    0.259734
     6  H    0.249805
 Sum of Mulliken charges =  -0.00000

 Dipole moment (field-independent basis, Debye):
    X=             -3.1671    Y=              2.3761    Z=              0.0000  Tot=              3.9594
 Quadrupole moment (field-independent basis, Debye-Ang):
   XX=            -10.8571   YY=             -9.2228   ZZ=            -14.7125
   XY=              2.1497   XZ=              0.0000   YZ=              0.0000

 Normal termination of Gaussian 16 at Fri Aug 26 19:46:07 2022.
