 Gaussian 16, Revision A.03,
 Gaussian 16:  ES64L-G16RevA.03 25-Dec-2016

 ------------------
 #p CCSD(T)/cc-pVTZ
 ------------------

 ------------
 H2O_H2O_1560
 ------------
 Symbolic Z-matrix:
 Charge =  0 Multiplicity = 1

                         Standard orientation:
 ---------------------------------------------------------------------
 Center     Atomic      Atomic             Coordinates (Angstroms)
 Number     Number       Type             X           Y           Z
 ---------------------------------------------------------------------
      1          8           0        0.063274    1.728311   -0.000000
      2          1           0        0.061737    0.745711   -0.000000
      3          1           0       -0.865719    2.048432   -0.000000
      4          8           0        0.063274   -1.552858    0.000000
      5          1           0        0.660223   -2.333343    0.000000
      6          1           0       -0.868624   -1.864425    0.000000
 ---------------------------------------------------------------------

 SCF Done:  E(RHF) =  -152.113009986     A.U. after   10 cycles
 E2 =    -0.5270957312D+00 EUMP2 =    -0.15264010571759D+03
 CCSD(T)
 CCSD(T)= -0.15266712322D+03

 The electronic state is 1-A'.
 Alpha  occ. eigenvalues --  -20.57867 -20.53220  -1.35151  -1.30636  -0.72534
 Alpha  occ. eigenvalues --   -0.68193  -0.58902  -0.54000  -0.52274  -0.47778
 Alpha virt. eigenvalues --    0.11962   0.17194   0.19237   0.28439   0.49803
 Alpha virt. eigenvalues --    0.55075   0.56498   0.58979   0.69479   0.72743
 Alpha virt. eigenvalues --    0.74550   0.76810   0.81293   0.83013   0.84465

 Mulliken charges:
               1
     1  O   -0.535487
     2  H    0.275951
     3  H    0.243595
     4  O   -0.502638
     5  H    0.262562
     6  H    0.256018
 Sum of Mulliken charges =  -0.00000

 Dipole moment (field-independent basis, Debye):
    X=             -2.1216    Y=             -3.4163    Z=              0.0000  Tot=              4.0215
 Quadrupole moment (field-independent basis, Debye-Ang):
   XX=             -9.4723   YY=             -8.2754   ZZ=            -14.7315
   XY=             -3.4476   XZ=              0.0000   YZ=             -0.0000

 Normal termination of Gaussian 16 at Sat Aug 27 23:10:49 2022.
