 Gaussian 16, Revision A.03,
 Gaussian 16:  ES64L-G16RevA.03 25-Dec-2016

 ------------------
 #p CCSD(T)/cc-pVTZ
 ------------------

 ------------
 H2O_H2O_4980
 ------------
 Symbolic Z-matrix:
 Charge =  0 Multiplicity = 1

                         Standard orientation:
 ---------------------------------------------------------------------
 Center     Atomic      Atomic             Coordinates (Angstroms)
 Number     Number       Type             X           Y           Z
 ---------------------------------------------------------------------
      1          8           0        0.079842    3.085568    0.000000
      2          1           0        0.079472    2.102966    0.000000
      3          1           0       -0.849531    3.404584    0.000000
      4          8           0        0.079842   -2.926487   -0.000000
      5          1           0        0.395340   -3.857061   -0.000000
      6          1           0       -0.902754   -2.923138   -0.000000
 ---------------------------------------------------------------------

 SCF Done:  E(RHF) =  -152.107872052     A.U. after   10 cycles
 E2 =    -0.5258404191D+00 EUMP2 =    -0.15263371247144D+03
 CCSD(T)
 CCSD(T)= -0.15266092290D+03

 The electronic state is 1-A'.
 Alpha  occ. eigenvalues --  -20.56124 -20.55202  -1.33426  -1.32505  -0.70835
 Alpha  occ. eigenvalues --   -0.69904  -0.56895  -0.55963  -0.50540  -0.49621
 Alpha virt. eigenvalues --    0.13399   0.14620   0.19491   0.20932   0.53600
 Alpha virt. eigenvalues --    0.54731   0.56670   0.57639   0.67113   0.68365
 Alpha virt. eigenvalues --    0.78346   0.79247   0.79730   0.80754   0.81854

 Mulliken charges:
               1
     1  O   -0.511006
     2  H    0.258270
     3  H    0.252713
     4  O   -0.511806
     5  H    0.257766
     6  H    0.254063
 Sum of Mulliken charges =  -0.00000

 Dipole moment (field-independent basis, Debye):
    X=             -2.7411    Y=             -2.7825    Z=             -0.0000  Tot=              3.9059
 Quadrupole moment (field-independent basis, Debye-Ang):
   XX=            -10.0927   YY=             -7.3370   ZZ=            -14.7129
   XY=             -3.5439   XZ=             -0.0000   YZ=              0.0000

 Normal termination of Gaussian 16 at Sun Aug 28 07:24:41 2022.
