 Gaussian 16, Revision A.03,
 Gaussian 16:  ES64L-G16RevA.03 25-Dec-2016

 ------------------
 #p CCSD(T)/cc-pVTZ
 ------------------

 ------------
 H2O_H2O_2556
 ------------
 Symbolic Z-matrix:
 Charge =  0 Multiplicity = 1

                         Standard orientation:
 ---------------------------------------------------------------------
 Center     Atomic      Atomic             Coordinates (Angstroms)
 Number     Number       Type             X           Y           Z
 ---------------------------------------------------------------------
      1          8           0        0.076764    2.120528   -0.000000
      2          1           0        0.076090    1.137927   -0.000000
      3          1           0       -0.852511    2.439832   -0.000000
      4          8           0        0.076764   -1.957331    0.000000
      5          1           0        0.452167   -2.865393    0.000000
      6          1           0       -0.903966   -2.017949    0.000000
 ---------------------------------------------------------------------

 SCF Done:  E(RHF) =  -152.109751411     A.U. after   10 cycles
 E2 =    -0.5261670855D+00 EUMP2 =    -0.15263591849675D+03
 CCSD(T)
 CCSD(T)= -0.15266304919D+03

 The electronic state is 1-A'.
 Alpha  occ. eigenvalues --  -20.56903 -20.54500  -1.34179  -1.31819  -0.71600
 Alpha  occ. eigenvalues --   -0.69197  -0.57713  -0.55285  -0.51300  -0.48948
 Alpha virt. eigenvalues --    0.11988   0.16107   0.19482   0.23779   0.53514
 Alpha virt. eigenvalues --    0.55480   0.56236   0.58473   0.68780   0.70352
 Alpha virt. eigenvalues --    0.77440   0.79127   0.79926   0.80732   0.83161

 Mulliken charges:
               1
     1  O   -0.517559
     2  H    0.264808
     3  H    0.248168
     4  O   -0.508243
     5  H    0.259600
     6  H    0.253225
 Sum of Mulliken charges =  -0.00000

 Dipole moment (field-independent basis, Debye):
    X=             -2.6073    Y=             -2.9790    Z=              0.0000  Tot=              3.9588
 Quadrupole moment (field-independent basis, Debye-Ang):
   XX=             -9.9624   YY=             -8.0171   ZZ=            -14.7188
   XY=             -3.2649   XZ=              0.0000   YZ=             -0.0000

 Normal termination of Gaussian 16 at Fri Aug 26 15:35:29 2022.
