 Gaussian 16, Revision A.03,
 Gaussian 16:  ES64L-G16RevA.03 25-Dec-2016

 ------------------
 #p CCSD(T)/cc-pVTZ
 ------------------

 ------------
 H2O_H2O_2860
 ------------
 Symbolic Z-matrix:
 Charge =  0 Multiplicity = 1

                         Standard orientation:
 ---------------------------------------------------------------------
 Center     Atomic      Atomic             Coordinates (Angstroms)
 Number     Number       Type             X           Y           Z
 ---------------------------------------------------------------------
      1          8           0        0.063241    2.246875   -0.000000
      2          1           0        0.062073    1.264275   -0.000000
      3          1           0       -0.865872    2.566647   -0.000000
      4          8           0        0.063241   -2.071375    0.000000
      5          1           0        0.660483   -2.851635    0.000000
      6          1           0       -0.868540   -2.383291    0.000000
 ---------------------------------------------------------------------

 SCF Done:  E(RHF) =  -152.109808909     A.U. after   10 cycles
 E2 =    -0.5260052411D+00 EUMP2 =    -0.15263581415016D+03
 CCSD(T)
 CCSD(T)= -0.15266295278D+03

 The electronic state is 1-A'.
 Alpha  occ. eigenvalues --  -20.56728 -20.54445  -1.34004  -1.31765  -0.71409
 Alpha  occ. eigenvalues --   -0.69153  -0.57544  -0.55246  -0.51131  -0.48898
 Alpha virt. eigenvalues --    0.12332   0.16001   0.19429   0.22975   0.53290
 Alpha virt. eigenvalues --    0.55462   0.56234   0.58717   0.68647   0.69374
 Alpha virt. eigenvalues --    0.77741   0.79056   0.79758   0.79937   0.83233

 Mulliken charges:
               1
     1  O   -0.518246
     2  H    0.264615
     3  H    0.250114
     4  O   -0.512192
     5  H    0.260162
     6  H    0.255547
 Sum of Mulliken charges =  -0.00000

 Dipole moment (field-independent basis, Debye):
    X=             -2.1537    Y=             -3.1739    Z=             -0.0000  Tot=              3.8357
 Quadrupole moment (field-independent basis, Debye-Ang):
   XX=             -9.4589   YY=             -7.4433   ZZ=            -14.7194
   XY=             -3.9906   XZ=              0.0000   YZ=             -0.0000

 CCSD(T)=-152.6629528\RMSD=6.877e-09\PG=CS [SG(H4O2)]\\@
 Normal termination of Gaussian 16 at Fri Aug 26 17:49:40 2022.
