 Gaussian 16, Revision A.03,
 Gaussian 16:  ES64L-G16RevA.03 25-Dec-2016

 ------------------
 #p CCSD(T)/cc-pVTZ
 ------------------

 ------------
 H2O_H2O_2942
 ------------
 Symbolic Z-matrix:
 Charge =  0 Multiplicity = 1

                         Standard orientation:
 ---------------------------------------------------------------------
 Center     Atomic      Atomic             Coordinates (Angstroms)
 Number     Number       Type             X           Y           Z
 ---------------------------------------------------------------------
      1          8           0        0.037453    2.278673   -0.000000
      2          1           0        0.035301    1.296074   -0.000000
      3          1           0       -0.891340    2.599374   -0.000000
      4          8           0        0.037453   -2.099715    0.000000
      5          1           0        0.917768   -2.536237    0.000000
      6          1           0       -0.660971   -2.790881    0.000000
 ---------------------------------------------------------------------

 SCF Done:  E(RHF) =  -152.110075394     A.U. after   10 cycles
 E2 =    -0.5259406385D+00 EUMP2 =    -0.15263601603275D+03
 CCSD(T)
 CCSD(T)= -0.15266315254D+03

 The electronic state is 1-A'.
 Alpha  occ. eigenvalues --  -20.56676 -20.54405  -1.33952  -1.31727  -0.71351
 Alpha  occ. eigenvalues --   -0.69125  -0.57506  -0.55218  -0.51084  -0.48866
 Alpha virt. eigenvalues --    0.12487   0.16018   0.19422   0.22875   0.53184
 Alpha virt. eigenvalues --    0.55516   0.56392   0.58577   0.68506   0.69331
 Alpha virt. eigenvalues --    0.77800   0.79061   0.79562   0.79961   0.83298

 Mulliken charges:
               1
     1  O   -0.520296
     2  H    0.264629
     3  H    0.252390
     4  O   -0.514421
     5  H    0.260007
     6  H    0.257691
 Sum of Mulliken charges =   0.00000

 Dipole moment (field-independent basis, Debye):
    X=             -1.2770    Y=             -3.2292    Z=              0.0000  Tot=              3.4725
 Quadrupole moment (field-independent basis, Debye-Ang):
   XX=             -9.1590   YY=             -7.2691   ZZ=            -14.7205
   XY=             -5.0339   XZ=              0.0000   YZ=             -0.0000

 Normal termination of Gaussian 16 at Fri Aug 26 18:35:42 2022.
