 Gaussian 16, Revision A.03,
 Gaussian 16:  ES64L-G16RevA.03 25-Dec-2016

 ------------------
 #p CCSD(T)/cc-pVTZ
 ------------------

 ------------
 H2O_H2O_4054
 ------------
 Symbolic Z-matrix:
 Charge =  0 Multiplicity = 1

                         Standard orientation:
 ---------------------------------------------------------------------
 Center     Atomic      Atomic             Coordinates (Angstroms)
 Number     Number       Type             X           Y           Z
 ---------------------------------------------------------------------
      1          8           0        0.082799    2.714133    0.000000
      2          1           0        0.082473    1.731532    0.000000
      3          1           0       -0.846588    3.033108    0.000000
      4          8           0        0.082799   -2.559606   -0.000000
      5          1           0        0.336800   -3.508811   -0.000000
      6          1           0       -0.897476   -2.492042   -0.000000
 ---------------------------------------------------------------------

 SCF Done:  E(RHF) =  -152.108070258     A.U. after   10 cycles
 E2 =    -0.5258713932D+00 EUMP2 =    -0.15263394165077D+03
 CCSD(T)
 CCSD(T)= -0.15266114263D+03

 The electronic state is 1-A'.
 Alpha  occ. eigenvalues --  -20.56294 -20.55097  -1.33594  -1.32402  -0.71007
 Alpha  occ. eigenvalues --   -0.69796  -0.57070  -0.55861  -0.50708  -0.49519
 Alpha virt. eigenvalues --    0.12689   0.15025   0.19214   0.21617   0.53204
 Alpha virt. eigenvalues --    0.54988   0.56521   0.57854   0.66729   0.68853
 Alpha virt. eigenvalues --    0.78188   0.79116   0.79345   0.80959   0.82542

 Mulliken charges:
               1
     1  O   -0.511404
     2  H    0.259420
     3  H    0.251701
     4  O   -0.512393
     5  H    0.259131
     6  H    0.253545
 Sum of Mulliken charges =  -0.00000

 Dipole moment (field-independent basis, Debye):
    X=             -2.8353    Y=             -2.7241    Z=             -0.0000  Tot=              3.9319
 Quadrupole moment (field-independent basis, Debye-Ang):
   XX=            -10.2461   YY=             -7.9231   ZZ=            -14.7134
   XY=             -3.1357   XZ=             -0.0000   YZ=              0.0000

 Normal termination of Gaussian 16 at Sat Aug 27 23:00:09 2022.
