 Gaussian 16, Revision A.03,
 Gaussian 16:  ES64L-G16RevA.03 25-Dec-2016

 ------------------
 #p CCSD(T)/cc-pVTZ
 ------------------

 ------------
 H2O_H2O_2910
 ------------
 Symbolic Z-matrix:
 Charge =  0 Multiplicity = 1

                         Standard orientation:
 ---------------------------------------------------------------------
 Center     Atomic      Atomic             Coordinates (Angstroms)
 Number     Number       Type             X           Y           Z
 ---------------------------------------------------------------------
      1          8           0        0.063240    2.266820   -0.000000
      2          1           0        0.062083    1.284219   -0.000000
      3          1           0       -0.865877    2.586581   -0.000000
      4          8           0        0.063240   -2.091318    0.000000
      5          1           0        0.660492   -2.871572    0.000000
      6          1           0       -0.868536   -2.403245    0.000000
 ---------------------------------------------------------------------

 SCF Done:  E(RHF) =  -152.109725732     A.U. after   10 cycles
 E2 =    -0.5259912968D+00 EUMP2 =    -0.15263571702905D+03
 CCSD(T)
 CCSD(T)= -0.15266285876D+03

 The electronic state is 1-A'.
 Alpha  occ. eigenvalues --  -20.56702 -20.54471  -1.33979  -1.31790  -0.71384
 Alpha  occ. eigenvalues --   -0.69178  -0.57515  -0.55270  -0.51106  -0.48922
 Alpha virt. eigenvalues --    0.12351   0.15957   0.19436   0.22853   0.53317
 Alpha virt. eigenvalues --    0.55424   0.56256   0.58668   0.68490   0.69346
 Alpha virt. eigenvalues --    0.77776   0.79036   0.79720   0.79913   0.83206

 Mulliken charges:
               1
     1  O   -0.517927
     2  H    0.264405
     3  H    0.250254
     4  O   -0.512473
     5  H    0.260165
     6  H    0.255577
 Sum of Mulliken charges =  -0.00000

 Dipole moment (field-independent basis, Debye):
    X=             -2.1543    Y=             -3.1690    Z=              0.0000  Tot=              3.8319
 Quadrupole moment (field-independent basis, Debye-Ang):
   XX=             -9.4586   YY=             -7.4143   ZZ=            -14.7192
   XY=             -4.0113   XZ=              0.0000   YZ=             -0.0000

 Normal termination of Gaussian 16 at Fri Aug 26 18:17:04 2022.
