 Gaussian 16, Revision A.03,
 Gaussian 16:  ES64L-G16RevA.03 25-Dec-2016

 ------------------
 #p CCSD(T)/cc-pVTZ
 ------------------

 ------------
 H2O_H2O_3383
 ------------
 Symbolic Z-matrix:
 Charge =  0 Multiplicity = 1

                         Standard orientation:
 ---------------------------------------------------------------------
 Center     Atomic      Atomic             Coordinates (Angstroms)
 Number     Number       Type             X           Y           Z
 ---------------------------------------------------------------------
      1          8           0        0.070195    2.453432   -0.000000
      2          1           0        0.069380    1.470831   -0.000000
      3          1           0       -0.859033    2.772870   -0.000000
      4          8           0        0.070195   -2.283182    0.000000
      5          1           0        0.560790   -3.134547    0.000000
      6          1           0       -0.894260   -2.471155    0.000000
 ---------------------------------------------------------------------

 SCF Done:  E(RHF) =  -152.108906144     A.U. after   10 cycles
 E2 =    -0.5259110196D+00 EUMP2 =    -0.15263481716348D+03
 CCSD(T)
 CCSD(T)= -0.15266198794D+03

 The electronic state is 1-A'.
 Alpha  occ. eigenvalues --  -20.56491 -20.54747  -1.33782  -1.32058  -0.71191
 Alpha  occ. eigenvalues --   -0.69449  -0.57286  -0.55531  -0.50902  -0.49183
 Alpha virt. eigenvalues --    0.12483   0.15534   0.19447   0.21999   0.53417
 Alpha virt. eigenvalues --    0.55116   0.56408   0.58168   0.67170   0.69291
 Alpha virt. eigenvalues --    0.78004   0.78734   0.79661   0.80163   0.82934

 Mulliken charges:
               1
     1  O   -0.514659
     2  H    0.262246
     3  H    0.250982
     4  O   -0.513530
     5  H    0.259982
     6  H    0.254979
 Sum of Mulliken charges =  -0.00000

 Dipole moment (field-independent basis, Debye):
    X=             -2.3972    Y=             -3.0360    Z=              0.0000  Tot=              3.8683
 Quadrupole moment (field-independent basis, Debye-Ang):
   XX=             -9.6830   YY=             -7.3715   ZZ=            -14.7165
   XY=             -3.8416   XZ=              0.0000   YZ=             -0.0000

 Normal termination of Gaussian 16 at Fri Aug 26 21:23:49 2022.
