 Gaussian 16, Revision A.03,
 Gaussian 16:  ES64L-G16RevA.03 25-Dec-2016

 ------------------
 #p CCSD(T)/cc-pVTZ
 ------------------

 ------------
 H2O_H2O_1949
 ------------
 Symbolic Z-matrix:
 Charge =  0 Multiplicity = 1

                         Standard orientation:
 ---------------------------------------------------------------------
 Center     Atomic      Atomic             Coordinates (Angstroms)
 Number     Number       Type             X           Y           Z
 ---------------------------------------------------------------------
      1          8           0       -0.013583    1.869093    0.000000
      2          1           0       -0.009817    0.886499    0.000000
      3          1           0        0.914682    2.191320    0.000000
      4          8           0       -0.013583   -1.709853    0.000000
      5          1           0       -0.996177   -1.713619    0.000000
      6          1           0        0.308644   -2.638118    0.000000
 ---------------------------------------------------------------------

 SCF Done:  E(RHF) =  -152.111923033     A.U. after   10 cycles
 E2 =    -0.5264498116D+00 EUMP2 =    -0.15263837284489D+03
 CCSD(T)
 CCSD(T)= -0.15266544717D+03

 The electronic state is 1-A'.
 Alpha  occ. eigenvalues --  -20.57338 -20.54000  -1.34621  -1.31357  -0.72066
 Alpha  occ. eigenvalues --   -0.68783  -0.58294  -0.54809  -0.51747  -0.48510
 Alpha virt. eigenvalues --    0.12172   0.16930   0.19268   0.26566   0.52662
 Alpha virt. eigenvalues --    0.54527   0.55912   0.59258   0.68717   0.73360
 Alpha virt. eigenvalues --    0.75975   0.78524   0.80514   0.83322   0.83955

 Mulliken charges:
               1
     1  O   -0.531562
     2  H    0.267142
     3  H    0.254571
     4  O   -0.508792
     5  H    0.260775
     6  H    0.257866
 Sum of Mulliken charges =  -0.00000

 Dipole moment (field-independent basis, Debye):
    X=              0.4693    Y=             -2.9993    Z=              0.0000  Tot=              3.0358
 Quadrupole moment (field-independent basis, Debye-Ang):
   XX=             -9.6503   YY=             -8.3669   ZZ=            -14.7266
   XY=              5.0377   XZ=              0.0000   YZ=              0.0000

 Normal termination of Gaussian 16 at Sun Aug 28 03:05:03 2022.
