 Gaussian 16, Revision A.03,
 Gaussian 16:  ES64L-G16RevA.03 25-Dec-2016

 ------------------
 #p CCSD(T)/cc-pVTZ
 ------------------

 ------------
 H2O_H2O_2906
 ------------
 Symbolic Z-matrix:
 Charge =  0 Multiplicity = 1

                         Standard orientation:
 ---------------------------------------------------------------------
 Center     Atomic      Atomic             Coordinates (Angstroms)
 Number     Number       Type             X           Y           Z
 ---------------------------------------------------------------------
      1          8           0        0.076760    2.260138   -0.000000
      2          1           0        0.076129    1.277537   -0.000000
      3          1           0       -0.852528    2.579402   -0.000000
      4          8           0        0.076760   -2.096934    0.000000
      5          1           0        0.452202   -3.004981    0.000000
      6          1           0       -0.903967   -2.157596    0.000000
 ---------------------------------------------------------------------

 SCF Done:  E(RHF) =  -152.109215855     A.U. after   10 cycles
 E2 =    -0.5260335863D+00 EUMP2 =    -0.15263524944100D+03
 CCSD(T)
 CCSD(T)= -0.15266240199D+03

 The electronic state is 1-A'.
 Alpha  occ. eigenvalues --  -20.56701 -20.54666  -1.33984  -1.31980  -0.71401
 Alpha  occ. eigenvalues --   -0.69362  -0.57497  -0.55449  -0.51105  -0.49105
 Alpha virt. eigenvalues --    0.12094   0.15838   0.19438   0.22895   0.53805
 Alpha virt. eigenvalues --    0.55165   0.56318   0.58485   0.68341   0.69318
 Alpha virt. eigenvalues --    0.77773   0.78866   0.79746   0.80403   0.82981

 Mulliken charges:
               1
     1  O   -0.515477
     2  H    0.263242
     3  H    0.249433
     4  O   -0.510731
     5  H    0.259871
     6  H    0.253662
 Sum of Mulliken charges =  -0.00000

 Dipole moment (field-independent basis, Debye):
    X=             -2.6139    Y=             -2.9438    Z=              0.0000  Tot=              3.9368
 Quadrupole moment (field-independent basis, Debye-Ang):
   XX=             -9.9578   YY=             -7.8772   ZZ=            -14.7172
   XY=             -3.3446   XZ=              0.0000   YZ=              0.0000

 Normal termination of Gaussian 16 at Fri Aug 26 18:15:22 2022.
