 Gaussian 16, Revision A.03,
 Gaussian 16:  ES64L-G16RevA.03 25-Dec-2016

 ------------------
 #p CCSD(T)/cc-pVTZ
 ------------------

 ------------
 H2O_H2O_3437
 ------------
 Symbolic Z-matrix:
 Charge =  0 Multiplicity = 1

                         Standard orientation:
 ---------------------------------------------------------------------
 Center     Atomic      Atomic             Coordinates (Angstroms)
 Number     Number       Type             X           Y           Z
 ---------------------------------------------------------------------
      1          8           0        0.055983    2.478085    0.000000
      2          1           0        0.054670    1.495485    0.000000
      3          1           0       -0.873083    2.797994    0.000000
      4          8           0        0.055983   -2.299169    0.000000
      5          1           0        0.749858   -2.994901    0.000000
      6          1           0       -0.827176   -2.729908    0.000000
 ---------------------------------------------------------------------

 SCF Done:  E(RHF) =  -152.109164502     A.U. after   10 cycles
 E2 =    -0.5258775531D+00 EUMP2 =    -0.15263504205540D+03
 CCSD(T)
 CCSD(T)= -0.15266220845D+03

 The electronic state is 1-A'.
 Alpha  occ. eigenvalues --  -20.56468 -20.54650  -1.33757  -1.31964  -0.71161
 Alpha  occ. eigenvalues --   -0.69358  -0.57275  -0.55444  -0.50881  -0.49093
 Alpha virt. eigenvalues --    0.12693   0.15561   0.19537   0.21875   0.53393
 Alpha virt. eigenvalues --    0.55109   0.56448   0.58102   0.67124   0.69336
 Alpha virt. eigenvalues --    0.78025   0.78977   0.79587   0.79745   0.83042

 Mulliken charges:
               1
     1  O   -0.516217
     2  H    0.262945
     3  H    0.251826
     4  O   -0.514918
     5  H    0.259903
     6  H    0.256461
 Sum of Mulliken charges =  -0.00000

 Dipole moment (field-independent basis, Debye):
    X=             -1.9127    Y=             -3.1885    Z=             -0.0000  Tot=              3.7181
 Quadrupole moment (field-independent basis, Debye-Ang):
   XX=             -9.2864   YY=             -6.9661   ZZ=            -14.7175
   XY=             -4.5790   XZ=             -0.0000   YZ=             -0.0000

 Normal termination of Gaussian 16 at Fri Aug 26 21:41:40 2022.
