 Gaussian 16, Revision A.03,
 Gaussian 16:  ES64L-G16RevA.03 25-Dec-2016

 ------------------
 #p CCSD(T)/cc-pVTZ
 ------------------

 ------------
 H2O_H2O_1746
 ------------
 Symbolic Z-matrix:
 Charge =  0 Multiplicity = 1

                         Standard orientation:
 ---------------------------------------------------------------------
 Center     Atomic      Atomic             Coordinates (Angstroms)
 Number     Number       Type             X           Y           Z
 ---------------------------------------------------------------------
      1          8           0       -0.023283    1.795349    0.000000
      2          1           0       -0.019822    0.812754    0.000000
      3          1           0        0.905082    2.117287    0.000000
      4          8           0       -0.023283   -1.625002    0.000000
      5          1           0       -0.986323   -1.820092    0.000000
      6          1           0        0.473586   -2.472722    0.000000
 ---------------------------------------------------------------------

 SCF Done:  E(RHF) =  -152.112989851     A.U. after   10 cycles
 E2 =    -0.5266746091D+00 EUMP2 =    -0.15263966446042D+03
 CCSD(T)
 CCSD(T)= -0.15266670415D+03

 The electronic state is 1-A'.
 Alpha  occ. eigenvalues --  -20.57590 -20.53514  -1.34866  -1.30904  -0.72274
 Alpha  occ. eigenvalues --   -0.68388  -0.58625  -0.54322  -0.51998  -0.48061
 Alpha virt. eigenvalues --    0.12197   0.17306   0.19110   0.27563   0.51573
 Alpha virt. eigenvalues --    0.54338   0.56007   0.59607   0.68986   0.73174
 Alpha virt. eigenvalues --    0.75260   0.77638   0.80977   0.83215   0.84362

 Mulliken charges:
               1
     1  O   -0.536598
     2  H    0.270951
     3  H    0.252050
     4  O   -0.507379
     5  H    0.262902
     6  H    0.258074
 Sum of Mulliken charges =  -0.00000

 Dipole moment (field-independent basis, Debye):
    X=              0.7901    Y=             -3.2635    Z=              0.0000  Tot=              3.3578
 Quadrupole moment (field-independent basis, Debye-Ang):
   XX=             -9.3626   YY=             -8.2310   ZZ=            -14.7313
   XY=              4.4729   XZ=              0.0000   YZ=              0.0000

 Normal termination of Gaussian 16 at Sun Aug 28 01:11:28 2022.
