 Gaussian 16, Revision A.03,
 Gaussian 16:  ES64L-G16RevA.03 25-Dec-2016

 ------------------
 #p CCSD(T)/cc-pVTZ
 ------------------

 ------------
 H2O_H2O_1616
 ------------
 Symbolic Z-matrix:
 Charge =  0 Multiplicity = 1

                         Standard orientation:
 ---------------------------------------------------------------------
 Center     Atomic      Atomic             Coordinates (Angstroms)
 Number     Number       Type             X           Y           Z
 ---------------------------------------------------------------------
      1          8           0        0.041205    1.750656   -0.000000
      2          1           0        0.038557    0.768058   -0.000000
      3          1           0       -0.887426    2.071826   -0.000000
      4          8           0        0.041205   -1.570791    0.000000
      5          1           0        0.890836   -2.064384    0.000000
      6          1           0       -0.701252   -2.214424    0.000000
 ---------------------------------------------------------------------

 SCF Done:  E(RHF) =  -152.113661793     A.U. after   10 cycles
 E2 =    -0.5269015716D+00 EUMP2 =    -0.15264056336486D+03
 CCSD(T)
 CCSD(T)= -0.15266757836D+03

 The electronic state is 1-A'.
 Alpha  occ. eigenvalues --  -20.57794 -20.53120  -1.35062  -1.30539  -0.72416
 Alpha  occ. eigenvalues --   -0.68108  -0.58869  -0.53921  -0.52199  -0.47694
 Alpha virt. eigenvalues --    0.12130   0.17517   0.18988   0.28358   0.50513
 Alpha virt. eigenvalues --    0.54505   0.56170   0.59529   0.68980   0.72197
 Alpha virt. eigenvalues --    0.74790   0.76927   0.81325   0.83147   0.84738

 Mulliken charges:
               1
     1  O   -0.539234
     2  H    0.275087
     3  H    0.247806
     4  O   -0.507281
     5  H    0.264584
     6  H    0.259038
 Sum of Mulliken charges =  -0.00000

 Dipole moment (field-independent basis, Debye):
    X=             -1.3855    Y=             -3.4882    Z=              0.0000  Tot=              3.7533
 Quadrupole moment (field-independent basis, Debye-Ang):
   XX=             -9.1523   YY=             -8.1761   ZZ=            -14.7346
   XY=             -3.9358   XZ=              0.0000   YZ=             -0.0000

 Normal termination of Gaussian 16 at Sat Aug 27 23:55:21 2022.
