 Gaussian 16, Revision A.03,
 Gaussian 16:  ES64L-G16RevA.03 25-Dec-2016

 ------------------
 #p CCSD(T)/cc-pVTZ
 ------------------

 ------------
 H2O_H2O_1026
 ------------
 Symbolic Z-matrix:
 Charge =  0 Multiplicity = 1

                         Standard orientation:
 ---------------------------------------------------------------------
 Center     Atomic      Atomic             Coordinates (Angstroms)
 Number     Number       Type             X           Y           Z
 ---------------------------------------------------------------------
      1          8           0        0.090688   -1.498933    0.000000
      2          1           0        0.090554   -0.516331    0.000000
      3          1           0       -0.838761   -1.817726    0.000000
      4          8           0        0.090688    1.360233    0.000000
      5          1           0        0.154820    2.340740    0.000000
      6          1           0       -0.857621    1.102910    0.000000
 ---------------------------------------------------------------------

 SCF Done:  E(RHF) =  -152.107014081     A.U. after   10 cycles
 E2 =    -0.5293956126D+00 EUMP2 =    -0.15263640969321D+03
 CCSD(T)
 CCSD(T)= -0.15266337705D+03

 The electronic state is 1-A'.
 Alpha  occ. eigenvalues --  -20.58652 -20.53428  -1.36286  -1.30947  -0.74467
 Alpha  occ. eigenvalues --   -0.68244  -0.59504  -0.54138  -0.53199  -0.48008
 Alpha virt. eigenvalues --    0.11468   0.16450   0.20579   0.30509   0.48404
 Alpha virt. eigenvalues --    0.53263   0.58237   0.60486   0.68275   0.71884
 Alpha virt. eigenvalues --    0.74064   0.78066   0.80317   0.81756   0.83126

 Mulliken charges:
               1
     1  O   -0.535566
     2  H    0.283186
     3  H    0.231485
     4  O   -0.449449
     5  H    0.236642
     6  H    0.233703
 Sum of Mulliken charges =  -0.00000

 Dipole moment (field-independent basis, Debye):
    X=             -2.9877    Y=              2.9086    Z=              0.0000  Tot=              4.1696
 Quadrupole moment (field-independent basis, Debye-Ang):
   XX=            -10.7583   YY=             -9.1169   ZZ=            -14.6945
   XY=              2.2434   XZ=              0.0000   YZ=              0.0000

 Normal termination of Gaussian 16 at Fri Aug 26 21:59:05 2022.
