 Gaussian 16, Revision A.03,
 Gaussian 16:  ES64L-G16RevA.03 25-Dec-2016

 ------------------
 #p CCSD(T)/cc-pVTZ
 ------------------

 ------------
 H2O_H2O_2862
 ------------
 Symbolic Z-matrix:
 Charge =  0 Multiplicity = 1

                         Standard orientation:
 ---------------------------------------------------------------------
 Center     Atomic      Atomic             Coordinates (Angstroms)
 Number     Number       Type             X           Y           Z
 ---------------------------------------------------------------------
      1          8           0        0.055996    2.248723    0.000000
      2          1           0        0.054543    1.266123    0.000000
      3          1           0       -0.873025    2.568764    0.000000
      4          8           0        0.055996   -2.069823   -0.000000
      5          1           0        0.749772   -2.765653   -0.000000
      6          1           0       -0.827224   -2.500437   -0.000000
 ---------------------------------------------------------------------

 SCF Done:  E(RHF) =  -152.109993514     A.U. after   10 cycles
 E2 =    -0.5259877395D+00 EUMP2 =    -0.15263598125320D+03
 CCSD(T)
 CCSD(T)= -0.15266311642D+03

 The electronic state is 1-A'.
 Alpha  occ. eigenvalues --  -20.56727 -20.54387  -1.34001  -1.31708  -0.71402
 Alpha  occ. eigenvalues --   -0.69098  -0.57550  -0.55193  -0.51130  -0.48844
 Alpha virt. eigenvalues --    0.12409   0.16045   0.19429   0.22991   0.53132
 Alpha virt. eigenvalues --    0.55512   0.56260   0.58752   0.68729   0.69357
 Alpha virt. eigenvalues --    0.77743   0.79096   0.79543   0.79987   0.83308

 Mulliken charges:
               1
     1  O   -0.519230
     2  H    0.264928
     3  H    0.250654
     4  O   -0.512880
     5  H    0.260253
     6  H    0.256276
 Sum of Mulliken charges =  -0.00000

 Dipole moment (field-independent basis, Debye):
    X=             -1.9072    Y=             -3.2363    Z=             -0.0000  Tot=              3.7565
 Quadrupole moment (field-independent basis, Debye-Ang):
   XX=             -9.2880   YY=             -7.3246   ZZ=            -14.7201
   XY=             -4.2845   XZ=             -0.0000   YZ=              0.0000

 Normal termination of Gaussian 16 at Fri Aug 26 17:50:28 2022.
