 Gaussian 16, Revision A.03,
 Gaussian 16:  ES64L-G16RevA.03 25-Dec-2016

 ------------------
 #p CCSD(T)/cc-pVTZ
 ------------------

 -----------
 H2O_H2O_965
 -----------
 Symbolic Z-matrix:
 Charge =  0 Multiplicity = 1

                         Standard orientation:
 ---------------------------------------------------------------------
 Center     Atomic      Atomic             Coordinates (Angstroms)
 Number     Number       Type             X           Y           Z
 ---------------------------------------------------------------------
      1          8           0        0.044960    1.491623   -0.000000
      2          1           0        0.042047    0.509026   -0.000000
      3          1           0       -0.883584    1.813044   -0.000000
      4          8           0        0.044960   -1.311325    0.000000
      5          1           0        0.860342   -1.859648    0.000000
      6          1           0       -0.738163   -1.904810    0.000000
 ---------------------------------------------------------------------

 SCF Done:  E(RHF) =  -152.113102933     A.U. after   10 cycles
 E2 =    -0.5287967287D+00 EUMP2 =    -0.15264189966218D+03
 CCSD(T)
 CCSD(T)= -0.15266871492D+03

 The electronic state is 1-A'.
 Alpha  occ. eigenvalues --  -20.58928 -20.51364  -1.36468  -1.29106  -0.73628
 Alpha  occ. eigenvalues --   -0.68215  -0.59735  -0.53509  -0.52058  -0.46209
 Alpha virt. eigenvalues --    0.11795   0.18098   0.18963   0.32189   0.48341
 Alpha virt. eigenvalues --    0.54614   0.57084   0.61382   0.69185   0.71621
 Alpha virt. eigenvalues --    0.72681   0.77570   0.82321   0.82725   0.84791

 Mulliken charges:
               1
     1  O   -0.572132
     2  H    0.300182
     3  H    0.239721
     4  O   -0.490730
     5  H    0.265827
     6  H    0.257132
 Sum of Mulliken charges =  -0.00000

 Dipole moment (field-independent basis, Debye):
    X=             -1.4810    Y=             -3.8293    Z=              0.0000  Tot=              4.1057
 Quadrupole moment (field-independent basis, Debye-Ang):
   XX=             -9.1528   YY=             -8.8098   ZZ=            -14.7242
   XY=             -3.4061   XZ=              0.0000   YZ=             -0.0000

 Normal termination of Gaussian 16 at Fri Aug 26 21:37:11 2022.
