 Gaussian 16, Revision A.03,
 Gaussian 16:  ES64L-G16RevA.03 25-Dec-2016

 ------------------
 #p CCSD(T)/cc-pVTZ
 ------------------

 ----------
 H2O_H2O_71
 ----------
 Symbolic Z-matrix:
 Charge =  0 Multiplicity = 1

                         Standard orientation:
 ---------------------------------------------------------------------
 Center     Atomic      Atomic             Coordinates (Angstroms)
 Number     Number       Type             X           Y           Z
 ---------------------------------------------------------------------
      1          8           0       -0.023475    1.127184    0.000000
      2          1           0       -0.017795    0.144599    0.000000
      3          1           0        0.904161    1.451217    0.000000
      4          8           0       -0.023475   -0.956943    0.000000
      5          1           0       -0.986072   -1.154205    0.000000
      6          1           0        0.475305   -1.803538    0.000000
 ---------------------------------------------------------------------

 SCF Done:  E(RHF) =  -152.038670016     A.U. after   11 cycles
 E2 =    -0.5360789624D+00 EUMP2 =    -0.15257474897886D+03
 CCSD(T)
 CCSD(T)= -0.15260026858D+03

 The electronic state is 1-A'.
 Alpha  occ. eigenvalues --  -20.61882 -20.44359  -1.43867  -1.24592  -0.81564
 Alpha  occ. eigenvalues --   -0.74803  -0.58521  -0.55382  -0.44425  -0.41150
 Alpha virt. eigenvalues --    0.10546   0.16845   0.20940   0.33423   0.47142
 Alpha virt. eigenvalues --    0.51769   0.60658   0.68849   0.70654   0.71031
 Alpha virt. eigenvalues --    0.76484   0.77567   0.81000   0.84639   0.87823

 Mulliken charges:
               1
     1  O   -0.682074
     2  H    0.277174
     3  H    0.217634
     4  O   -0.309248
     5  H    0.265247
     6  H    0.231267
 Sum of Mulliken charges =  -0.00000

 Dipole moment (field-independent basis, Debye):
    X=              0.7059    Y=             -4.8664    Z=              0.0000  Tot=              4.9173
 Quadrupole moment (field-independent basis, Debye-Ang):
   XX=             -9.2442   YY=            -10.1480   ZZ=            -14.5482
   XY=              2.7513   XZ=              0.0000   YZ=              0.0000

 Normal termination of Gaussian 16 at Fri Aug 26 15:39:56 2022.
