 Gaussian 16, Revision A.03,
 Gaussian 16:  ES64L-G16RevA.03 25-Dec-2016

 ------------------
 #p CCSD(T)/cc-pVTZ
 ------------------

 ------------
 H2O_H2O_1101
 ------------
 Symbolic Z-matrix:
 Charge =  0 Multiplicity = 1

                         Standard orientation:
 ---------------------------------------------------------------------
 Center     Atomic      Atomic             Coordinates (Angstroms)
 Number     Number       Type             X           Y           Z
 ---------------------------------------------------------------------
      1          8           0        0.090688   -1.528849    0.000000
      2          1           0        0.090556   -0.546247    0.000000
      3          1           0       -0.838762   -1.847640    0.000000
      4          8           0        0.090688    1.390149    0.000000
      5          1           0        0.154822    2.370655    0.000000
      6          1           0       -0.857622    1.132829    0.000000
 ---------------------------------------------------------------------

 SCF Done:  E(RHF) =  -152.107783394     A.U. after   10 cycles
 E2 =    -0.5290235237D+00 EUMP2 =    -0.15263680691777D+03
 CCSD(T)
 CCSD(T)= -0.15266380378D+03

 The electronic state is 1-A'.
 Alpha  occ. eigenvalues --  -20.58505 -20.53614  -1.36067  -1.31095  -0.74148
 Alpha  occ. eigenvalues --   -0.68356  -0.59385  -0.54325  -0.53018  -0.48165
 Alpha virt. eigenvalues --    0.11483   0.16442   0.20537   0.30098   0.48557
 Alpha virt. eigenvalues --    0.53463   0.58134   0.59978   0.68197   0.72122
 Alpha virt. eigenvalues --    0.74124   0.78015   0.80592   0.81568   0.83190

 Mulliken charges:
               1
     1  O   -0.532676
     2  H    0.281413
     3  H    0.233126
     4  O   -0.455252
     5  H    0.238041
     6  H    0.235348
 Sum of Mulliken charges =  -0.00000

 Dipole moment (field-independent basis, Debye):
    X=             -2.9955    Y=              2.8663    Z=              0.0000  Tot=              4.1459
 Quadrupole moment (field-independent basis, Debye-Ang):
   XX=            -10.7582   YY=             -9.0897   ZZ=            -14.6990
   XY=              2.2522   XZ=              0.0000   YZ=              0.0000

 Normal termination of Gaussian 16 at Fri Aug 26 22:28:06 2022.
