 Gaussian 16, Revision A.03,
 Gaussian 16:  ES64L-G16RevA.03 25-Dec-2016

 ------------------
 #p CCSD(T)/cc-pVTZ
 ------------------

 ------------
 H2O_H2O_3870
 ------------
 Symbolic Z-matrix:
 Charge =  0 Multiplicity = 1

                         Standard orientation:
 ---------------------------------------------------------------------
 Center     Atomic      Atomic             Coordinates (Angstroms)
 Number     Number       Type             X           Y           Z
 ---------------------------------------------------------------------
      1          8           0        0.026631    2.644529    0.000000
      2          1           0        0.024432    1.661930    0.000000
      3          1           0       -0.902146    2.965275   -0.000000
      4          8           0        0.026631   -2.471288    0.000000
      5          1           0        0.975181   -2.727728    0.000000
      6          1           0       -0.523571   -3.285403   -0.000000
 ---------------------------------------------------------------------

 SCF Done:  E(RHF) =  -152.108897616     A.U. after   10 cycles
 E2 =    -0.5258162445D+00 EUMP2 =    -0.15263471386015D+03
 CCSD(T)
 CCSD(T)= -0.15266189497D+03

 The electronic state is 1-A'.
 Alpha  occ. eigenvalues --  -20.56319 -20.54830  -1.33617  -1.32142  -0.71020
 Alpha  occ. eigenvalues --   -0.69545  -0.57127  -0.55622  -0.50739  -0.49270
 Alpha virt. eigenvalues --    0.12927   0.15280   0.19496   0.21562   0.53374
 Alpha virt. eigenvalues --    0.55079   0.56589   0.57863   0.66702   0.69131
 Alpha virt. eigenvalues --    0.78156   0.79016   0.79576   0.80213   0.82878

 Mulliken charges:
               1
     1  O   -0.516074
     2  H    0.261411
     3  H    0.254080
     4  O   -0.516082
     5  H    0.258414
     6  H    0.258251
 Sum of Mulliken charges =  -0.00000

 Dipole moment (field-independent basis, Debye):
    X=             -0.9126    Y=             -3.0624    Z=             -0.0000  Tot=              3.1955
 Quadrupole moment (field-independent basis, Debye-Ang):
   XX=             -9.2886   YY=             -6.9685   ZZ=            -14.7165
   XY=             -6.3201   XZ=             -0.0000   YZ=             -0.0000

 Normal termination of Gaussian 16 at Sat Aug 27 00:11:29 2022.
