 Gaussian 16, Revision A.03,
 Gaussian 16:  ES64L-G16RevA.03 25-Dec-2016

 ------------------
 #p CCSD(T)/cc-pVTZ
 ------------------

 -----------
 H2O_H2O_529
 -----------
 Symbolic Z-matrix:
 Charge =  0 Multiplicity = 1

                         Standard orientation:
 ---------------------------------------------------------------------
 Center     Atomic      Atomic             Coordinates (Angstroms)
 Number     Number       Type             X           Y           Z
 ---------------------------------------------------------------------
      1          8           0        0.082829   -1.308059    0.000000
      2          1           0        0.082129   -0.325458    0.000000
      3          1           0       -0.846437   -1.627387    0.000000
      4          8           0        0.082829    1.153595    0.000000
      5          1           0        0.336470    2.102896    0.000000
      6          1           0       -0.897421    1.085660    0.000000
 ---------------------------------------------------------------------

 SCF Done:  E(RHF) =  -152.095783705     A.U. after   11 cycles
 E2 =    -0.5325883648D+00 EUMP2 =    -0.15262837206951D+03
 CCSD(T)
 CCSD(T)= -0.15265485882D+03

 The electronic state is 1-A'.
 Alpha  occ. eigenvalues --  -20.60006 -20.50513  -1.38614  -1.28675  -0.76969
 Alpha  occ. eigenvalues --   -0.68981  -0.59163  -0.55059  -0.51198  -0.45639
 Alpha virt. eigenvalues --    0.11187   0.16566   0.20605   0.32671   0.48542
 Alpha virt. eigenvalues --    0.52717   0.59114   0.64037   0.71316   0.71823
 Alpha virt. eigenvalues --    0.74059   0.78473   0.78572   0.83504   0.84051

 Mulliken charges:
               1
     1  O   -0.578142
     2  H    0.293471
     3  H    0.217326
     4  O   -0.399260
     5  H    0.232337
     6  H    0.234268
 Sum of Mulliken charges =  -0.00000

 Dipole moment (field-independent basis, Debye):
    X=             -2.6547    Y=              3.6803    Z=              0.0000  Tot=              4.5378
 Quadrupole moment (field-independent basis, Debye-Ang):
   XX=            -10.2759   YY=             -9.3225   ZZ=            -14.6499
   XY=              2.5287   XZ=              0.0000   YZ=              0.0000

 Normal termination of Gaussian 16 at Fri Aug 26 18:51:44 2022.
