 Gaussian 16, Revision A.03,
 Gaussian 16:  ES64L-G16RevA.03 25-Dec-2016

 ------------------
 #p CCSD(T)/cc-pVTZ
 ------------------

 ------------
 H2O_H2O_3125
 ------------
 Symbolic Z-matrix:
 Charge =  0 Multiplicity = 1

                         Standard orientation:
 ---------------------------------------------------------------------
 Center     Atomic      Atomic             Coordinates (Angstroms)
 Number     Number       Type             X           Y           Z
 ---------------------------------------------------------------------
      1          8           0        0.092949   -2.333363    0.000000
      2          1           0        0.092949   -1.350762    0.000000
      3          1           0       -0.836544   -2.652030    0.000000
      4          8           0        0.092949    2.200576    0.000000
      5          1           0        0.092950    3.183178    0.000000
      6          1           0       -0.836544    1.881909    0.000000
 ---------------------------------------------------------------------

 SCF Done:  E(RHF) =  -152.107983761     A.U. after   10 cycles
 E2 =    -0.5260480449D+00 EUMP2 =    -0.15263403180570D+03
 CCSD(T)
 CCSD(T)= -0.15266122153D+03

 The electronic state is 1-A'.
 Alpha  occ. eigenvalues --  -20.56598 -20.55181  -1.33893  -1.32482  -0.71326
 Alpha  occ. eigenvalues --   -0.69863  -0.57358  -0.55931  -0.51001  -0.49594
 Alpha virt. eigenvalues --    0.11544   0.15486   0.19273   0.23196   0.54188
 Alpha virt. eigenvalues --    0.54591   0.56456   0.58057   0.67684   0.68853
 Alpha virt. eigenvalues --    0.77896   0.78450   0.79285   0.81135   0.82564

 Mulliken charges:
               1
     1  O   -0.510206
     2  H    0.259549
     3  H    0.249626
     4  O   -0.508584
     5  H    0.259731
     6  H    0.249883
 Sum of Mulliken charges =  -0.00000

 Dipole moment (field-independent basis, Debye):
    X=             -3.1676    Y=              2.3748    Z=              0.0000  Tot=              3.9590
 Quadrupole moment (field-independent basis, Debye-Ang):
   XX=            -10.8567   YY=             -9.2244   ZZ=            -14.7125
   XY=              2.1498   XZ=              0.0000   YZ=              0.0000

 CCSD(T)=-152.6612215\RMSD=7.260e-09\PG=CS [SG(H4O2)]\\@
 Normal termination of Gaussian 16 at Fri Aug 26 19:54:29 2022.
