 Gaussian 16, Revision A.03,
 Gaussian 16:  ES64L-G16RevA.03 25-Dec-2016

 ------------------
 #p CCSD(T)/cc-pVTZ
 ------------------

 ------------
 H2O_H2O_1235
 ------------
 Symbolic Z-matrix:
 Charge =  0 Multiplicity = 1

                         Standard orientation:
 ---------------------------------------------------------------------
 Center     Atomic      Atomic             Coordinates (Angstroms)
 Number     Number       Type             X           Y           Z
 ---------------------------------------------------------------------
      1          8           0        0.063286    1.598668    0.000000
      2          1           0        0.061617    0.616068    0.000000
      3          1           0       -0.865665    1.918913    0.000000
      4          8           0        0.063286   -1.423232   -0.000000
      5          1           0        0.660131   -2.203797   -0.000000
      6          1           0       -0.868654   -1.734673   -0.000000
 ---------------------------------------------------------------------

 SCF Done:  E(RHF) =  -152.113314758     A.U. after   10 cycles
 E2 =    -0.5279102708D+00 EUMP2 =    -0.15264122502919D+03
 CCSD(T)
 CCSD(T)= -0.15266816977D+03

 The electronic state is 1-A'.
 Alpha  occ. eigenvalues --  -20.58372 -20.52531  -1.35743  -1.30055  -0.73096
 Alpha  occ. eigenvalues --   -0.68011  -0.59428  -0.53272  -0.52835  -0.47181
 Alpha virt. eigenvalues --    0.11834   0.17400   0.19272   0.30417   0.48779
 Alpha virt. eigenvalues --    0.54878   0.57189   0.59357   0.69787   0.72651
 Alpha virt. eigenvalues --    0.73314   0.76650   0.81958   0.82578   0.84652

 Mulliken charges:
               1
     1  O   -0.548219
     2  H    0.286754
     3  H    0.239879
     4  O   -0.494179
     5  H    0.260342
     6  H    0.255423
 Sum of Mulliken charges =  -0.00000

 Dipole moment (field-independent basis, Debye):
    X=             -2.1034    Y=             -3.5518    Z=             -0.0000  Tot=              4.1279
 Quadrupole moment (field-independent basis, Debye-Ang):
   XX=             -9.4738   YY=             -8.5436   ZZ=            -14.7293
   XY=             -3.3037   XZ=             -0.0000   YZ=             -0.0000

 Normal termination of Gaussian 16 at Fri Aug 26 23:17:47 2022.
