 Gaussian 16, Revision A.03,
 Gaussian 16:  ES64L-G16RevA.03 25-Dec-2016

 ------------------
 #p CCSD(T)/cc-pVTZ
 ------------------

 ------------
 H2O_H2O_3430
 ------------
 Symbolic Z-matrix:
 Charge =  0 Multiplicity = 1

                         Standard orientation:
 ---------------------------------------------------------------------
 Center     Atomic      Atomic             Coordinates (Angstroms)
 Number     Number       Type             X           Y           Z
 ---------------------------------------------------------------------
      1          8           0        0.079850    2.467300    0.000000
      2          1           0        0.079384    1.484699    0.000000
      3          1           0       -0.849492    2.786407    0.000000
      4          8           0        0.079850   -2.308235    0.000000
      5          1           0        0.395255   -3.238839    0.000000
      6          1           0       -0.902746   -2.304790    0.000000
 ---------------------------------------------------------------------

 SCF Done:  E(RHF) =  -152.108535706     A.U. after   10 cycles
 E2 =    -0.5259285281D+00 EUMP2 =    -0.15263446423443D+03
 CCSD(T)
 CCSD(T)= -0.15266164471D+03

 The electronic state is 1-A'.
 Alpha  occ. eigenvalues --  -20.56476 -20.54904  -1.33770  -1.32212  -0.71185
 Alpha  occ. eigenvalues --   -0.69601  -0.57259  -0.55677  -0.50886  -0.49333
 Alpha virt. eigenvalues --    0.12282   0.15434   0.19330   0.22106   0.53438
 Alpha virt. eigenvalues --    0.55061   0.56423   0.58120   0.67065   0.69180
 Alpha virt. eigenvalues --    0.78020   0.78647   0.79522   0.80712   0.82767

 Mulliken charges:
               1
     1  O   -0.512874
     2  H    0.261061
     3  H    0.250692
     4  O   -0.512344
     5  H    0.259852
     6  H    0.253613
 Sum of Mulliken charges =  -0.00000

 Dipole moment (field-independent basis, Debye):
    X=             -2.7271    Y=             -2.8319    Z=              0.0000  Tot=              3.9315
 Quadrupole moment (field-independent basis, Debye-Ang):
   XX=            -10.0994   YY=             -7.8689   ZZ=            -14.7151
   XY=             -3.2577   XZ=              0.0000   YZ=              0.0000

 CCSD(T)=-152.6616447\RMSD=7.147e-09\PG=CS [SG(H4O2)]\\@
 Normal termination of Gaussian 16 at Fri Aug 26 21:39:22 2022.
