 Gaussian 16, Revision A.03,
 Gaussian 16:  ES64L-G16RevA.03 25-Dec-2016

 ------------------
 #p CCSD(T)/cc-pVTZ
 ------------------

 ------------
 H2O_H2O_2363
 ------------
 Symbolic Z-matrix:
 Charge =  0 Multiplicity = 1

                         Standard orientation:
 ---------------------------------------------------------------------
 Center     Atomic      Atomic             Coordinates (Angstroms)
 Number     Number       Type             X           Y           Z
 ---------------------------------------------------------------------
      1          8           0        0.052320    2.049810    0.000000
      2          1           0        0.050559    1.067210    0.000000
      3          1           0       -0.876600    2.370141   -0.000000
      4          8           0        0.052320   -1.869944    0.000000
      5          1           0        0.789917   -2.519141    0.000000
      6          1           0       -0.800998   -2.357135   -0.000000
 ---------------------------------------------------------------------

 SCF Done:  E(RHF) =  -152.111175791     A.U. after   10 cycles
 E2 =    -0.5261745695D+00 EUMP2 =    -0.15263735036074D+03
 CCSD(T)
 CCSD(T)= -0.15266444773D+03

 The electronic state is 1-A'.
 Alpha  occ. eigenvalues --  -20.57049 -20.54031  -1.34307  -1.31368  -0.71700
 Alpha  occ. eigenvalues --   -0.68765  -0.57919  -0.54848  -0.51443  -0.48512
 Alpha virt. eigenvalues --    0.12281   0.16562   0.19297   0.24624   0.52413
 Alpha virt. eigenvalues --    0.55539   0.56265   0.59011   0.69004   0.71298
 Alpha virt. eigenvalues --    0.77147   0.78414   0.80345   0.81845   0.83627

 Mulliken charges:
               1
     1  O   -0.524065
     2  H    0.267267
     3  H    0.249497
     4  O   -0.509763
     5  H    0.260724
     6  H    0.256340
 Sum of Mulliken charges =  -0.00000

 Dipole moment (field-independent basis, Debye):
    X=             -1.7754    Y=             -3.3186    Z=             -0.0000  Tot=              3.7636
 Quadrupole moment (field-independent basis, Debye-Ang):
   XX=             -9.2290   YY=             -7.6213   ZZ=            -14.7241
   XY=             -4.1436   XZ=              0.0000   YZ=             -0.0000

 Normal termination of Gaussian 16 at Sun Aug 28 06:41:19 2022.
