 Gaussian 16, Revision A.03,
 Gaussian 16:  ES64L-G16RevA.03 25-Dec-2016

 ------------------
 #p CCSD(T)/cc-pVTZ
 ------------------

 -----------
 H2O_H2O_113
 -----------
 Symbolic Z-matrix:
 Charge =  0 Multiplicity = 1

                         Standard orientation:
 ---------------------------------------------------------------------
 Center     Atomic      Atomic             Coordinates (Angstroms)
 Number     Number       Type             X           Y           Z
 ---------------------------------------------------------------------
      1          8           0        0.052456    1.152260    0.000000
      2          1           0        0.049208    0.169664    0.000000
      3          1           0       -0.875978    1.473997    0.000000
      4          8           0        0.052456   -0.972553   -0.000000
      5          1           0        0.789069   -1.622865   -0.000000
      6          1           0       -0.801599   -1.458450   -0.000000
 ---------------------------------------------------------------------

 SCF Done:  E(RHF) =  -152.052764200     A.U. after   11 cycles
 E2 =    -0.5353863390D+00 EUMP2 =    -0.15258815053903D+03
 CCSD(T)
 CCSD(T)= -0.15261379947D+03

 The electronic state is 1-A'.
 Alpha  occ. eigenvalues --  -20.61866 -20.44722  -1.42990  -1.24779  -0.78516
 Alpha  occ. eigenvalues --   -0.77210  -0.58196  -0.55039  -0.45015  -0.41321
 Alpha virt. eigenvalues --    0.10431   0.16463   0.21095   0.32930   0.47265
 Alpha virt. eigenvalues --    0.52106   0.63434   0.63743   0.70970   0.70975
 Alpha virt. eigenvalues --    0.79198   0.79617   0.81280   0.82307   0.87130

 Mulliken charges:
               1
     1  O   -0.662768
     2  H    0.293865
     3  H    0.203093
     4  O   -0.327459
     5  H    0.249547
     6  H    0.243722
 Sum of Mulliken charges =  -0.00000

 Dipole moment (field-independent basis, Debye):
    X=             -1.5937    Y=             -4.9761    Z=             -0.0000  Tot=              5.2251
 Quadrupole moment (field-independent basis, Debye-Ang):
   XX=             -9.1812   YY=            -10.1373   ZZ=            -14.5732
   XY=             -2.7047   XZ=             -0.0000   YZ=             -0.0000

 Normal termination of Gaussian 16 at Fri Aug 26 15:56:43 2022.
