 Gaussian 16, Revision A.03,
 Gaussian 16:  ES64L-G16RevA.03 25-Dec-2016

 ------------------
 #p CCSD(T)/cc-pVTZ
 ------------------

 ------------
 H2O_H2O_1605
 ------------
 Symbolic Z-matrix:
 Charge =  0 Multiplicity = 1

                         Standard orientation:
 ---------------------------------------------------------------------
 Center     Atomic      Atomic             Coordinates (Angstroms)
 Number     Number       Type             X           Y           Z
 ---------------------------------------------------------------------
      1          8           0        0.079866   -1.739333    0.000000
      2          1           0        0.079197   -0.756731    0.000000
      3          1           0       -0.849409   -2.058632    0.000000
      4          8           0        0.079866    1.580300    0.000000
      5          1           0        0.395080    2.510971    0.000000
      6          1           0       -0.902729    1.576651    0.000000
 ---------------------------------------------------------------------

 SCF Done:  E(RHF) =  -152.111322574     A.U. after   10 cycles
 E2 =    -0.5271534958D+00 EUMP2 =    -0.15263847606960D+03
 CCSD(T)
 CCSD(T)= -0.15266552877D+03

 The electronic state is 1-A'.
 Alpha  occ. eigenvalues --  -20.57769 -20.53800  -1.35076  -1.31177  -0.72574
 Alpha  occ. eigenvalues --   -0.68594  -0.58711  -0.54554  -0.52176  -0.48302
 Alpha virt. eigenvalues --    0.11753   0.16679   0.19720   0.27700   0.50084
 Alpha virt. eigenvalues --    0.55244   0.57129   0.58218   0.69216   0.74252
 Alpha virt. eigenvalues --    0.74624   0.77437   0.80873   0.82778   0.83811

 Mulliken charges:
               1
     1  O   -0.527619
     2  H    0.273190
     3  H    0.241847
     4  O   -0.494731
     5  H    0.256137
     6  H    0.251177
 Sum of Mulliken charges =  -0.00000

 Dipole moment (field-independent basis, Debye):
    X=             -2.6776    Y=              3.0754    Z=              0.0000  Tot=              4.0777
 Quadrupole moment (field-independent basis, Debye-Ang):
   XX=            -10.1309   YY=             -8.5191   ZZ=            -14.7233
   XY=              2.9116   XZ=              0.0000   YZ=              0.0000

 Normal termination of Gaussian 16 at Sat Aug 27 23:50:54 2022.
