 Gaussian 16, Revision A.03,
 Gaussian 16:  ES64L-G16RevA.03 25-Dec-2016

 ------------------
 #p CCSD(T)/cc-pVTZ
 ------------------

 ------------
 H2O_H2O_1685
 ------------
 Symbolic Z-matrix:
 Charge =  0 Multiplicity = 1

                         Standard orientation:
 ---------------------------------------------------------------------
 Center     Atomic      Atomic             Coordinates (Angstroms)
 Number     Number       Type             X           Y           Z
 ---------------------------------------------------------------------
      1          8           0        0.063270    1.778174    0.000000
      2          1           0        0.061778    0.795574    0.000000
      3          1           0       -0.865738    2.098251    0.000000
      4          8           0        0.063270   -1.602715   -0.000000
      5          1           0        0.660256   -2.383173   -0.000000
      6          1           0       -0.868612   -1.914325   -0.000000
 ---------------------------------------------------------------------

 SCF Done:  E(RHF) =  -152.112698580     A.U. after   10 cycles
 E2 =    -0.5268762525D+00 EUMP2 =    -0.15263957483253D+03
 CCSD(T)
 CCSD(T)= -0.15266661059D+03

 The electronic state is 1-A'.
 Alpha  occ. eigenvalues --  -20.57705 -20.53419  -1.34975  -1.30810  -0.72364
 Alpha  occ. eigenvalues --   -0.68300  -0.58706  -0.54207  -0.52103  -0.47953
 Alpha virt. eigenvalues --    0.12001   0.17092   0.19245   0.27718   0.50267
 Alpha virt. eigenvalues --    0.55149   0.56376   0.58875   0.69312   0.72739
 Alpha virt. eigenvalues --    0.75064   0.77086   0.81080   0.83138   0.84328

 Mulliken charges:
               1
     1  O   -0.532164
     2  H    0.273177
     3  H    0.244649
     4  O   -0.504124
     5  H    0.262597
     6  H    0.255865
 Sum of Mulliken charges =  -0.00000

 Dipole moment (field-independent basis, Debye):
    X=             -2.1270    Y=             -3.3772    Z=             -0.0000  Tot=              3.9912
 Quadrupole moment (field-independent basis, Debye-Ang):
   XX=             -9.4711   YY=             -8.1830   ZZ=            -14.7306
   XY=             -3.5013   XZ=             -0.0000   YZ=              0.0000

 Normal termination of Gaussian 16 at Sun Aug 28 00:37:54 2022.
