 Gaussian 16, Revision A.03,
 Gaussian 16:  ES64L-G16RevA.03 25-Dec-2016

 ------------------
 #p CCSD(T)/cc-pVTZ
 ------------------

 -----------
 H2O_H2O_759
 -----------
 Symbolic Z-matrix:
 Charge =  0 Multiplicity = 1

                         Standard orientation:
 ---------------------------------------------------------------------
 Center     Atomic      Atomic             Coordinates (Angstroms)
 Number     Number       Type             X           Y           Z
 ---------------------------------------------------------------------
      1          8           0        0.066822    1.407884    0.000000
      2          1           0        0.065140    0.425284    0.000000
      3          1           0       -0.862124    1.728141    0.000000
      4          8           0        0.066822   -1.234875   -0.000000
      5          1           0        0.611327   -2.052811   -0.000000
      6          1           0       -0.883494   -1.484686   -0.000000
 ---------------------------------------------------------------------

 SCF Done:  E(RHF) =  -152.108520329     A.U. after   10 cycles
 E2 =    -0.5301663904D+00 EUMP2 =    -0.15263868671911D+03
 CCSD(T)
 CCSD(T)= -0.15266537292D+03

 The electronic state is 1-A'.
 Alpha  occ. eigenvalues --  -20.59413 -20.50869  -1.37258  -1.28788  -0.74570
 Alpha  occ. eigenvalues --   -0.68853  -0.59515  -0.54149  -0.51530  -0.45829
 Alpha virt. eigenvalues --    0.11480   0.17251   0.19746   0.32716   0.48053
 Alpha virt. eigenvalues --    0.54097   0.59745   0.60697   0.70245   0.72339
 Alpha virt. eigenvalues --    0.73432   0.77475   0.81096   0.83216   0.84264

 Mulliken charges:
               1
     1  O   -0.578147
     2  H    0.304628
     3  H    0.229380
     4  O   -0.455209
     5  H    0.250952
     6  H    0.248395
 Sum of Mulliken charges =  -0.00000

 Dipole moment (field-independent basis, Debye):
    X=             -2.1719    Y=             -3.8395    Z=             -0.0000  Tot=              4.4112
 Quadrupole moment (field-independent basis, Debye-Ang):
   XX=             -9.5794   YY=             -9.0415   ZZ=            -14.6994
   XY=             -3.0196   XZ=             -0.0000   YZ=             -0.0000

 Normal termination of Gaussian 16 at Fri Aug 26 20:20:03 2022.
