 Gaussian 16, Revision A.03,
 Gaussian 16:  ES64L-G16RevA.03 25-Dec-2016

 ------------------
 #p CCSD(T)/cc-pVTZ
 ------------------

 ------------
 H2O_H2O_2936
 ------------
 Symbolic Z-matrix:
 Charge =  0 Multiplicity = 1

                         Standard orientation:
 ---------------------------------------------------------------------
 Center     Atomic      Atomic             Coordinates (Angstroms)
 Number     Number       Type             X           Y           Z
 ---------------------------------------------------------------------
      1          8           0        0.059645    2.277845   -0.000000
      2          1           0        0.058353    1.295244   -0.000000
      3          1           0       -0.869429    2.597733   -0.000000
      4          8           0        0.059645   -2.100405    0.000000
      5          1           0        0.706548   -2.840015    0.000000
      6          1           0       -0.849787   -2.472480    0.000000
 ---------------------------------------------------------------------

 SCF Done:  E(RHF) =  -152.109780320     A.U. after   10 cycles
 E2 =    -0.5259760044D+00 EUMP2 =    -0.15263575632412D+03
 CCSD(T)
 CCSD(T)= -0.15266289773D+03

 The electronic state is 1-A'.
 Alpha  occ. eigenvalues --  -20.56688 -20.54452  -1.33965  -1.31772  -0.71369
 Alpha  occ. eigenvalues --   -0.69160  -0.57505  -0.55254  -0.51093  -0.48905
 Alpha virt. eigenvalues --    0.12404   0.15958   0.19442   0.22798   0.53248
 Alpha virt. eigenvalues --    0.55436   0.56274   0.58659   0.68445   0.69337
 Alpha virt. eigenvalues --    0.77793   0.79063   0.79569   0.79928   0.83231

 Mulliken charges:
               1
     1  O   -0.518274
     2  H    0.264485
     3  H    0.250572
     4  O   -0.512958
     5  H    0.260206
     6  H    0.255969
 Sum of Mulliken charges =  -0.00000

 Dipole moment (field-independent basis, Debye):
    X=             -2.0323    Y=             -3.2020    Z=             -0.0000  Tot=              3.7925
 Quadrupole moment (field-independent basis, Debye-Ang):
   XX=             -9.3653   YY=             -7.3298   ZZ=            -14.7194
   XY=             -4.1745   XZ=              0.0000   YZ=             -0.0000

 Normal termination of Gaussian 16 at Fri Aug 26 18:31:30 2022.
