 Gaussian 16, Revision A.03,
 Gaussian 16:  ES64L-G16RevA.03 25-Dec-2016

 ------------------
 #p CCSD(T)/cc-pVTZ
 ------------------

 ------------
 H2O_H2O_2239
 ------------
 Symbolic Z-matrix:
 Charge =  0 Multiplicity = 1

                         Standard orientation:
 ---------------------------------------------------------------------
 Center     Atomic      Atomic             Coordinates (Angstroms)
 Number     Number       Type             X           Y           Z
 ---------------------------------------------------------------------
      1          8           0        0.048611    2.000219   -0.000000
      2          1           0        0.046639    1.017620   -0.000000
      3          1           0       -0.880241    2.320750   -0.000000
      4          8           0        0.048611   -1.819861    0.000000
      5          1           0        0.826960   -2.419594    0.000000
      6          1           0       -0.771132   -2.361641    0.000000
 ---------------------------------------------------------------------

 SCF Done:  E(RHF) =  -152.111596343     A.U. after   10 cycles
 E2 =    -0.5262386089D+00 EUMP2 =    -0.15263783495167D+03
 CCSD(T)
 CCSD(T)= -0.15266492061D+03

 The electronic state is 1-A'.
 Alpha  occ. eigenvalues --  -20.57147 -20.53908  -1.34401  -1.31252  -0.71790
 Alpha  occ. eigenvalues --   -0.68657  -0.58040  -0.54728  -0.51539  -0.48400
 Alpha virt. eigenvalues --    0.12270   0.16720   0.19248   0.25155   0.52151
 Alpha virt. eigenvalues --    0.55371   0.56366   0.58993   0.69029   0.71799
 Alpha virt. eigenvalues --    0.76893   0.78119   0.80474   0.82951   0.83568

 Mulliken charges:
               1
     1  O   -0.526033
     2  H    0.267957
     3  H    0.249481
     4  O   -0.509218
     5  H    0.261112
     6  H    0.256701
 Sum of Mulliken charges =  -0.00000

 Dipole moment (field-independent basis, Debye):
    X=             -1.6477    Y=             -3.3486    Z=              0.0000  Tot=              3.7320
 Quadrupole moment (field-independent basis, Debye-Ang):
   XX=             -9.1854   YY=             -7.6948   ZZ=            -14.7257
   XY=             -4.1795   XZ=              0.0000   YZ=             -0.0000

 Normal termination of Gaussian 16 at Sun Aug 28 05:39:38 2022.
