 Gaussian 16, Revision A.03,
 Gaussian 16:  ES64L-G16RevA.03 25-Dec-2016

 ------------------
 #p CCSD(T)/cc-pVTZ
 ------------------

 -----------
 H2O_H2O_662
 -----------
 Symbolic Z-matrix:
 Charge =  0 Multiplicity = 1

                         Standard orientation:
 ---------------------------------------------------------------------
 Center     Atomic      Atomic             Coordinates (Angstroms)
 Number     Number       Type             X           Y           Z
 ---------------------------------------------------------------------
      1          8           0        0.056086    1.371138   -0.000000
      2          1           0        0.053639    0.388539   -0.000000
      3          1           0       -0.872610    1.692118   -0.000000
      4          8           0        0.056086   -1.192351    0.000000
      5          1           0        0.749158   -1.888884    0.000000
      6          1           0       -0.827569   -1.622070    0.000000
 ---------------------------------------------------------------------

 SCF Done:  E(RHF) =  -152.106894305     A.U. after   11 cycles
 E2 =    -0.5306128554D+00 EUMP2 =    -0.15263750715999D+03
 CCSD(T)
 CCSD(T)= -0.15266407879D+03

 The electronic state is 1-A'.
 Alpha  occ. eigenvalues --  -20.59721 -20.49966  -1.37738  -1.28094  -0.74687
 Alpha  occ. eigenvalues --   -0.69714  -0.59184  -0.54572  -0.50595  -0.45105
 Alpha virt. eigenvalues --    0.11429   0.17546   0.19652   0.33184   0.47800
 Alpha virt. eigenvalues --    0.53972   0.60588   0.61231   0.70563   0.72346
 Alpha virt. eigenvalues --    0.72674   0.78082   0.81422   0.82990   0.84342

 Mulliken charges:
               1
     1  O   -0.594493
     2  H    0.311762
     3  H    0.229118
     4  O   -0.456746
     5  H    0.258726
     6  H    0.251633
 Sum of Mulliken charges =  -0.00000

 Dipole moment (field-independent basis, Debye):
    X=             -1.8118    Y=             -4.0736    Z=              0.0000  Tot=              4.4583
 Quadrupole moment (field-independent basis, Debye-Ang):
   XX=             -9.2834   YY=             -9.1872   ZZ=            -14.6949
   XY=             -3.0969   XZ=              0.0000   YZ=             -0.0000

 Normal termination of Gaussian 16 at Fri Aug 26 19:42:06 2022.
