 Gaussian 16, Revision A.03,
 Gaussian 16:  ES64L-G16RevA.03 25-Dec-2016

 ------------------
 #p CCSD(T)/cc-pVTZ
 ------------------

 ------------
 H2O_H2O_3008
 ------------
 Symbolic Z-matrix:
 Charge =  0 Multiplicity = 1

                         Standard orientation:
 ---------------------------------------------------------------------
 Center     Atomic      Atomic             Coordinates (Angstroms)
 Number     Number       Type             X           Y           Z
 ---------------------------------------------------------------------
      1          8           0        0.070200    2.303849   -0.000000
      2          1           0        0.069330    1.321248   -0.000000
      3          1           0       -0.859010    2.623339    0.000000
      4          8           0        0.070200   -2.133607   -0.000000
      5          1           0        0.560748   -2.985000   -0.000000
      6          1           0       -0.894265   -2.321526    0.000000
 ---------------------------------------------------------------------

 SCF Done:  E(RHF) =  -152.109351131     A.U. after   10 cycles
 E2 =    -0.5259845620D+00 EUMP2 =    -0.15263533569301D+03
 CCSD(T)
 CCSD(T)= -0.15266248787D+03

 The electronic state is 1-A'.
 Alpha  occ. eigenvalues --  -20.56652 -20.54601  -1.33934  -1.31916  -0.71344
 Alpha  occ. eigenvalues --   -0.69302  -0.57454  -0.55391  -0.51057  -0.49044
 Alpha virt. eigenvalues --    0.12282   0.15822   0.19437   0.22639   0.53538
 Alpha virt. eigenvalues --    0.55263   0.56301   0.58512   0.68097   0.69321
 Alpha virt. eigenvalues --    0.77836   0.78881   0.79797   0.80043   0.83062

 Mulliken charges:
               1
     1  O   -0.516235
     2  H    0.263500
     3  H    0.250088
     4  O   -0.512196
     5  H    0.260062
     6  H    0.254782
 Sum of Mulliken charges =  -0.00000

 Dipole moment (field-independent basis, Debye):
    X=             -2.3925    Y=             -3.0637    Z=              0.0000  Tot=              3.8872
 Quadrupole moment (field-independent basis, Debye-Ang):
   XX=             -9.6856   YY=             -7.5573   ZZ=            -14.7179
   XY=             -3.7228   XZ=             -0.0000   YZ=              0.0000

 Normal termination of Gaussian 16 at Fri Aug 26 19:13:21 2022.
