 Gaussian 16, Revision A.03,
 Gaussian 16:  ES64L-G16RevA.03 25-Dec-2016

 ------------------
 #p CCSD(T)/cc-pVTZ
 ------------------

 ------------
 H2O_H2O_4850
 ------------
 Symbolic Z-matrix:
 Charge =  0 Multiplicity = 1

                         Standard orientation:
 ---------------------------------------------------------------------
 Center     Atomic      Atomic             Coordinates (Angstroms)
 Number     Number       Type             X           Y           Z
 ---------------------------------------------------------------------
      1          8           0        0.092949   -3.021426    0.000000
      2          1           0        0.092949   -2.038825    0.000000
      3          1           0       -0.836544   -3.340093    0.000000
      4          8           0        0.092949    2.888639    0.000000
      5          1           0        0.092950    3.871242    0.000000
      6          1           0       -0.836544    2.569973    0.000000
 ---------------------------------------------------------------------

 SCF Done:  E(RHF) =  -152.107585045     A.U. after   10 cycles
 E2 =    -0.5258689934D+00 EUMP2 =    -0.15263345403846D+03
 CCSD(T)
 CCSD(T)= -0.15266067072D+03

 The electronic state is 1-A'.
 Alpha  occ. eigenvalues --  -20.56155 -20.55382  -1.33456  -1.32683  -0.70869
 Alpha  occ. eigenvalues --   -0.70081  -0.56913  -0.56133  -0.50567  -0.49795
 Alpha virt. eigenvalues --    0.13035   0.14575   0.18994   0.21366   0.53409
 Alpha virt. eigenvalues --    0.54685   0.56591   0.57560   0.67075   0.68268
 Alpha virt. eigenvalues --    0.78322   0.79080   0.79667   0.80969   0.81667

 Mulliken charges:
               1
     1  O   -0.509402
     2  H    0.256877
     3  H    0.252505
     4  O   -0.510232
     5  H    0.257648
     6  H    0.252604
 Sum of Mulliken charges =   0.00000

 Dipole moment (field-independent basis, Debye):
    X=             -3.1905    Y=              2.3239    Z=              0.0000  Tot=              3.9471
 Quadrupole moment (field-independent basis, Debye-Ang):
   XX=            -10.8441   YY=             -9.2955   ZZ=            -14.7117
   XY=              2.1595   XZ=              0.0000   YZ=              0.0000

 Normal termination of Gaussian 16 at Sun Aug 28 06:22:04 2022.
