 Gaussian 16, Revision A.03,
 Gaussian 16:  ES64L-G16RevA.03 25-Dec-2016

 ------------------
 #p CCSD(T)/cc-pVTZ
 ------------------

 -----------
 H2O_H2O_421
 -----------
 Symbolic Z-matrix:
 Charge =  0 Multiplicity = 1

                         Standard orientation:
 ---------------------------------------------------------------------
 Center     Atomic      Atomic             Coordinates (Angstroms)
 Number     Number       Type             X           Y           Z
 ---------------------------------------------------------------------
      1          8           0       -0.023417    1.266805    0.000000
      2          1           0       -0.018408    0.284216    0.000000
      3          1           0        0.904440    1.590205    0.000000
      4          8           0       -0.023417   -1.096532    0.000000
      5          1           0       -0.986148   -1.293137    0.000000
      6          1           0        0.474786   -1.943468    0.000000
 ---------------------------------------------------------------------

 SCF Done:  E(RHF) =  -152.092733581     A.U. after   11 cycles
 E2 =    -0.5325510193D+00 EUMP2 =    -0.15262528460068D+03
 CCSD(T)
 CCSD(T)= -0.15265151849D+03

 The electronic state is 1-A'.
 Alpha  occ. eigenvalues --  -20.60428 -20.48285  -1.39403  -1.26981  -0.76920
 Alpha  occ. eigenvalues --   -0.70803  -0.58493  -0.55761  -0.48724  -0.43900
 Alpha virt. eigenvalues --    0.11291   0.17770   0.19855   0.33993   0.47398
 Alpha virt. eigenvalues --    0.53214   0.59380   0.68391   0.70225   0.72118
 Alpha virt. eigenvalues --    0.75230   0.77359   0.79111   0.83844   0.84228

 Mulliken charges:
               1
     1  O   -0.628808
     2  H    0.299422
     3  H    0.234081
     4  O   -0.402109
     5  H    0.260660
     6  H    0.236755
 Sum of Mulliken charges =  -0.00000

 Dipole moment (field-independent basis, Debye):
    X=              0.7501    Y=             -4.2230    Z=              0.0000  Tot=              4.2891
 Quadrupole moment (field-independent basis, Debye-Ang):
   XX=             -9.3044   YY=             -9.5245   ZZ=            -14.6497
   XY=              3.1376   XZ=              0.0000   YZ=              0.0000

 Normal termination of Gaussian 16 at Fri Aug 26 18:09:04 2022.
