 Gaussian 16, Revision A.03,
 Gaussian 16:  ES64L-G16RevA.03 25-Dec-2016

 ------------------
 #p CCSD(T)/cc-pVTZ
 ------------------

 ------------
 H2O_H2O_2751
 ------------
 Symbolic Z-matrix:
 Charge =  0 Multiplicity = 1

                         Standard orientation:
 ---------------------------------------------------------------------
 Center     Atomic      Atomic             Coordinates (Angstroms)
 Number     Number       Type             X           Y           Z
 ---------------------------------------------------------------------
      1          8           0        0.090685   -2.187000    0.000000
      2          1           0        0.090594   -1.204398    0.000000
      3          1           0       -0.838778   -2.505752    0.000000
      4          8           0        0.090685    2.048293    0.000000
      5          1           0        0.154859    3.028796    0.000000
      6          1           0       -0.857637    1.791012    0.000000
 ---------------------------------------------------------------------

 SCF Done:  E(RHF) =  -152.108441651     A.U. after   10 cycles
 E2 =    -0.5261601838D+00 EUMP2 =    -0.15263460183477D+03
 CCSD(T)
 CCSD(T)= -0.15266177034D+03

 The electronic state is 1-A'.
 Alpha  occ. eigenvalues --  -20.56776 -20.55007  -1.34067  -1.32310  -0.71509
 Alpha  occ. eigenvalues --   -0.69682  -0.57545  -0.55761  -0.51176  -0.49425
 Alpha virt. eigenvalues --    0.11555   0.15738   0.19581   0.23556   0.54147
 Alpha virt. eigenvalues --    0.55064   0.56478   0.58080   0.68466   0.69504
 Alpha virt. eigenvalues --    0.77646   0.78602   0.79471   0.80730   0.82866

 Mulliken charges:
               1
     1  O   -0.512114
     2  H    0.261615
     3  H    0.248372
     4  O   -0.506946
     5  H    0.259557
     6  H    0.249516
 Sum of Mulliken charges =  -0.00000

 Dipole moment (field-independent basis, Debye):
    X=             -3.0821    Y=              2.5071    Z=              0.0000  Tot=              3.9730
 Quadrupole moment (field-independent basis, Debye-Ang):
   XX=            -10.7174   YY=             -8.9332   ZZ=            -14.7138
   XY=              2.3550   XZ=              0.0000   YZ=              0.0000

 Normal termination of Gaussian 16 at Fri Aug 26 17:02:43 2022.
