 Gaussian 16, Revision A.03,
 Gaussian 16:  ES64L-G16RevA.03 25-Dec-2016

 ------------------
 #p CCSD(T)/cc-pVTZ
 ------------------

 ------------
 H2O_H2O_4016
 ------------
 Symbolic Z-matrix:
 Charge =  0 Multiplicity = 1

                         Standard orientation:
 ---------------------------------------------------------------------
 Center     Atomic      Atomic             Coordinates (Angstroms)
 Number     Number       Type             X           Y           Z
 ---------------------------------------------------------------------
      1          8           0        0.041117    2.708000    0.000000
      2          1           0        0.039437    1.725401    0.000000
      3          1           0       -0.887830    3.028255    0.000000
      4          8           0        0.041117   -2.528054    0.000000
      5          1           0        0.891233   -3.020809    0.000000
      6          1           0       -0.700706   -3.172418    0.000000
 ---------------------------------------------------------------------

 SCF Done:  E(RHF) =  -152.108766954     A.U. after   10 cycles
 E2 =    -0.5258155676D+00 EUMP2 =    -0.15263458252148D+03
 CCSD(T)
 CCSD(T)= -0.15266176772D+03

 The electronic state is 1-A'.
 Alpha  occ. eigenvalues --  -20.56286 -20.54818  -1.33584  -1.32129  -0.70987
 Alpha  occ. eigenvalues --   -0.69529  -0.57091  -0.55606  -0.50706  -0.49255
 Alpha virt. eigenvalues --    0.13097   0.15196   0.19636   0.21322   0.53550
 Alpha virt. eigenvalues --    0.54926   0.56596   0.57833   0.66677   0.69087
 Alpha virt. eigenvalues --    0.78188   0.79414   0.79593   0.79748   0.82882

 Mulliken charges:
               1
     1  O   -0.515330
     2  H    0.261599
     3  H    0.253282
     4  O   -0.515708
     5  H    0.258843
     6  H    0.257314
 Sum of Mulliken charges =  -0.00000

 Dipole moment (field-independent basis, Debye):
    X=             -1.4083    Y=             -3.1756    Z=             -0.0000  Tot=              3.4739
 Quadrupole moment (field-independent basis, Debye-Ang):
   XX=             -9.1492   YY=             -6.5524   ZZ=            -14.7161
   XY=             -5.6613   XZ=             -0.0000   YZ=             -0.0000

 Normal termination of Gaussian 16 at Sat Aug 27 01:00:59 2022.
