 Gaussian 16, Revision A.03,
 Gaussian 16:  ES64L-G16RevA.03 25-Dec-2016

 ------------------
 #p CCSD(T)/cc-pVTZ
 ------------------

 ------------
 H2O_H2O_2269
 ------------
 Symbolic Z-matrix:
 Charge =  0 Multiplicity = 1

                         Standard orientation:
 ---------------------------------------------------------------------
 Center     Atomic      Atomic             Coordinates (Angstroms)
 Number     Number       Type             X           Y           Z
 ---------------------------------------------------------------------
      1          8           0        0.030226    2.007600    0.000000
      2          1           0        0.027452    1.025002    0.000000
      3          1           0       -0.898363    2.328889    0.000000
      4          8           0        0.030226   -1.832018    0.000000
      5          1           0        0.959786   -2.150491    0.000000
      6          1           0       -0.572499   -2.608052    0.000000
 ---------------------------------------------------------------------

 SCF Done:  E(RHF) =  -152.111594324     A.U. after   10 cycles
 E2 =    -0.5261935883D+00 EUMP2 =    -0.15263778791262D+03
 CCSD(T)
 CCSD(T)= -0.15266487577D+03

 The electronic state is 1-A'.
 Alpha  occ. eigenvalues --  -20.57102 -20.53991  -1.34362  -1.31334  -0.71757
 Alpha  occ. eigenvalues --   -0.68747  -0.58000  -0.54816  -0.51500  -0.48485
 Alpha virt. eigenvalues --    0.12292   0.16710   0.19231   0.25099   0.52725
 Alpha virt. eigenvalues --    0.55245   0.56403   0.58747   0.69007   0.71735
 Alpha virt. eigenvalues --    0.76951   0.78469   0.80394   0.82814   0.83605

 Mulliken charges:
               1
     1  O   -0.527212
     2  H    0.267209
     3  H    0.251985
     4  O   -0.510616
     5  H    0.260894
     6  H    0.257740
 Sum of Mulliken charges =  -0.00000

 Dipole moment (field-independent basis, Debye):
    X=             -1.0271    Y=             -3.2529    Z=             -0.0000  Tot=              3.4113
 Quadrupole moment (field-independent basis, Debye-Ang):
   XX=             -9.2301   YY=             -7.7907   ZZ=            -14.7256
   XY=             -4.7391   XZ=             -0.0000   YZ=             -0.0000

 Normal termination of Gaussian 16 at Sun Aug 28 05:53:36 2022.
