 Gaussian 16, Revision A.03,
 Gaussian 16:  ES64L-G16RevA.03 25-Dec-2016

 ------------------
 #p CCSD(T)/cc-pVTZ
 ------------------

 ------------
 H2O_H2O_2639
 ------------
 Symbolic Z-matrix:
 Charge =  0 Multiplicity = 1

                         Standard orientation:
 ---------------------------------------------------------------------
 Center     Atomic      Atomic             Coordinates (Angstroms)
 Number     Number       Type             X           Y           Z
 ---------------------------------------------------------------------
      1          8           0        0.048597    2.159777   -0.000000
      2          1           0        0.046777    1.177177   -0.000000
      3          1           0       -0.880304    2.480164   -0.000000
      4          8           0        0.048597   -1.979404    0.000000
      5          1           0        0.827039   -2.579016    0.000000
      6          1           0       -0.771062   -2.521312    0.000000
 ---------------------------------------------------------------------

 SCF Done:  E(RHF) =  -152.110580623     A.U. after   10 cycles
 E2 =    -0.5260434185D+00 EUMP2 =    -0.15263662404176D+03
 CCSD(T)
 CCSD(T)= -0.15266374149D+03

 The electronic state is 1-A'.
 Alpha  occ. eigenvalues --  -20.56856 -20.54218  -1.34122  -1.31547  -0.71518
 Alpha  occ. eigenvalues --   -0.68940  -0.57699  -0.55034  -0.51256  -0.48688
 Alpha virt. eigenvalues --    0.12378   0.16294   0.19367   0.23666   0.52832
 Alpha virt. eigenvalues --    0.55611   0.56276   0.58947   0.69057   0.70030
 Alpha virt. eigenvalues --    0.77544   0.78867   0.80145   0.80164   0.83542

 Mulliken charges:
               1
     1  O   -0.521828
     2  H    0.266025
     3  H    0.250710
     4  O   -0.512065
     5  H    0.260420
     6  H    0.256737
 Sum of Mulliken charges =  -0.00000

 Dipole moment (field-independent basis, Debye):
    X=             -1.6529    Y=             -3.2892    Z=              0.0000  Tot=              3.6812
 Quadrupole moment (field-independent basis, Debye-Ang):
   XX=             -9.1837   YY=             -7.4210   ZZ=            -14.7220
   XY=             -4.4259   XZ=              0.0000   YZ=              0.0000

 Normal termination of Gaussian 16 at Fri Aug 26 16:13:39 2022.
