 Gaussian 16, Revision A.03,
 Gaussian 16:  ES64L-G16RevA.03 25-Dec-2016

 ------------------
 #p CCSD(T)/cc-pVTZ
 ------------------

 -----------
 H2O_H2O_731
 -----------
 Symbolic Z-matrix:
 Charge =  0 Multiplicity = 1

                         Standard orientation:
 ---------------------------------------------------------------------
 Center     Atomic      Atomic             Coordinates (Angstroms)
 Number     Number       Type             X           Y           Z
 ---------------------------------------------------------------------
      1          8           0        0.076795   -1.392548    0.000000
      2          1           0        0.075747   -0.409947    0.000000
      3          1           0       -0.852358   -1.712206    0.000000
      4          8           0        0.076795    1.229409    0.000000
      5          1           0        0.451851    2.137615    0.000000
      6          1           0       -0.903958    1.289654    0.000000
 ---------------------------------------------------------------------

 SCF Done:  E(RHF) =  -152.106043945     A.U. after   10 cycles
 E2 =    -0.5306334604D+00 EUMP2 =    -0.15263667740541D+03
 CCSD(T)
 CCSD(T)= -0.15266336888D+03

 The electronic state is 1-A'.
 Alpha  occ. eigenvalues --  -20.59441 -20.51237  -1.37395  -1.29128  -0.75127
 Alpha  occ. eigenvalues --   -0.68617  -0.59565  -0.54207  -0.51909  -0.46156
 Alpha virt. eigenvalues --    0.11396   0.16878   0.20089   0.32505   0.48197
 Alpha virt. eigenvalues --    0.53697   0.59095   0.61815   0.70064   0.72134
 Alpha virt. eigenvalues --    0.74177   0.77645   0.80215   0.83279   0.83896

 Mulliken charges:
               1
     1  O   -0.570604
     2  H    0.298466
     3  H    0.226309
     4  O   -0.434979
     5  H    0.239486
     6  H    0.241322
 Sum of Mulliken charges =   0.00000

 Dipole moment (field-independent basis, Debye):
    X=             -2.4921    Y=              3.6493    Z=              0.0000  Tot=              4.4190
 Quadrupole moment (field-independent basis, Debye-Ang):
   XX=             -9.9835   YY=             -9.0813   ZZ=            -14.6868
   XY=              2.7901   XZ=              0.0000   YZ=              0.0000

 Normal termination of Gaussian 16 at Fri Aug 26 20:09:43 2022.
