 Gaussian 16, Revision A.03,
 Gaussian 16:  ES64L-G16RevA.03 25-Dec-2016

 ------------------
 #p CCSD(T)/cc-pVTZ
 ------------------

 ------------
 H2O_H2O_4146
 ------------
 Symbolic Z-matrix:
 Charge =  0 Multiplicity = 1

                         Standard orientation:
 ---------------------------------------------------------------------
 Center     Atomic      Atomic             Coordinates (Angstroms)
 Number     Number       Type             X           Y           Z
 ---------------------------------------------------------------------
      1          8           0       -0.023175    2.752680    0.000000
      2          1           0       -0.020956    1.770081    0.000000
      3          1           0        0.905596    3.073444    0.000000
      4          8           0       -0.023175   -2.582275    0.000000
      5          1           0       -0.986462   -2.776146    0.000000
      6          1           0        0.472621   -3.430622    0.000000
 ---------------------------------------------------------------------

 SCF Done:  E(RHF) =  -152.108675403     A.U. after   10 cycles
 E2 =    -0.5258044686D+00 EUMP2 =    -0.15263447987192D+03
 CCSD(T)
 CCSD(T)= -0.15266166941D+03

 The electronic state is 1-A'.
 Alpha  occ. eigenvalues --  -20.56250 -20.54928  -1.33551  -1.32238  -0.70955
 Alpha  occ. eigenvalues --   -0.69643  -0.57053  -0.55715  -0.50671  -0.49364
 Alpha virt. eigenvalues --    0.13078   0.15105   0.19490   0.21391   0.53400
 Alpha virt. eigenvalues --    0.55008   0.56630   0.57825   0.66697   0.68936
 Alpha virt. eigenvalues --    0.78219   0.79220   0.79488   0.80426   0.82759

 Mulliken charges:
               1
     1  O   -0.515272
     2  H    0.260588
     3  H    0.254385
     4  O   -0.515684
     5  H    0.257856
     6  H    0.258127
 Sum of Mulliken charges =  -0.00000

 Dipole moment (field-independent basis, Debye):
    X=              0.7952    Y=             -3.0010    Z=              0.0000  Tot=              3.1045
 Quadrupole moment (field-independent basis, Debye-Ang):
   XX=             -9.3617   YY=             -6.9711   ZZ=            -14.7157
   XY=              6.7828   XZ=              0.0000   YZ=              0.0000

 Normal termination of Gaussian 16 at Sun Aug 28 00:07:55 2022.
