 Gaussian 16, Revision A.03,
 Gaussian 16:  ES64L-G16RevA.03 25-Dec-2016

 ------------------
 #p CCSD(T)/cc-pVTZ
 ------------------

 ------------
 H2O_H2O_2379
 ------------
 Symbolic Z-matrix:
 Charge =  0 Multiplicity = 1

                         Standard orientation:
 ---------------------------------------------------------------------
 Center     Atomic      Atomic             Coordinates (Angstroms)
 Number     Number       Type             X           Y           Z
 ---------------------------------------------------------------------
      1          8           0        0.082808   -2.046004    0.000000
      2          1           0        0.082371   -1.063403    0.000000
      3          1           0       -0.846543   -2.365084    0.000000
      4          8           0        0.082808    1.891496    0.000000
      5          1           0        0.336702    2.840730    0.000000
      6          1           0       -0.897460    1.823821    0.000000
 ---------------------------------------------------------------------

 SCF Done:  E(RHF) =  -152.109616265     A.U. after   10 cycles
 E2 =    -0.5262988097D+00 EUMP2 =    -0.15263591507455D+03
 CCSD(T)
 CCSD(T)= -0.15266304337D+03

 The electronic state is 1-A'.
 Alpha  occ. eigenvalues --  -20.57017 -20.54572  -1.34296  -1.31888  -0.71736
 Alpha  occ. eigenvalues --   -0.69257  -0.57824  -0.55344  -0.51412  -0.49013
 Alpha virt. eigenvalues --    0.11793   0.16128   0.19625   0.24302   0.53233
 Alpha virt. eigenvalues --    0.55639   0.56382   0.58044   0.68668   0.71387
 Alpha virt. eigenvalues --    0.77153   0.79308   0.79910   0.80924   0.83282

 Mulliken charges:
               1
     1  O   -0.516824
     2  H    0.264785
     3  H    0.247026
     4  O   -0.505628
     5  H    0.259284
     6  H    0.251356
 Sum of Mulliken charges =  -0.00000

 Dipole moment (field-independent basis, Debye):
    X=             -2.8068    Y=              2.8378    Z=              0.0000  Tot=              3.9914
 Quadrupole moment (field-independent basis, Debye-Ang):
   XX=            -10.2657   YY=             -8.3717   ZZ=            -14.7180
   XY=              2.8933   XZ=              0.0000   YZ=              0.0000

 Normal termination of Gaussian 16 at Sun Aug 28 06:47:09 2022.
