 Gaussian 16, Revision A.03,
 Gaussian 16:  ES64L-G16RevA.03 25-Dec-2016

 ------------------
 #p CCSD(T)/cc-pVTZ
 ------------------

 ------------
 H2O_H2O_1320
 ------------
 Symbolic Z-matrix:
 Charge =  0 Multiplicity = 1

                         Standard orientation:
 ---------------------------------------------------------------------
 Center     Atomic      Atomic             Coordinates (Angstroms)
 Number     Number       Type             X           Y           Z
 ---------------------------------------------------------------------
      1          8           0        0.026759    1.627357    0.000000
      2          1           0        0.023108    0.644762    0.000000
      3          1           0       -0.901543    1.949475    0.000000
      4          8           0        0.026759   -1.454195   -0.000000
      5          1           0        0.974928   -1.712036    0.000000
      6          1           0       -0.524645   -2.267496   -0.000000
 ---------------------------------------------------------------------

 SCF Done:  E(RHF) =  -152.113979613     A.U. after   10 cycles
 E2 =    -0.5275093163D+00 EUMP2 =    -0.15264148892937D+03
 CCSD(T)
 CCSD(T)= -0.15266845022D+03

 The electronic state is 1-A'.
 Alpha  occ. eigenvalues --  -20.58190 -20.52654  -1.35540  -1.30159  -0.72925
 Alpha  occ. eigenvalues --   -0.67966  -0.59370  -0.53411  -0.52648  -0.47308
 Alpha virt. eigenvalues --    0.12086   0.17951   0.18863   0.30106   0.49877
 Alpha virt. eigenvalues --    0.54445   0.55837   0.61135   0.68684   0.72954
 Alpha virt. eigenvalues --    0.73573   0.77049   0.81824   0.82704   0.84566

 Mulliken charges:
               1
     1  O   -0.552128
     2  H    0.281936
     3  H    0.249217
     4  O   -0.498714
     5  H    0.264939
     6  H    0.254751
 Sum of Mulliken charges =  -0.00000

 Dipole moment (field-independent basis, Debye):
    X=             -0.8987    Y=             -3.4725    Z=             -0.0000  Tot=              3.5869
 Quadrupole moment (field-independent basis, Debye-Ang):
   XX=             -9.2861   YY=             -8.4995   ZZ=            -14.7326
   XY=             -3.9764   XZ=             -0.0000   YZ=             -0.0000

 Normal termination of Gaussian 16 at Fri Aug 26 23:50:03 2022.
