 Gaussian 16, Revision A.03,
 Gaussian 16:  ES64L-G16RevA.03 25-Dec-2016

 ------------------
 #p CCSD(T)/cc-pVTZ
 ------------------

 ------------
 H2O_H2O_2403
 ------------
 Symbolic Z-matrix:
 Charge =  0 Multiplicity = 1

                         Standard orientation:
 ---------------------------------------------------------------------
 Center     Atomic      Atomic             Coordinates (Angstroms)
 Number     Number       Type             X           Y           Z
 ---------------------------------------------------------------------
      1          8           0        0.085604   -2.053304    0.000000
      2          1           0        0.085289   -1.070703    0.000000
      3          1           0       -0.843787   -2.372269    0.000000
      4          8           0        0.085604    1.903714    0.000000
      5          1           0        0.276990    2.867498    0.000000
      6          1           0       -0.888157    1.772193    0.000000
 ---------------------------------------------------------------------

 SCF Done:  E(RHF) =  -152.109326283     A.U. after   10 cycles
 E2 =    -0.5263036917D+00 EUMP2 =    -0.15263562997428D+03
 CCSD(T)
 CCSD(T)= -0.15266276591D+03

 The electronic state is 1-A'.
 Alpha  occ. eigenvalues --  -20.56996 -20.54681  -1.34279  -1.31994  -0.71726
 Alpha  occ. eigenvalues --   -0.69359  -0.57792  -0.55446  -0.51391  -0.49116
 Alpha virt. eigenvalues --    0.11709   0.16053   0.19687   0.24232   0.53345
 Alpha virt. eigenvalues --    0.55630   0.56468   0.57938   0.68600   0.71337
 Alpha virt. eigenvalues --    0.77190   0.79375   0.79816   0.80542   0.83266

 Mulliken charges:
               1
     1  O   -0.515665
     2  H    0.264240
     3  H    0.247004
     4  O   -0.505218
     5  H    0.259207
     6  H    0.250432
 Sum of Mulliken charges =  -0.00000

 Dipole moment (field-independent basis, Debye):
    X=             -2.9015    Y=              2.7427    Z=              0.0000  Tot=              3.9926
 Quadrupole moment (field-independent basis, Debye-Ang):
   XX=            -10.4196   YY=             -8.5367   ZZ=            -14.7169
   XY=              2.7184   XZ=              0.0000   YZ=              0.0000

 Normal termination of Gaussian 16 at Sun Aug 28 07:02:23 2022.
