 Gaussian 16, Revision A.03,
 Gaussian 16:  ES64L-G16RevA.03 25-Dec-2016

 ------------------
 #p CCSD(T)/cc-pVTZ
 ------------------

 ------------
 H2O_H2O_2979
 ------------
 Symbolic Z-matrix:
 Charge =  0 Multiplicity = 1

                         Standard orientation:
 ---------------------------------------------------------------------
 Center     Atomic      Atomic             Coordinates (Angstroms)
 Number     Number       Type             X           Y           Z
 ---------------------------------------------------------------------
      1          8           0        0.082804   -2.285334    0.000000
      2          1           0        0.082414   -1.302733    0.000000
      3          1           0       -0.846562   -2.604370    0.000000
      4          8           0        0.082804    2.130818    0.000000
      5          1           0        0.336744    3.080039    0.000000
      6          1           0       -0.897468    2.063191    0.000000
 ---------------------------------------------------------------------

 SCF Done:  E(RHF) =  -152.108808052     A.U. after   10 cycles
 E2 =    -0.5260359784D+00 EUMP2 =    -0.15263484403010D+03
 CCSD(T)
 CCSD(T)= -0.15266200820D+03

 The electronic state is 1-A'.
 Alpha  occ. eigenvalues --  -20.56663 -20.54827  -1.33951  -1.32137  -0.71374
 Alpha  occ. eigenvalues --   -0.69518  -0.57447  -0.55600  -0.51067  -0.49258
 Alpha virt. eigenvalues --    0.11943   0.15714   0.19423   0.22850   0.54051
 Alpha virt. eigenvalues --    0.54931   0.56391   0.58325   0.68086   0.69206
 Alpha virt. eigenvalues --    0.77819   0.78688   0.79602   0.80754   0.82825

 Mulliken charges:
               1
     1  O   -0.513687
     2  H    0.262104
     3  H    0.249399
     4  O   -0.510116
     5  H    0.259790
     6  H    0.252510
 Sum of Mulliken charges =  -0.00000

 Dipole moment (field-independent basis, Debye):
    X=             -2.8204    Y=              2.7789    Z=              0.0000  Tot=              3.9594
 Quadrupole moment (field-independent basis, Debye-Ang):
   XX=            -10.2555   YY=             -8.2105   ZZ=            -14.7157
   XY=              2.9808   XZ=              0.0000   YZ=              0.0000

 Normal termination of Gaussian 16 at Fri Aug 26 18:57:06 2022.
