 Gaussian 16, Revision A.03,
 Gaussian 16:  ES64L-G16RevA.03 25-Dec-2016

 ------------------
 #p CCSD(T)/cc-pVTZ
 ------------------

 ------------
 H2O_H2O_2601
 ------------
 Symbolic Z-matrix:
 Charge =  0 Multiplicity = 1

                         Standard orientation:
 ---------------------------------------------------------------------
 Center     Atomic      Atomic             Coordinates (Angstroms)
 Number     Number       Type             X           Y           Z
 ---------------------------------------------------------------------
      1          8           0        0.090685   -2.127168    0.000000
      2          1           0        0.090592   -1.144566    0.000000
      3          1           0       -0.838777   -2.445923    0.000000
      4          8           0        0.090685    1.988461    0.000000
      5          1           0        0.154857    2.968966    0.000000
      6          1           0       -0.857635    1.731179    0.000000
 ---------------------------------------------------------------------

 SCF Done:  E(RHF) =  -152.108577490     A.U. after   10 cycles
 E2 =    -0.5262307286D+00 EUMP2 =    -0.15263480821902D+03
 CCSD(T)
 CCSD(T)= -0.15266196917D+03

 The electronic state is 1-A'.
 Alpha  occ. eigenvalues --  -20.56862 -20.54963  -1.34152  -1.32267  -0.71602
 Alpha  occ. eigenvalues --   -0.69632  -0.57633  -0.55715  -0.51259  -0.49382
 Alpha virt. eigenvalues --    0.11533   0.15825   0.19695   0.23845   0.53849
 Alpha virt. eigenvalues --    0.55407   0.56496   0.57969   0.68468   0.70257
 Alpha virt. eigenvalues --    0.77481   0.78796   0.79536   0.80460   0.83044

 Mulliken charges:
               1
     1  O   -0.512699
     2  H    0.262335
     3  H    0.247753
     4  O   -0.505752
     5  H    0.259405
     6  H    0.248958
 Sum of Mulliken charges =  -0.00000

 Dipole moment (field-independent basis, Debye):
    X=             -3.0781    Y=              2.5197    Z=              0.0000  Tot=              3.9778
 Quadrupole moment (field-independent basis, Debye-Ang):
   XX=            -10.7204   YY=             -8.9369   ZZ=            -14.7141
   XY=              2.3489   XZ=              0.0000   YZ=              0.0000

 CCSD(T)=-152.6619692\RMSD=7.139e-09\PG=CS [SG(H4O2)]\\@
 Normal termination of Gaussian 16 at Fri Aug 26 15:55:12 2022.
