 Gaussian 16, Revision A.03,
 Gaussian 16:  ES64L-G16RevA.03 25-Dec-2016

 ------------------
 #p CCSD(T)/cc-pVTZ
 ------------------

 ------------
 H2O_H2O_1886
 ------------
 Symbolic Z-matrix:
 Charge =  0 Multiplicity = 1

                         Standard orientation:
 ---------------------------------------------------------------------
 Center     Atomic      Atomic             Coordinates (Angstroms)
 Number     Number       Type             X           Y           Z
 ---------------------------------------------------------------------
      1          8           0        0.059672    1.859006   -0.000000
      2          1           0        0.058075    0.876406   -0.000000
      3          1           0       -0.869302    2.179182   -0.000000
      4          8           0        0.059672   -1.681603    0.000000
      5          1           0        0.706346   -2.421413    0.000000
      6          1           0       -0.849874   -2.053396    0.000000
 ---------------------------------------------------------------------

 SCF Done:  E(RHF) =  -152.112311252     A.U. after   10 cycles
 E2 =    -0.5265855623D+00 EUMP2 =    -0.15263889681444D+03
 CCSD(T)
 CCSD(T)= -0.15266595371D+03

 The electronic state is 1-A'.
 Alpha  occ. eigenvalues --  -20.57479 -20.53628  -1.34735  -1.30995  -0.72123
 Alpha  occ. eigenvalues --   -0.68433  -0.58433  -0.54431  -0.51869  -0.48142
 Alpha virt. eigenvalues --    0.12094   0.16977   0.19222   0.26703   0.51055
 Alpha virt. eigenvalues --    0.55208   0.56275   0.58869   0.69068   0.72500
 Alpha virt. eigenvalues --    0.75848   0.77485   0.80823   0.83321   0.84207

 Mulliken charges:
               1
     1  O   -0.529100
     2  H    0.270389
     3  H    0.246493
     4  O   -0.506189
     5  H    0.262339
     6  H    0.256068
 Sum of Mulliken charges =  -0.00000

 Dipole moment (field-independent basis, Debye):
    X=             -2.0132    Y=             -3.3628    Z=              0.0000  Tot=              3.9193
 Quadrupole moment (field-independent basis, Debye-Ang):
   XX=             -9.3739   YY=             -8.0065   ZZ=            -14.7291
   XY=             -3.6870   XZ=              0.0000   YZ=             -0.0000

 Normal termination of Gaussian 16 at Sun Aug 28 02:26:00 2022.
