 Gaussian 16, Revision A.03,
 Gaussian 16:  ES64L-G16RevA.03 25-Dec-2016

 ------------------
 #p CCSD(T)/cc-pVTZ
 ------------------

 -----------
 H2O_H2O_743
 -----------
 Symbolic Z-matrix:
 Charge =  0 Multiplicity = 1

                         Standard orientation:
 ---------------------------------------------------------------------
 Center     Atomic      Atomic             Coordinates (Angstroms)
 Number     Number       Type             X           Y           Z
 ---------------------------------------------------------------------
      1          8           0        0.033936    1.400313   -0.000000
      2          1           0        0.030108    0.417719   -0.000000
      3          1           0       -0.894309    1.722598    0.000000
      4          8           0        0.033936   -1.222900   -0.000000
      5          1           0        0.940270   -1.602460   -0.000000
      6          1           0       -0.619041   -1.957153    0.000000
 ---------------------------------------------------------------------

 SCF Done:  E(RHF) =  -152.109451612     A.U. after   10 cycles
 E2 =    -0.5299453105D+00 EUMP2 =    -0.15263939692270D+03
 CCSD(T)
 CCSD(T)= -0.15266604522D+03

 The electronic state is 1-A'.
 Alpha  occ. eigenvalues --  -20.59457 -20.50335  -1.37326  -1.28352  -0.74442
 Alpha  occ. eigenvalues --   -0.68986  -0.59585  -0.54232  -0.50952  -0.45406
 Alpha virt. eigenvalues --    0.11654   0.18203   0.19119   0.33215   0.47856
 Alpha virt. eigenvalues --    0.54255   0.58064   0.64327   0.68616   0.72403
 Alpha virt. eigenvalues --    0.72616   0.77872   0.81422   0.83251   0.84294

 Mulliken charges:
               1
     1  O   -0.593935
     2  H    0.306607
     3  H    0.238621
     4  O   -0.466291
     5  H    0.264019
     6  H    0.250979
 Sum of Mulliken charges =   0.00000

 Dipole moment (field-independent basis, Debye):
    X=             -1.1085    Y=             -3.9700    Z=              0.0000  Tot=              4.1218
 Quadrupole moment (field-independent basis, Debye-Ang):
   XX=             -9.1661   YY=             -9.0884   ZZ=            -14.7050
   XY=             -3.3348   XZ=             -0.0000   YZ=              0.0000

 Normal termination of Gaussian 16 at Fri Aug 26 20:14:06 2022.
