 Gaussian 16, Revision A.03,
 Gaussian 16:  ES64L-G16RevA.03 25-Dec-2016

 ------------------
 #p CCSD(T)/cc-pVTZ
 ------------------

 ------------
 H2O_H2O_1989
 ------------
 Symbolic Z-matrix:
 Charge =  0 Multiplicity = 1

                         Standard orientation:
 ---------------------------------------------------------------------
 Center     Atomic      Atomic             Coordinates (Angstroms)
 Number     Number       Type             X           Y           Z
 ---------------------------------------------------------------------
      1          8           0        0.048621    1.900495   -0.000000
      2          1           0        0.046541    0.917895   -0.000000
      3          1           0       -0.880195    2.221128   -0.000000
      4          8           0        0.048621   -1.720147    0.000000
      5          1           0        0.826904   -2.319966    0.000000
      6          1           0       -0.771183   -2.261837    0.000000
 ---------------------------------------------------------------------

 SCF Done:  E(RHF) =  -152.112359236     A.U. after   10 cycles
 E2 =    -0.5264368187D+00 EUMP2 =    -0.15263879605469D+03
 CCSD(T)
 CCSD(T)= -0.15266585818D+03

 The electronic state is 1-A'.
 Alpha  occ. eigenvalues --  -20.57374 -20.53653  -1.34625  -1.31015  -0.72005
 Alpha  occ. eigenvalues --   -0.68448  -0.58322  -0.54470  -0.51764  -0.48167
 Alpha virt. eigenvalues --    0.12204   0.17002   0.19164   0.26307   0.51502
 Alpha virt. eigenvalues --    0.55056   0.56395   0.58994   0.69056   0.72339
 Alpha virt. eigenvalues --    0.76204   0.77505   0.80757   0.83420   0.84296

 Mulliken charges:
               1
     1  O   -0.529662
     2  H    0.269711
     3  H    0.248499
     4  O   -0.507913
     5  H    0.262199
     6  H    0.257165
 Sum of Mulliken charges =  -0.00000

 Dipole moment (field-independent basis, Debye):
    X=             -1.6434    Y=             -3.3972    Z=              0.0000  Tot=              3.7738
 Quadrupole moment (field-independent basis, Debye-Ang):
   XX=             -9.1870   YY=             -7.8760   ZZ=            -14.7291
   XY=             -4.0247   XZ=              0.0000   YZ=              0.0000

 5247\MP4DQ=-152.6476728\MP4SDQ=-152.6507544\CCSD=-152.6501457\CCSD(T)=
 Normal termination of Gaussian 16 at Sun Aug 28 03:21:56 2022.
