 Gaussian 16, Revision A.03,
 Gaussian 16:  ES64L-G16RevA.03 25-Dec-2016

 ------------------
 #p CCSD(T)/cc-pVTZ
 ------------------

 ------------
 H2O_H2O_3139
 ------------
 Symbolic Z-matrix:
 Charge =  0 Multiplicity = 1

                         Standard orientation:
 ---------------------------------------------------------------------
 Center     Atomic      Atomic             Coordinates (Angstroms)
 Number     Number       Type             X           Y           Z
 ---------------------------------------------------------------------
      1          8           0        0.048582    2.359224   -0.000000
      2          1           0        0.046922    1.376624   -0.000000
      3          1           0       -0.880371    2.679460   -0.000000
      4          8           0        0.048582   -2.178835    0.000000
      5          1           0        0.827120   -2.778320    0.000000
      6          1           0       -0.770990   -2.720875    0.000000
 ---------------------------------------------------------------------

 SCF Done:  E(RHF) =  -152.109662909     A.U. after   10 cycles
 E2 =    -0.5259126797D+00 EUMP2 =    -0.15263557558851D+03
 CCSD(T)
 CCSD(T)= -0.15266272499D+03

 The electronic state is 1-A'.
 Alpha  occ. eigenvalues --  -20.56587 -20.54498  -1.33869  -1.31816  -0.71269
 Alpha  occ. eigenvalues --   -0.69210  -0.57405  -0.55302  -0.50997  -0.48950
 Alpha virt. eigenvalues --    0.12570   0.15825   0.19490   0.22386   0.53253
 Alpha virt. eigenvalues --    0.55338   0.56386   0.58402   0.67845   0.69348
 Alpha virt. eigenvalues --    0.77906   0.79112   0.79292   0.79880   0.83192

 Mulliken charges:
               1
     1  O   -0.518276
     2  H    0.264026
     3  H    0.251808
     4  O   -0.514640
     5  H    0.260059
     6  H    0.257022
 Sum of Mulliken charges =  -0.00000

 Dipole moment (field-independent basis, Debye):
    X=             -1.6575    Y=             -3.2375    Z=              0.0000  Tot=              3.6371
 Quadrupole moment (field-independent basis, Debye-Ang):
   XX=             -9.1828   YY=             -7.0942   ZZ=            -14.7192
   XY=             -4.7330   XZ=              0.0000   YZ=             -0.0000

 Normal termination of Gaussian 16 at Fri Aug 26 19:59:20 2022.
