 Gaussian 16, Revision A.03,
 Gaussian 16:  ES64L-G16RevA.03 25-Dec-2016

 ------------------
 #p CCSD(T)/cc-pVTZ
 ------------------

 -----------
 H2O_H2O_526
 -----------
 Symbolic Z-matrix:
 Charge =  0 Multiplicity = 1

                         Standard orientation:
 ---------------------------------------------------------------------
 Center     Atomic      Atomic             Coordinates (Angstroms)
 Number     Number       Type             X           Y           Z
 ---------------------------------------------------------------------
      1          8           0        0.090690   -1.299492    0.000000
      2          1           0        0.090533   -0.316891    0.000000
      3          1           0       -0.838753   -1.618306    0.000000
      4          8           0        0.090690    1.160797    0.000000
      5          1           0        0.154800    2.141304    0.000000
      6          1           0       -0.857614    0.903453    0.000000
 ---------------------------------------------------------------------

 SCF Done:  E(RHF) =  -152.090918761     A.U. after   11 cycles
 E2 =    -0.5332007256D+00 EUMP2 =    -0.15262411948669D+03
 CCSD(T)
 CCSD(T)= -0.15265065181D+03

 The electronic state is 1-A'.
 Alpha  occ. eigenvalues --  -20.59929 -20.51310  -1.38748  -1.29370  -0.77875
 Alpha  occ. eigenvalues --   -0.68080  -0.59534  -0.55003  -0.52054  -0.46338
 Alpha virt. eigenvalues --    0.11233   0.16371   0.21023   0.32289   0.48560
 Alpha virt. eigenvalues --    0.51899   0.59012   0.64985   0.70699   0.71288
 Alpha virt. eigenvalues --    0.73941   0.77698   0.78681   0.82721   0.83685

 Mulliken charges:
               1
     1  O   -0.563098
     2  H    0.285406
     3  H    0.214752
     4  O   -0.396202
     5  H    0.230571
     6  H    0.228571
 Sum of Mulliken charges =   0.00000

 Dipole moment (field-independent basis, Debye):
    X=             -2.9170    Y=              3.3406    Z=              0.0000  Tot=              4.4349
 Quadrupole moment (field-independent basis, Debye-Ang):
   XX=            -10.7346   YY=             -9.4255   ZZ=            -14.6354
   XY=              2.1584   XZ=              0.0000   YZ=              0.0000

 Normal termination of Gaussian 16 at Fri Aug 26 18:50:32 2022.
