 Gaussian 16, Revision A.03,
 Gaussian 16:  ES64L-G16RevA.03 25-Dec-2016

 ------------------
 #p CCSD(T)/cc-pVTZ
 ------------------

 ------------
 H2O_H2O_2312
 ------------
 Symbolic Z-matrix:
 Charge =  0 Multiplicity = 1

                         Standard orientation:
 ---------------------------------------------------------------------
 Center     Atomic      Atomic             Coordinates (Angstroms)
 Number     Number       Type             X           Y           Z
 ---------------------------------------------------------------------
      1          8           0        0.056011    2.029331    0.000000
      2          1           0        0.054393    1.046731    0.000000
      3          1           0       -0.872956    2.349527    0.000000
      4          8           0        0.056011   -1.850450   -0.000000
      5          1           0        0.749670   -2.546396   -0.000000
      6          1           0       -0.827281   -2.280916   -0.000000
 ---------------------------------------------------------------------

 SCF Done:  E(RHF) =  -152.111212957     A.U. after   10 cycles
 E2 =    -0.5262141484D+00 EUMP2 =    -0.15263742710512D+03
 CCSD(T)
 CCSD(T)= -0.15266452183D+03

 The electronic state is 1-A'.
 Alpha  occ. eigenvalues --  -20.57089 -20.54015  -1.34346  -1.31353  -0.71741
 Alpha  occ. eigenvalues --   -0.68749  -0.57961  -0.54829  -0.51482  -0.48496
 Alpha virt. eigenvalues --    0.12240   0.16586   0.19297   0.24798   0.52339
 Alpha virt. eigenvalues --    0.55555   0.56208   0.58975   0.68972   0.71482
 Alpha virt. eigenvalues --    0.77049   0.78356   0.80371   0.82282   0.83594

 Mulliken charges:
               1
     1  O   -0.524049
     2  H    0.267432
     3  H    0.248923
     4  O   -0.509049
     5  H    0.260737
     6  H    0.256007
 Sum of Mulliken charges =  -0.00000

 Dipole moment (field-independent basis, Debye):
    X=             -1.8996    Y=             -3.3080    Z=             -0.0000  Tot=              3.8146
 Quadrupole moment (field-independent basis, Debye-Ang):
   XX=             -9.2910   YY=             -7.6812   ZZ=            -14.7242
   XY=             -4.0022   XZ=             -0.0000   YZ=              0.0000

 Normal termination of Gaussian 16 at Sun Aug 28 06:14:01 2022.
