 Gaussian 16, Revision A.03,
 Gaussian 16:  ES64L-G16RevA.03 25-Dec-2016

 ------------------
 #p CCSD(T)/cc-pVTZ
 ------------------

 ------------
 H2O_H2O_2995
 ------------
 Symbolic Z-matrix:
 Charge =  0 Multiplicity = 1

                         Standard orientation:
 ---------------------------------------------------------------------
 Center     Atomic      Atomic             Coordinates (Angstroms)
 Number     Number       Type             X           Y           Z
 ---------------------------------------------------------------------
      1          8           0        0.026662    2.295503    0.000000
      2          1           0        0.024115    1.312905    0.000000
      3          1           0       -0.902002    2.616578    0.000000
      4          8           0        0.026662   -2.122281   -0.000000
      5          1           0        0.975119   -2.379056   -0.000000
      6          1           0       -0.523829   -2.936201   -0.000000
 ---------------------------------------------------------------------

 SCF Done:  E(RHF) =  -152.109954084     A.U. after   10 cycles
 E2 =    -0.5259227508D+00 EUMP2 =    -0.15263587683502D+03
 CCSD(T)
 CCSD(T)= -0.15266301807D+03

 The electronic state is 1-A'.
 Alpha  occ. eigenvalues --  -20.56640 -20.54499  -1.33921  -1.31820  -0.71323
 Alpha  occ. eigenvalues --   -0.69222  -0.57469  -0.55312  -0.51051  -0.48958
 Alpha virt. eigenvalues --    0.12438   0.15955   0.19368   0.22863   0.53412
 Alpha virt. eigenvalues --    0.55527   0.56436   0.58402   0.68240   0.69351
 Alpha virt. eigenvalues --    0.77837   0.78928   0.79872   0.80003   0.83215

 Mulliken charges:
               1
     1  O   -0.520253
     2  H    0.263885
     3  H    0.253502
     4  O   -0.514952
     5  H    0.259484
     6  H    0.258334
 Sum of Mulliken charges =  -0.00000

 Dipole moment (field-independent basis, Debye):
    X=             -0.9108    Y=             -3.1188    Z=             -0.0000  Tot=              3.2491
 Quadrupole moment (field-independent basis, Debye-Ang):
   XX=             -9.2883   YY=             -7.4423   ZZ=            -14.7201
   XY=             -5.5208   XZ=             -0.0000   YZ=             -0.0000

 CCSD(T)=-152.6630181\RMSD=6.824e-09\PG=CS [SG(H4O2)]\\@
 Normal termination of Gaussian 16 at Fri Aug 26 19:07:52 2022.
