 Gaussian 16, Revision A.03,
 Gaussian 16:  ES64L-G16RevA.03 25-Dec-2016

 ------------------
 #p CCSD(T)/cc-pVTZ
 ------------------

 ------------
 H2O_H2O_4824
 ------------
 Symbolic Z-matrix:
 Charge =  0 Multiplicity = 1

                         Standard orientation:
 ---------------------------------------------------------------------
 Center     Atomic      Atomic             Coordinates (Angstroms)
 Number     Number       Type             X           Y           Z
 ---------------------------------------------------------------------
      1          8           0       -0.013464    3.015881    0.000000
      2          1           0       -0.011169    2.033282    0.000000
      3          1           0        0.915282    3.336717    0.000000
      4          8           0       -0.013464   -2.856600    0.000000
      5          1           0       -0.996063   -2.858895    0.000000
      6          1           0        0.307373   -3.785346    0.000000
 ---------------------------------------------------------------------

 SCF Done:  E(RHF) =  -152.108274290     A.U. after   10 cycles
 E2 =    -0.5258008721D+00 EUMP2 =    -0.15263407516220D+03
 CCSD(T)
 CCSD(T)= -0.15266127778D+03

 The electronic state is 1-A'.
 Alpha  occ. eigenvalues --  -20.56128 -20.55145  -1.33432  -1.32451  -0.70838
 Alpha  occ. eigenvalues --   -0.69859  -0.56917  -0.55922  -0.50549  -0.49574
 Alpha virt. eigenvalues --    0.13376   0.14747   0.19460   0.21110   0.53549
 Alpha virt. eigenvalues --    0.54804   0.56704   0.57709   0.67014   0.68446
 Alpha virt. eigenvalues --    0.78334   0.79288   0.79703   0.80781   0.81951

 Mulliken charges:
               1
     1  O   -0.513620
     2  H    0.258600
     3  H    0.254980
     4  O   -0.514059
     5  H    0.256514
     6  H    0.257586
 Sum of Mulliken charges =  -0.00000

 Dipole moment (field-independent basis, Debye):
    X=              0.4637    Y=             -2.7872    Z=              0.0000  Tot=              2.8255
 Quadrupole moment (field-independent basis, Debye-Ang):
   XX=             -9.6489   YY=             -7.3549   ZZ=            -14.7143
   XY=              8.1761   XZ=              0.0000   YZ=              0.0000

 Normal termination of Gaussian 16 at Sun Aug 28 06:10:45 2022.
