 Gaussian 16, Revision A.03,
 Gaussian 16:  ES64L-G16RevA.03 25-Dec-2016

 ------------------
 #p CCSD(T)/cc-pVTZ
 ------------------

 ------------
 H2O_H2O_3039
 ------------
 Symbolic Z-matrix:
 Charge =  0 Multiplicity = 1

                         Standard orientation:
 ---------------------------------------------------------------------
 Center     Atomic      Atomic             Coordinates (Angstroms)
 Number     Number       Type             X           Y           Z
 ---------------------------------------------------------------------
      1          8           0        0.048585    2.319334   -0.000000
      2          1           0        0.046895    1.336734   -0.000000
      3          1           0       -0.880359    2.639598   -0.000000
      4          8           0        0.048585   -2.138948    0.000000
      5          1           0        0.827106   -2.738457    0.000000
      6          1           0       -0.771003   -2.680964    0.000000
 ---------------------------------------------------------------------

 SCF Done:  E(RHF) =  -152.109818932     A.U. after   10 cycles
 E2 =    -0.5259322616D+00 EUMP2 =    -0.15263575119377D+03
 CCSD(T)
 CCSD(T)= -0.15266289490D+03

 The electronic state is 1-A'.
 Alpha  occ. eigenvalues --  -20.56634 -20.54449  -1.33912  -1.31769  -0.71313
 Alpha  occ. eigenvalues --   -0.69163  -0.57455  -0.55256  -0.51042  -0.48904
 Alpha virt. eigenvalues --    0.12524   0.15913   0.19468   0.22595   0.53193
 Alpha virt. eigenvalues --    0.55414   0.56357   0.58528   0.68166   0.69334
 Alpha virt. eigenvalues --    0.77855   0.79193   0.79236   0.79924   0.83242

 Mulliken charges:
               1
     1  O   -0.518859
     2  H    0.264382
     3  H    0.251623
     4  O   -0.514266
     5  H    0.260137
     6  H    0.256984
 Sum of Mulliken charges =  -0.00000

 Dipole moment (field-independent basis, Debye):
    X=             -1.6567    Y=             -3.2462    Z=              0.0000  Tot=              3.6446
 Quadrupole moment (field-independent basis, Debye-Ang):
   XX=             -9.1829   YY=             -7.1588   ZZ=            -14.7197
   XY=             -4.6716   XZ=              0.0000   YZ=             -0.0000

 Normal termination of Gaussian 16 at Fri Aug 26 19:25:31 2022.
