 Gaussian 16, Revision A.03,
 Gaussian 16:  ES64L-G16RevA.03 25-Dec-2016

 ------------------
 #p CCSD(T)/cc-pVTZ
 ------------------

 ------------
 H2O_H2O_1975
 ------------
 Symbolic Z-matrix:
 Charge =  0 Multiplicity = 1

                         Standard orientation:
 ---------------------------------------------------------------------
 Center     Atomic      Atomic             Coordinates (Angstroms)
 Number     Number       Type             X           Y           Z
 ---------------------------------------------------------------------
      1          8           0        0.092949   -1.874654    0.000000
      2          1           0        0.092949   -0.892053    0.000000
      3          1           0       -0.836544   -2.193321    0.000000
      4          8           0        0.092949    1.741867    0.000000
      5          1           0        0.092949    2.724469    0.000000
      6          1           0       -0.836544    1.423201    0.000000
 ---------------------------------------------------------------------

 SCF Done:  E(RHF) =  -152.108831023     A.U. after   10 cycles
 E2 =    -0.5267839786D+00 EUMP2 =    -0.15263561500205D+03
 CCSD(T)
 CCSD(T)= -0.15266275003D+03

 The electronic state is 1-A'.
 Alpha  occ. eigenvalues --  -20.57328 -20.54836  -1.34629  -1.32146  -0.72186
 Alpha  occ. eigenvalues --   -0.69446  -0.58117  -0.55567  -0.51718  -0.49255
 Alpha virt. eigenvalues --    0.11437   0.16098   0.20250   0.25649   0.51951
 Alpha virt. eigenvalues --    0.55370   0.57129   0.57356   0.67962   0.73715
 Alpha virt. eigenvalues --    0.75923   0.78538   0.79896   0.82481   0.82766

 Mulliken charges:
               1
     1  O   -0.514916
     2  H    0.265951
     3  H    0.244127
     4  O   -0.497487
     5  H    0.257841
     6  H    0.244482
 Sum of Mulliken charges =  -0.00000

 Dipole moment (field-independent basis, Debye):
    X=             -3.1311    Y=              2.4834    Z=              0.0000  Tot=              3.9964
 Quadrupole moment (field-independent basis, Debye-Ang):
   XX=            -10.8829   YY=             -9.1518   ZZ=            -14.7134
   XY=              2.1341   XZ=              0.0000   YZ=              0.0000

 520882\MP4DQ=-152.64448\MP4SDQ=-152.6475989\CCSD=-152.6469807\CCSD(T)=
 Normal termination of Gaussian 16 at Sun Aug 28 03:16:36 2022.
