 Gaussian 16, Revision A.03,
 Gaussian 16:  ES64L-G16RevA.03 25-Dec-2016

 ------------------
 #p CCSD(T)/cc-pVTZ
 ------------------

 -----------
 H2O_H2O_665
 -----------
 Symbolic Z-matrix:
 Charge =  0 Multiplicity = 1

                         Standard orientation:
 ---------------------------------------------------------------------
 Center     Atomic      Atomic             Coordinates (Angstroms)
 Number     Number       Type             X           Y           Z
 ---------------------------------------------------------------------
      1          8           0        0.044985    1.371948    0.000000
      2          1           0        0.041800    0.389352    0.000000
      3          1           0       -0.883471    1.693625    0.000000
      4          8           0        0.044985   -1.191675   -0.000000
      5          1           0        0.860215   -1.740223   -0.000000
      6          1           0       -0.738302   -1.784943   -0.000000
 ---------------------------------------------------------------------

 SCF Done:  E(RHF) =  -152.107416534     A.U. after   11 cycles
 E2 =    -0.5304704403D+00 EUMP2 =    -0.15263788697475D+03
 CCSD(T)
 CCSD(T)= -0.15266445449D+03

 The electronic state is 1-A'.
 Alpha  occ. eigenvalues --  -20.59714 -20.49821  -1.37722  -1.27973  -0.74587
 Alpha  occ. eigenvalues --   -0.69751  -0.59220  -0.54569  -0.50434  -0.44991
 Alpha virt. eigenvalues --    0.11491   0.17867   0.19449   0.33327   0.47637
 Alpha virt. eigenvalues --    0.54032   0.59568   0.62982   0.69679   0.72370
 Alpha virt. eigenvalues --    0.72576   0.78249   0.81693   0.82797   0.84324

 Mulliken charges:
               1
     1  O   -0.599315
     2  H    0.312299
     3  H    0.232550
     4  O   -0.461682
     5  H    0.263063
     6  H    0.253085
 Sum of Mulliken charges =  -0.00000

 Dipole moment (field-independent basis, Debye):
    X=             -1.4560    Y=             -4.1109    Z=             -0.0000  Tot=              4.3611
 Quadrupole moment (field-independent basis, Debye-Ang):
   XX=             -9.1412   YY=             -9.1982   ZZ=            -14.6979
   XY=             -3.1799   XZ=             -0.0000   YZ=             -0.0000

 Normal termination of Gaussian 16 at Fri Aug 26 19:43:10 2022.
