 Gaussian 16, Revision A.03,
 Gaussian 16:  ES64L-G16RevA.03 25-Dec-2016

 ------------------
 #p CCSD(T)/cc-pVTZ
 ------------------

 ------------
 H2O_H2O_2472
 ------------
 Symbolic Z-matrix:
 Charge =  0 Multiplicity = 1

                         Standard orientation:
 ---------------------------------------------------------------------
 Center     Atomic      Atomic             Coordinates (Angstroms)
 Number     Number       Type             X           Y           Z
 ---------------------------------------------------------------------
      1          8           0       -0.019892    2.082764    0.000000
      2          1           0       -0.016789    1.100167    0.000000
      3          1           0        0.908590    2.404363    0.000000
      4          8           0       -0.019892   -1.915675    0.000000
      5          1           0       -0.993677   -2.047005    0.000000
      6          1           0        0.420148   -2.794237    0.000000
 ---------------------------------------------------------------------

 SCF Done:  E(RHF) =  -152.110881762     A.U. after   10 cycles
 E2 =    -0.5260888307D+00 EUMP2 =    -0.15263697059268D+03
 CCSD(T)
 CCSD(T)= -0.15266407989D+03

 The electronic state is 1-A'.
 Alpha  occ. eigenvalues --  -20.56931 -20.54286  -1.34204  -1.31617  -0.71612
 Alpha  occ. eigenvalues --   -0.69026  -0.57796  -0.55106  -0.51337  -0.48764
 Alpha virt. eigenvalues --    0.12247   0.16430   0.19263   0.24432   0.53592
 Alpha virt. eigenvalues --    0.55422   0.56265   0.58571   0.68830   0.70880
 Alpha virt. eigenvalues --    0.77324   0.79132   0.80102   0.81218   0.83693

 Mulliken charges:
               1
     1  O   -0.524877
     2  H    0.265416
     3  H    0.253804
     4  O   -0.512208
     5  H    0.259800
     6  H    0.258066
 Sum of Mulliken charges =  -0.00000

 Dipole moment (field-independent basis, Debye):
    X=              0.6804    Y=             -3.0623    Z=              0.0000  Tot=              3.1370
 Quadrupole moment (field-independent basis, Debye-Ang):
   XX=             -9.4473   YY=             -7.9180   ZZ=            -14.7228
   XY=              5.3131   XZ=              0.0000   YZ=              0.0000

 Normal termination of Gaussian 16 at Sun Aug 28 07:35:26 2022.
