 Gaussian 16, Revision A.03,
 Gaussian 16:  ES64L-G16RevA.03 25-Dec-2016

 ------------------
 #p CCSD(T)/cc-pVTZ
 ------------------

 ------------
 H2O_H2O_3550
 ------------
 Symbolic Z-matrix:
 Charge =  0 Multiplicity = 1

                         Standard orientation:
 ---------------------------------------------------------------------
 Center     Atomic      Atomic             Coordinates (Angstroms)
 Number     Number       Type             X           Y           Z
 ---------------------------------------------------------------------
      1          8           0        0.092949   -2.502886    0.000000
      2          1           0        0.092949   -1.520285    0.000000
      3          1           0       -0.836544   -2.821553    0.000000
      4          8           0        0.092949    2.370099    0.000000
      5          1           0        0.092949    3.352701    0.000000
      6          1           0       -0.836544    2.051432    0.000000
 ---------------------------------------------------------------------

 SCF Done:  E(RHF) =  -152.107808419     A.U. after   10 cycles
 E2 =    -0.5259594422D+00 EUMP2 =    -0.15263376786158D+03
 CCSD(T)
 CCSD(T)= -0.15266096963D+03

 The electronic state is 1-A'.
 Alpha  occ. eigenvalues --  -20.56442 -20.55247  -1.33740  -1.32548  -0.71164
 Alpha  occ. eigenvalues --   -0.69937  -0.57203  -0.55999  -0.50849  -0.49661
 Alpha virt. eigenvalues --    0.11794   0.15245   0.18982   0.22741   0.53412
 Alpha virt. eigenvalues --    0.54874   0.56466   0.57943   0.66961   0.68817
 Alpha virt. eigenvalues --    0.78056   0.78743   0.79213   0.81364   0.82417

 Mulliken charges:
               1
     1  O   -0.509640
     2  H    0.258435
     3  H    0.250699
     4  O   -0.509962
     5  H    0.259485
     6  H    0.250983
 Sum of Mulliken charges =  -0.00000

 Dipole moment (field-independent basis, Debye):
    X=             -3.1757    Y=              2.3555    Z=              0.0000  Tot=              3.9539
 Quadrupole moment (field-independent basis, Debye-Ang):
   XX=            -10.8514   YY=             -9.2482   ZZ=            -14.7121
   XY=              2.1523   XZ=              0.0000   YZ=              0.0000

 Normal termination of Gaussian 16 at Fri Aug 26 22:20:14 2022.
