 Gaussian 16, Revision A.03,
 Gaussian 16:  ES64L-G16RevA.03 25-Dec-2016

 ------------------
 #p CCSD(T)/cc-pVTZ
 ------------------

 ------------
 H2O_H2O_2950
 ------------
 Symbolic Z-matrix:
 Charge =  0 Multiplicity = 1

                         Standard orientation:
 ---------------------------------------------------------------------
 Center     Atomic      Atomic             Coordinates (Angstroms)
 Number     Number       Type             X           Y           Z
 ---------------------------------------------------------------------
      1          8           0        0.092949   -2.263560    0.000000
      2          1           0        0.092949   -1.280958    0.000000
      3          1           0       -0.836544   -2.582226    0.000000
      4          8           0        0.092949    2.130773    0.000000
      5          1           0        0.092949    3.113374    0.000000
      6          1           0       -0.836544    1.812106    0.000000
 ---------------------------------------------------------------------

 SCF Done:  E(RHF) =  -152.108079935     A.U. after   10 cycles
 E2 =    -0.5261011797D+00 EUMP2 =    -0.15263418111422D+03
 CCSD(T)
 CCSD(T)= -0.15266136450D+03

 The electronic state is 1-A'.
 Alpha  occ. eigenvalues --  -20.56675 -20.55148  -1.33969  -1.32449  -0.71408
 Alpha  occ. eigenvalues --   -0.69825  -0.57436  -0.55897  -0.51076  -0.49561
 Alpha virt. eigenvalues --    0.11483   0.15584   0.19423   0.23413   0.54358
 Alpha virt. eigenvalues --    0.54648   0.56460   0.58071   0.68130   0.68933
 Alpha virt. eigenvalues --    0.77799   0.78428   0.79326   0.80967   0.82679

 Mulliken charges:
               1
     1  O   -0.510613
     2  H    0.260208
     3  H    0.249071
     4  O   -0.507681
     5  H    0.259717
     6  H    0.249298
 Sum of Mulliken charges =  -0.00000

 Dipole moment (field-independent basis, Debye):
    X=             -3.1637    Y=              2.3849    Z=              0.0000  Tot=              3.9619
 Quadrupole moment (field-independent basis, Debye-Ang):
   XX=            -10.8595   YY=             -9.2135   ZZ=            -14.7126
   XY=              2.1486   XZ=              0.0000   YZ=              0.0000

 CCSD(T)=-152.6613645\RMSD=7.239e-09\PG=CS [SG(H4O2)]\\@
 Normal termination of Gaussian 16 at Fri Aug 26 18:40:13 2022.
