 Gaussian 16, Revision A.03,
 Gaussian 16:  ES64L-G16RevA.03 25-Dec-2016

 ------------------
 #p CCSD(T)/cc-pVTZ
 ------------------

 -----------
 H2O_H2O_299
 -----------
 Symbolic Z-matrix:
 Charge =  0 Multiplicity = 1

                         Standard orientation:
 ---------------------------------------------------------------------
 Center     Atomic      Atomic             Coordinates (Angstroms)
 Number     Number       Type             X           Y           Z
 ---------------------------------------------------------------------
      1          8           0        0.013761   -1.210923    0.000000
      2          1           0        0.007804   -0.228339    0.000000
      3          1           0       -0.913783   -1.535218    0.000000
      4          8           0        0.013761    1.051744    0.000000
      5          1           0        0.996345    1.057700    0.000000
      6          1           0       -0.310535    1.979288    0.000000
 ---------------------------------------------------------------------

 SCF Done:  E(RHF) =  -152.077339353     A.U. after   11 cycles
 E2 =    -0.5341383878D+00 EUMP2 =    -0.15261147774104D+03
 CCSD(T)
 CCSD(T)= -0.15263748197D+03

 The electronic state is 1-A'.
 Alpha  occ. eigenvalues --  -20.60789 -20.47623  -1.40706  -1.26621  -0.79249
 Alpha  occ. eigenvalues --   -0.70474  -0.58272  -0.56497  -0.47941  -0.43501
 Alpha virt. eigenvalues --    0.11223   0.17655   0.20116   0.34110   0.47804
 Alpha virt. eigenvalues --    0.52323   0.59263   0.68702   0.71832   0.72729
 Alpha virt. eigenvalues --    0.75988   0.77285   0.77674   0.84101   0.85199

 Mulliken charges:
               1
     1  O   -0.642679
     2  H    0.285824
     3  H    0.236286
     4  O   -0.369169
     5  H    0.260457
     6  H    0.229281
 Sum of Mulliken charges =  -0.00000

 Dipole moment (field-independent basis, Debye):
    X=             -0.4361    Y=              4.1696    Z=              0.0000  Tot=              4.1923
 Quadrupole moment (field-independent basis, Debye-Ang):
   XX=             -9.5507   YY=             -9.6817   ZZ=            -14.6114
   XY=              3.1790   XZ=              0.0000   YZ=              0.0000

 Normal termination of Gaussian 16 at Fri Aug 26 17:15:59 2022.
