 Gaussian 16, Revision A.03,
 Gaussian 16:  ES64L-G16RevA.03 25-Dec-2016

 ------------------
 #p CCSD(T)/cc-pVTZ
 ------------------

 ------------
 H2O_H2O_4521
 ------------
 Symbolic Z-matrix:
 Charge =  0 Multiplicity = 1

                         Standard orientation:
 ---------------------------------------------------------------------
 Center     Atomic      Atomic             Coordinates (Angstroms)
 Number     Number       Type             X           Y           Z
 ---------------------------------------------------------------------
      1          8           0       -0.023165    2.902262    0.000000
      2          1           0       -0.021064    1.919662    0.000000
      3          1           0        0.905645    3.222915    0.000000
      4          8           0       -0.023165   -2.731851    0.000000
      5          1           0       -0.986474   -2.925606    0.000000
      6          1           0        0.472529   -3.580257    0.000000
 ---------------------------------------------------------------------

 SCF Done:  E(RHF) =  -152.108458804     A.U. after   10 cycles
 E2 =    -0.5257988199D+00 EUMP2 =    -0.15263425762400D+03
 CCSD(T)
 CCSD(T)= -0.15266145467D+03

 The electronic state is 1-A'.
 Alpha  occ. eigenvalues --  -20.56176 -20.55011  -1.33479  -1.32319  -0.70883
 Alpha  occ. eigenvalues --   -0.69724  -0.56973  -0.55792  -0.50598  -0.49443
 Alpha virt. eigenvalues --    0.13310   0.14912   0.19568   0.21145   0.53535
 Alpha virt. eigenvalues --    0.54891   0.56676   0.57787   0.66850   0.68686
 Alpha virt. eigenvalues --    0.78288   0.79413   0.79524   0.80529   0.82530

 Mulliken charges:
               1
     1  O   -0.514378
     2  H    0.259821
     3  H    0.254445
     4  O   -0.514934
     5  H    0.257400
     6  H    0.257646
 Sum of Mulliken charges =   0.00000

 Dipole moment (field-independent basis, Debye):
    X=              0.7955    Y=             -2.9898    Z=              0.0000  Tot=              3.0938
 Quadrupole moment (field-independent basis, Debye-Ang):
   XX=             -9.3622   YY=             -6.7801   ZZ=            -14.7149
   XY=              7.1426   XZ=              0.0000   YZ=              0.0000

 Normal termination of Gaussian 16 at Sun Aug 28 03:35:57 2022.
