 Gaussian 16, Revision A.03,
 Gaussian 16:  ES64L-G16RevA.03 25-Dec-2016

 ------------------
 #p CCSD(T)/cc-pVTZ
 ------------------

 ------------
 H2O_H2O_4245
 ------------
 Symbolic Z-matrix:
 Charge =  0 Multiplicity = 1

                         Standard orientation:
 ---------------------------------------------------------------------
 Center     Atomic      Atomic             Coordinates (Angstroms)
 Number     Number       Type             X           Y           Z
 ---------------------------------------------------------------------
      1          8           0        0.026621    2.794111    0.000000
      2          1           0        0.024543    1.811512    0.000000
      3          1           0       -0.902196    3.114742    0.000000
      4          8           0        0.026621   -2.620864    0.000000
      5          1           0        0.975201   -2.877186    0.000000
      6          1           0       -0.523481   -3.435046    0.000000
 ---------------------------------------------------------------------

 SCF Done:  E(RHF) =  -152.108623794     A.U. after   10 cycles
 E2 =    -0.5258023968D+00 EUMP2 =    -0.15263442619053D+03
 CCSD(T)
 CCSD(T)= -0.15266161757D+03

 The electronic state is 1-A'.
 Alpha  occ. eigenvalues --  -20.56230 -20.54929  -1.33531  -1.32238  -0.70935
 Alpha  occ. eigenvalues --   -0.69642  -0.57031  -0.55714  -0.50651  -0.49364
 Alpha virt. eigenvalues --    0.13175   0.15057   0.19562   0.21272   0.53480
 Alpha virt. eigenvalues --    0.54954   0.56641   0.57816   0.66723   0.68888
 Alpha virt. eigenvalues --    0.78238   0.79335   0.79489   0.80332   0.82746

 Mulliken charges:
               1
     1  O   -0.515025
     2  H    0.260586
     3  H    0.254198
     4  O   -0.515531
     5  H    0.257925
     6  H    0.257848
 Sum of Mulliken charges =  -0.00000

 Dipole moment (field-independent basis, Debye):
    X=             -0.9132    Y=             -3.0480    Z=             -0.0000  Tot=              3.1819
 Quadrupole moment (field-independent basis, Debye-Ang):
   XX=             -9.2890   YY=             -6.7642   ZZ=            -14.7155
   XY=             -6.6624   XZ=             -0.0000   YZ=             -0.0000

 Normal termination of Gaussian 16 at Sun Aug 28 01:09:22 2022.
