 Gaussian 16, Revision A.03,
 Gaussian 16:  ES64L-G16RevA.03 25-Dec-2016

 ------------------
 #p CCSD(T)/cc-pVTZ
 ------------------

 ------------
 H2O_H2O_1819
 ------------
 Symbolic Z-matrix:
 Charge =  0 Multiplicity = 1

                         Standard orientation:
 ---------------------------------------------------------------------
 Center     Atomic      Atomic             Coordinates (Angstroms)
 Number     Number       Type             X           Y           Z
 ---------------------------------------------------------------------
      1          8           0        0.030252    1.828097   -0.000000
      2          1           0        0.027191    0.845500   -0.000000
      3          1           0       -0.898244    2.149657   -0.000000
      4          8           0        0.030252   -1.652533    0.000000
      5          1           0        0.959719   -1.971277    0.000000
      6          1           0       -0.572698   -2.428391    0.000000
 ---------------------------------------------------------------------

 SCF Done:  E(RHF) =  -152.112968707     A.U. after   10 cycles
 E2 =    -0.5265845755D+00 EUMP2 =    -0.15263955328220D+03
 CCSD(T)
 CCSD(T)= -0.15266659708D+03

 The electronic state is 1-A'.
 Alpha  occ. eigenvalues --  -20.57528 -20.53505  -1.34790  -1.30888  -0.72176
 Alpha  occ. eigenvalues --   -0.68362  -0.58540  -0.54321  -0.51928  -0.48045
 Alpha virt. eigenvalues --    0.12212   0.17260   0.19087   0.27201   0.51571
 Alpha virt. eigenvalues --    0.54483   0.56187   0.59276   0.69054   0.72712
 Alpha virt. eigenvalues --    0.75576   0.77501   0.80942   0.83309   0.84480

 Mulliken charges:
               1
     1  O   -0.534796
     2  H    0.270721
     3  H    0.250834
     4  O   -0.508324
     5  H    0.262872
     6  H    0.258693
 Sum of Mulliken charges =  -0.00000

 Dipole moment (field-independent basis, Debye):
    X=             -1.0233    Y=             -3.3458    Z=              0.0000  Tot=              3.4988
 Quadrupole moment (field-independent basis, Debye-Ang):
   XX=             -9.2309   YY=             -8.0882   ZZ=            -14.7316
   XY=             -4.3458   XZ=              0.0000   YZ=             -0.0000

 Normal termination of Gaussian 16 at Sun Aug 28 01:54:10 2022.
