 Gaussian 16, Revision A.03,
 Gaussian 16:  ES64L-G16RevA.03 25-Dec-2016

 ------------------
 #p CCSD(T)/cc-pVTZ
 ------------------

 ------------
 H2O_H2O_3369
 ------------
 Symbolic Z-matrix:
 Charge =  0 Multiplicity = 1

                         Standard orientation:
 ---------------------------------------------------------------------
 Center     Atomic      Atomic             Coordinates (Angstroms)
 Number     Number       Type             X           Y           Z
 ---------------------------------------------------------------------
      1          8           0        0.030180    2.446379    0.000000
      2          1           0        0.027922    1.463781    0.000000
      3          1           0       -0.898578    2.767181    0.000000
      4          8           0        0.030180   -2.270766   -0.000000
      5          1           0        0.959907   -2.588751   -0.000000
      6          1           0       -0.572137   -3.047117   -0.000000
 ---------------------------------------------------------------------

 SCF Done:  E(RHF) =  -152.109429114     A.U. after   10 cycles
 E2 =    -0.5258616298D+00 EUMP2 =    -0.15263529074395D+03
 CCSD(T)
 CCSD(T)= -0.15266245123D+03

 The electronic state is 1-A'.
 Alpha  occ. eigenvalues --  -20.56482 -20.54637  -1.33771  -1.31953  -0.71173
 Alpha  occ. eigenvalues --   -0.69355  -0.57299  -0.55440  -0.50897  -0.49086
 Alpha virt. eigenvalues --    0.12644   0.15645   0.19459   0.22108   0.53358
 Alpha virt. eigenvalues --    0.55288   0.56498   0.58092   0.67250   0.69340
 Alpha virt. eigenvalues --    0.78007   0.78824   0.79748   0.79906   0.83069

 Mulliken charges:
               1
     1  O   -0.517989
     2  H    0.262867
     3  H    0.253525
     4  O   -0.515919
     5  H    0.259226
     6  H    0.258290
 Sum of Mulliken charges =  -0.00000

 Dipole moment (field-independent basis, Debye):
    X=             -1.0320    Y=             -3.1330    Z=             -0.0000  Tot=              3.2986
 Quadrupole moment (field-independent basis, Debye-Ang):
   XX=             -9.2295   YY=             -7.1394   ZZ=            -14.7184
   XY=             -5.6923   XZ=             -0.0000   YZ=              0.0000

 CCSD(T)=-152.6624512\RMSD=6.945e-09\PG=CS [SG(H4O2)]\\@
 Normal termination of Gaussian 16 at Fri Aug 26 21:19:16 2022.
