 Gaussian 16, Revision A.03,
 Gaussian 16:  ES64L-G16RevA.03 25-Dec-2016

 ------------------
 #p CCSD(T)/cc-pVTZ
 ------------------

 -----------
 H2O_H2O_143
 -----------
 Symbolic Z-matrix:
 Charge =  0 Multiplicity = 1

                         Standard orientation:
 ---------------------------------------------------------------------
 Center     Atomic      Atomic             Coordinates (Angstroms)
 Number     Number       Type             X           Y           Z
 ---------------------------------------------------------------------
      1          8           0        0.034013    1.160958    0.000000
      2          1           0        0.029330    0.178368    0.000000
      3          1           0       -0.893951    1.484051    0.000000
      4          8           0        0.034013   -0.983605   -0.000000
      5          1           0        0.940016   -1.363953   -0.000000
      6          1           0       -0.619603   -1.717290   -0.000000
 ---------------------------------------------------------------------

 SCF Done:  E(RHF) =  -152.057752583     A.U. after   11 cycles
 E2 =    -0.5349874576D+00 EUMP2 =    -0.15259274004099D+03
 CCSD(T)
 CCSD(T)= -0.15261843789D+03

 The electronic state is 1-A'.
 Alpha  occ. eigenvalues --  -20.61669 -20.44992  -1.42574  -1.24917  -0.79083
 Alpha  occ. eigenvalues --   -0.75597  -0.57909  -0.55641  -0.45233  -0.41521
 Alpha virt. eigenvalues --    0.10597   0.16884   0.20817   0.33466   0.46746
 Alpha virt. eigenvalues --    0.52267   0.61732   0.67539   0.70242   0.71171
 Alpha virt. eigenvalues --    0.77871   0.79035   0.80728   0.83179   0.86342

 Mulliken charges:
               1
     1  O   -0.667455
     2  H    0.292892
     3  H    0.214261
     4  O   -0.338831
     5  H    0.261082
     6  H    0.238050
 Sum of Mulliken charges =  -0.00000

 Dipole moment (field-independent basis, Debye):
    X=             -1.0399    Y=             -4.8808    Z=             -0.0000  Tot=              4.9904
 Quadrupole moment (field-independent basis, Debye-Ang):
   XX=             -9.1122   YY=            -10.0669   ZZ=            -14.5822
   XY=             -2.7592   XZ=             -0.0000   YZ=              0.0000

 Normal termination of Gaussian 16 at Fri Aug 26 16:09:48 2022.
