 Gaussian 16, Revision A.03,
 Gaussian 16:  ES64L-G16RevA.03 25-Dec-2016

 ------------------
 #p CCSD(T)/cc-pVTZ
 ------------------

 ------------
 H2O_H2O_2451
 ------------
 Symbolic Z-matrix:
 Charge =  0 Multiplicity = 1

                         Standard orientation:
 ---------------------------------------------------------------------
 Center     Atomic      Atomic             Coordinates (Angstroms)
 Number     Number       Type             X           Y           Z
 ---------------------------------------------------------------------
      1          8           0        0.090685   -2.067336    0.000000
      2          1           0        0.090589   -1.084735    0.000000
      3          1           0       -0.838776   -2.386094    0.000000
      4          8           0        0.090685    1.928630    0.000000
      5          1           0        0.154855    2.909134    0.000000
      6          1           0       -0.857634    1.671344    0.000000
 ---------------------------------------------------------------------

 SCF Done:  E(RHF) =  -152.108727021     A.U. after   10 cycles
 E2 =    -0.5263166325D+00 EUMP2 =    -0.15263504365329D+03
 CCSD(T)
 CCSD(T)= -0.15266219650D+03

 The electronic state is 1-A'.
 Alpha  occ. eigenvalues --  -20.56957 -20.54912  -1.34246  -1.32218  -0.71707
 Alpha  occ. eigenvalues --   -0.69576  -0.57733  -0.55663  -0.51352  -0.49333
 Alpha virt. eigenvalues --    0.11521   0.15911   0.19805   0.24183   0.53488
 Alpha virt. eigenvalues --    0.55680   0.56529   0.57801   0.68411   0.71173
 Alpha virt. eigenvalues --    0.77257   0.79166   0.79616   0.80113   0.83262

 Mulliken charges:
               1
     1  O   -0.513347
     2  H    0.263096
     3  H    0.247061
     4  O   -0.504400
     5  H    0.259236
     6  H    0.248355
 Sum of Mulliken charges =  -0.00000

 Dipole moment (field-independent basis, Debye):
    X=             -3.0737    Y=              2.5341    Z=              0.0000  Tot=              3.9836
 Quadrupole moment (field-independent basis, Debye-Ang):
   XX=            -10.7238   YY=             -8.9407   ZZ=            -14.7144
   XY=              2.3426   XZ=              0.0000   YZ=              0.0000

 Normal termination of Gaussian 16 at Sun Aug 28 07:24:51 2022.
