 Gaussian 16, Revision A.03,
 Gaussian 16:  ES64L-G16RevA.03 25-Dec-2016

 ------------------
 #p CCSD(T)/cc-pVTZ
 ------------------

 -----------
 H2O_H2O_333
 -----------
 Symbolic Z-matrix:
 Charge =  0 Multiplicity = 1

                         Standard orientation:
 ---------------------------------------------------------------------
 Center     Atomic      Atomic             Coordinates (Angstroms)
 Number     Number       Type             X           Y           Z
 ---------------------------------------------------------------------
      1          8           0        0.070270    1.236796   -0.000000
      2          1           0        0.068593    0.254196   -0.000000
      3          1           0       -0.858678    1.557048    0.000000
      4          8           0        0.070270   -1.066669   -0.000000
      5          1           0        0.560118   -1.918464   -0.000000
      6          1           0       -0.894349   -1.253796    0.000000
 ---------------------------------------------------------------------

 SCF Done:  E(RHF) =  -152.084288864     A.U. after   11 cycles
 E2 =    -0.5339140498D+00 EUMP2 =    -0.15261820291396D+03
 CCSD(T)
 CCSD(T)= -0.15264431196D+03

 The electronic state is 1-A'.
 Alpha  occ. eigenvalues --  -20.60825 -20.48003  -1.40211  -1.26851  -0.77670
 Alpha  occ. eigenvalues --   -0.71964  -0.57484  -0.56315  -0.48571  -0.43688
 Alpha virt. eigenvalues --    0.10904   0.16640   0.20653   0.32982   0.48520
 Alpha virt. eigenvalues --    0.52720   0.60308   0.64088   0.71940   0.72303
 Alpha virt. eigenvalues --    0.76170   0.78696   0.79754   0.84117   0.84175

 Mulliken charges:
               1
     1  O   -0.614412
     2  H    0.298395
     3  H    0.211318
     4  O   -0.375513
     5  H    0.238957
     6  H    0.241255
 Sum of Mulliken charges =  -0.00000

 Dipole moment (field-independent basis, Debye):
    X=             -2.2038    Y=             -4.3166    Z=              0.0000  Tot=              4.8466
 Quadrupole moment (field-independent basis, Debye-Ang):
   XX=             -9.6775   YY=             -9.6214   ZZ=            -14.6245
   XY=             -2.7478   XZ=             -0.0000   YZ=              0.0000

 Normal termination of Gaussian 16 at Fri Aug 26 17:30:11 2022.
