 Gaussian 16, Revision A.03,
 Gaussian 16:  ES64L-G16RevA.03 25-Dec-2016

 ------------------
 #p CCSD(T)/cc-pVTZ
 ------------------

 -----------
 H2O_H2O_369
 -----------
 Symbolic Z-matrix:
 Charge =  0 Multiplicity = 1

                         Standard orientation:
 ---------------------------------------------------------------------
 Center     Atomic      Atomic             Coordinates (Angstroms)
 Number     Number       Type             X           Y           Z
 ---------------------------------------------------------------------
      1          8           0        0.030388    1.249682   -0.000000
      2          1           0        0.025804    0.267091   -0.000000
      3          1           0       -0.897608    1.572682   -0.000000
      4          8           0        0.030388   -1.074212    0.000000
      5          1           0        0.959360   -1.394397    0.000000
      6          1           0       -0.573765   -1.849135    0.000000
 ---------------------------------------------------------------------

 SCF Done:  E(RHF) =  -152.089197690     A.U. after   11 cycles
 E2 =    -0.5328904574D+00 EUMP2 =    -0.15262208814770D+03
 CCSD(T)
 CCSD(T)= -0.15264822850D+03

 The electronic state is 1-A'.
 Alpha  occ. eigenvalues --  -20.60682 -20.47588  -1.39854  -1.26497  -0.76815
 Alpha  occ. eigenvalues --   -0.72146  -0.57827  -0.56130  -0.48023  -0.43358
 Alpha virt. eigenvalues --    0.11126   0.17562   0.20065   0.33867   0.47111
 Alpha virt. eigenvalues --    0.53154   0.60361   0.67931   0.69729   0.72065
 Alpha virt. eigenvalues --    0.76215   0.78219   0.79580   0.83570   0.83856

 Mulliken charges:
               1
     1  O   -0.635295
     2  H    0.303115
     3  H    0.227981
     4  O   -0.397962
     5  H    0.261264
     6  H    0.240897
 Sum of Mulliken charges =  -0.00000

 Dipole moment (field-independent basis, Debye):
    X=             -0.9623    Y=             -4.4208    Z=              0.0000  Tot=              4.5243
 Quadrupole moment (field-independent basis, Debye-Ang):
   XX=             -9.1764   YY=             -9.6365   ZZ=            -14.6431
   XY=             -3.0092   XZ=              0.0000   YZ=             -0.0000

 Normal termination of Gaussian 16 at Fri Aug 26 17:45:09 2022.
