 Gaussian 16, Revision A.03,
 Gaussian 16:  ES64L-G16RevA.03 25-Dec-2016

 ------------------
 #p CCSD(T)/cc-pVTZ
 ------------------

 ------------
 H2O_H2O_4294
 ------------
 Symbolic Z-matrix:
 Charge =  0 Multiplicity = 1

                         Standard orientation:
 ---------------------------------------------------------------------
 Center     Atomic      Atomic             Coordinates (Angstroms)
 Number     Number       Type             X           Y           Z
 ---------------------------------------------------------------------
      1          8           0        0.030153    2.815349    0.000000
      2          1           0        0.028200    1.832750    0.000000
      3          1           0       -0.898705    3.135863    0.000000
      4          8           0        0.030153   -2.639717   -0.000000
      5          1           0        0.959979   -2.957413   -0.000000
      6          1           0       -0.571922   -3.416255   -0.000000
 ---------------------------------------------------------------------

 SCF Done:  E(RHF) =  -152.108598612     A.U. after   10 cycles
 E2 =    -0.5258022427D+00 EUMP2 =    -0.15263440085436D+03
 CCSD(T)
 CCSD(T)= -0.15266159304D+03

 The electronic state is 1-A'.
 Alpha  occ. eigenvalues --  -20.56220 -20.54922  -1.33521  -1.32231  -0.70925
 Alpha  occ. eigenvalues --   -0.69635  -0.57021  -0.55707  -0.50641  -0.49357
 Alpha virt. eigenvalues --    0.13228   0.15037   0.19611   0.21207   0.53536
 Alpha virt. eigenvalues --    0.54923   0.56646   0.57813   0.66738   0.68871
 Alpha virt. eigenvalues --    0.78247   0.79415   0.79496   0.80240   0.82748

 Mulliken charges:
               1
     1  O   -0.514879
     2  H    0.260647
     3  H    0.254013
     4  O   -0.515434
     5  H    0.258030
     6  H    0.257622
 Sum of Mulliken charges =   0.00000

 Dipole moment (field-independent basis, Debye):
    X=             -1.0342    Y=             -3.0886    Z=             -0.0000  Tot=              3.2572
 Quadrupole moment (field-independent basis, Debye-Ang):
   XX=             -9.2302   YY=             -6.6062   ZZ=            -14.7154
   XY=             -6.4923   XZ=             -0.0000   YZ=             -0.0000

 Normal termination of Gaussian 16 at Sun Aug 28 01:35:53 2022.
