 Gaussian 16, Revision A.03,
 Gaussian 16:  ES64L-G16RevA.03 25-Dec-2016

 ------------------
 #p CCSD(T)/cc-pVTZ
 ------------------

 ----------
 H2O_H2O_10
 ----------
 Symbolic Z-matrix:
 Charge =  0 Multiplicity = 1

                         Standard orientation:
 ---------------------------------------------------------------------
 Center     Atomic      Atomic             Coordinates (Angstroms)
 Number     Number       Type             X           Y           Z
 ---------------------------------------------------------------------
      1          8           0        0.063357    1.109993    0.000000
      2          1           0        0.060890    0.127395    0.000000
      3          1           0       -0.865333    1.430992    0.000000
      4          8           0        0.063357   -0.934660   -0.000000
      5          1           0        0.659568   -1.715709   -0.000000
      6          1           0       -0.868835   -1.245344   -0.000000
 ---------------------------------------------------------------------

 SCF Done:  E(RHF) =  -152.025247218     A.U. after   11 cycles
 E2 =    -0.5369912814D+00 EUMP2 =    -0.15256223849921D+03
 CCSD(T)
 CCSD(T)= -0.15258767333D+03

 The electronic state is 1-A'.
 Alpha  occ. eigenvalues --  -20.62299 -20.43809  -1.44863  -1.24335  -0.81708
 Alpha  occ. eigenvalues --   -0.76989  -0.59164  -0.54042  -0.43983  -0.40750
 Alpha virt. eigenvalues --    0.10190   0.15930   0.21577   0.32157   0.48320
 Alpha virt. eigenvalues --    0.51502   0.61308   0.64062   0.70135   0.71273
 Alpha virt. eigenvalues --    0.78190   0.79369   0.81975   0.83478   0.89009

 Mulliken charges:
               1
     1  O   -0.668938
     2  H    0.273142
     3  H    0.191398
     4  O   -0.276340
     5  H    0.237075
     6  H    0.243663
 Sum of Mulliken charges =  -0.00000

 Dipole moment (field-independent basis, Debye):
    X=             -1.8986    Y=             -5.0701    Z=             -0.0000  Tot=              5.4140
 Quadrupole moment (field-independent basis, Debye-Ang):
   XX=             -9.4083   YY=            -10.2879   ZZ=            -14.5259
   XY=             -2.5914   XZ=             -0.0000   YZ=             -0.0000

 Normal termination of Gaussian 16 at Fri Aug 26 15:15:15 2022.
