 Gaussian 16, Revision A.03,
 Gaussian 16:  ES64L-G16RevA.03 25-Dec-2016

 ------------------
 #p CCSD(T)/cc-pVTZ
 ------------------

 -----------
 H2O_H2O_317
 -----------
 Symbolic Z-matrix:
 Charge =  0 Multiplicity = 1

                         Standard orientation:
 ---------------------------------------------------------------------
 Center     Atomic      Atomic             Coordinates (Angstroms)
 Number     Number       Type             X           Y           Z
 ---------------------------------------------------------------------
      1          8           0        0.037632    1.231550    0.000000
      2          1           0        0.033507    0.248957    0.000000
      3          1           0       -0.890515    1.554115   -0.000000
      4          8           0        0.037632   -1.052742    0.000000
      5          1           0        0.917068   -1.491031    0.000000
      6          1           0       -0.662177   -1.742504   -0.000000
 ---------------------------------------------------------------------

 SCF Done:  E(RHF) =  -152.084539361     A.U. after   11 cycles
 E2 =    -0.5332925499D+00 EUMP2 =    -0.15261783191091D+03
 CCSD(T)
 CCSD(T)= -0.15264387762D+03

 The electronic state is 1-A'.
 Alpha  occ. eigenvalues --  -20.60934 -20.46956  -1.40359  -1.26081  -0.76707
 Alpha  occ. eigenvalues --   -0.73548  -0.57190  -0.56514  -0.47388  -0.42881
 Alpha virt. eigenvalues --    0.10962   0.17324   0.20289   0.33698   0.46945
 Alpha virt. eigenvalues --    0.52996   0.61431   0.66746   0.69926   0.71946
 Alpha virt. eigenvalues --    0.77287   0.79067   0.80073   0.82754   0.83947

 Mulliken charges:
               1
     1  O   -0.640858
     2  H    0.305697
     3  H    0.221820
     4  O   -0.390781
     5  H    0.260245
     6  H    0.243877
 Sum of Mulliken charges =  -0.00000

 Dipole moment (field-independent basis, Debye):
    X=             -1.1801    Y=             -4.5810    Z=             -0.0000  Tot=              4.7305
 Quadrupole moment (field-independent basis, Debye-Ang):
   XX=             -9.1110   YY=             -9.7506   ZZ=            -14.6341
   XY=             -2.9168   XZ=              0.0000   YZ=             -0.0000

 Normal termination of Gaussian 16 at Fri Aug 26 17:23:24 2022.
