 Gaussian 16, Revision A.03,
 Gaussian 16:  ES64L-G16RevA.03 25-Dec-2016

 ------------------
 #p CCSD(T)/cc-pVTZ
 ------------------

 ------------
 H2O_H2O_4705
 ------------
 Symbolic Z-matrix:
 Charge =  0 Multiplicity = 1

                         Standard orientation:
 ---------------------------------------------------------------------
 Center     Atomic      Atomic             Coordinates (Angstroms)
 Number     Number       Type             X           Y           Z
 ---------------------------------------------------------------------
      1          8           0        0.079843    2.975875    0.000000
      2          1           0        0.079459    1.993274    0.000000
      3          1           0       -0.849525    3.294905   -0.000000
      4          8           0        0.079843   -2.816797    0.000000
      5          1           0        0.395327   -3.747375    0.000000
      6          1           0       -0.902753   -2.813434   -0.000000
 ---------------------------------------------------------------------

 SCF Done:  E(RHF) =  -152.107933686     A.U. after   10 cycles
 E2 =    -0.5258429517D+00 EUMP2 =    -0.15263377663800D+03
 CCSD(T)
 CCSD(T)= -0.15266098498D+03

 The electronic state is 1-A'.
 Alpha  occ. eigenvalues --  -20.56165 -20.55164  -1.33467  -1.32467  -0.70877
 Alpha  occ. eigenvalues --   -0.69866  -0.56938  -0.55926  -0.50581  -0.49584
 Alpha virt. eigenvalues --    0.13252   0.14721   0.19415   0.21084   0.53493
 Alpha virt. eigenvalues --    0.54804   0.56631   0.57695   0.66984   0.68497
 Alpha virt. eigenvalues --    0.78307   0.79283   0.79626   0.80787   0.82048

 Mulliken charges:
               1
     1  O   -0.511218
     2  H    0.258681
     3  H    0.252484
     4  O   -0.512144
     5  H    0.258157
     6  H    0.254041
 Sum of Mulliken charges =  -0.00000

 Dipole moment (field-independent basis, Debye):
    X=             -2.7394    Y=             -2.7875    Z=             -0.0000  Tot=              3.9082
 Quadrupole moment (field-independent basis, Debye-Ang):
   XX=            -10.0933   YY=             -7.4344   ZZ=            -14.7131
   XY=             -3.4931   XZ=             -0.0000   YZ=             -0.0000

 Normal termination of Gaussian 16 at Sun Aug 28 05:13:44 2022.
