 Gaussian 16, Revision A.03,
 Gaussian 16:  ES64L-G16RevA.03 25-Dec-2016

 ------------------
 #p CCSD(T)/cc-pVTZ
 ------------------

 -----------
 H2O_H2O_756
 -----------
 Symbolic Z-matrix:
 Charge =  0 Multiplicity = 1

                         Standard orientation:
 ---------------------------------------------------------------------
 Center     Atomic      Atomic             Coordinates (Angstroms)
 Number     Number       Type             X           Y           Z
 ---------------------------------------------------------------------
      1          8           0        0.076794   -1.402521    0.000000
      2          1           0        0.075754   -0.419920    0.000000
      3          1           0       -0.852361   -1.722171    0.000000
      4          8           0        0.076794    1.239380    0.000000
      5          1           0        0.451858    2.147583    0.000000
      6          1           0       -0.903959    1.299634    0.000000
 ---------------------------------------------------------------------

 SCF Done:  E(RHF) =  -152.106698762     A.U. after   10 cycles
 E2 =    -0.5304583376D+00 EUMP2 =    -0.15263715709936D+03
 CCSD(T)
 CCSD(T)= -0.15266387130D+03

 The electronic state is 1-A'.
 Alpha  occ. eigenvalues --  -20.59373 -20.51361  -1.37277  -1.29219  -0.74994
 Alpha  occ. eigenvalues --   -0.68540  -0.59603  -0.54113  -0.52036  -0.46254
 Alpha virt. eigenvalues --    0.11418   0.16889   0.20059   0.32425   0.48186
 Alpha virt. eigenvalues --    0.53765   0.59062   0.61591   0.69956   0.72155
 Alpha virt. eigenvalues --    0.74210   0.77559   0.80340   0.83185   0.83902

 Mulliken charges:
               1
     1  O   -0.568731
     2  H    0.298032
     3  H    0.227077
     4  O   -0.437889
     5  H    0.239790
     6  H    0.241721
 Sum of Mulliken charges =   0.00000

 Dipole moment (field-independent basis, Debye):
    X=             -2.4959    Y=              3.6256    Z=              0.0000  Tot=              4.4016
 Quadrupole moment (field-independent basis, Debye-Ang):
   XX=             -9.9844   YY=             -9.0557   ZZ=            -14.6896
   XY=              2.7988   XZ=              0.0000   YZ=              0.0000

 Normal termination of Gaussian 16 at Fri Aug 26 20:18:56 2022.
