 Gaussian 16, Revision A.03,
 Gaussian 16:  ES64L-G16RevA.03 25-Dec-2016

 ------------------
 #p CCSD(T)/cc-pVTZ
 ------------------

 -----------
 H2O_H2O_617
 -----------
 Symbolic Z-matrix:
 Charge =  0 Multiplicity = 1

                         Standard orientation:
 ---------------------------------------------------------------------
 Center     Atomic      Atomic             Coordinates (Angstroms)
 Number     Number       Type             X           Y           Z
 ---------------------------------------------------------------------
      1          8           0        0.037597    1.351227    0.000000
      2          1           0        0.033863    0.368633    0.000000
      3          1           0       -0.890679    1.673423   -0.000000
      4          8           0        0.037597   -1.172389    0.000000
      5          1           0        0.917207   -1.610328    0.000000
      6          1           0       -0.661938   -1.862430   -0.000000
 ---------------------------------------------------------------------

 SCF Done:  E(RHF) =  -152.105590068     A.U. after   11 cycles
 E2 =    -0.5307843984D+00 EUMP2 =    -0.15263637446605D+03
 CCSD(T)
 CCSD(T)= -0.15266288577D+03

 The electronic state is 1-A'.
 Alpha  occ. eigenvalues --  -20.59843 -20.49511  -1.37988  -1.27761  -0.74889
 Alpha  occ. eigenvalues --   -0.70003  -0.59114  -0.54775  -0.50092  -0.44762
 Alpha virt. eigenvalues --    0.11473   0.17952   0.19458   0.33528   0.47516
 Alpha virt. eigenvalues --    0.53943   0.59342   0.64773   0.69126   0.72335
 Alpha virt. eigenvalues --    0.73077   0.78268   0.81207   0.83090   0.84125

 Mulliken charges:
               1
     1  O   -0.606259
     2  H    0.311009
     3  H    0.233732
     4  O   -0.451982
     5  H    0.263075
     6  H    0.250426
 Sum of Mulliken charges =  -0.00000

 Dipole moment (field-independent basis, Debye):
    X=             -1.2152    Y=             -4.1404    Z=             -0.0000  Tot=              4.3150
 Quadrupole moment (field-independent basis, Debye-Ang):
   XX=             -9.1341   YY=             -9.2654   ZZ=            -14.6907
   XY=             -3.1905   XZ=              0.0000   YZ=             -0.0000

 Normal termination of Gaussian 16 at Fri Aug 26 19:25:42 2022.
