 Gaussian 16, Revision A.03,
 Gaussian 16:  ES64L-G16RevA.03 25-Dec-2016

 ------------------
 #p CCSD(T)/cc-pVTZ
 ------------------

 ------------
 H2O_H2O_3304
 ------------
 Symbolic Z-matrix:
 Charge =  0 Multiplicity = 1

                         Standard orientation:
 ---------------------------------------------------------------------
 Center     Atomic      Atomic             Coordinates (Angstroms)
 Number     Number       Type             X           Y           Z
 ---------------------------------------------------------------------
      1          8           0        0.082803    2.414971   -0.000000
      2          1           0        0.082434    1.432370   -0.000000
      3          1           0       -0.846571    2.733986   -0.000000
      4          8           0        0.082803   -2.260451    0.000000
      5          1           0        0.336763   -3.209667    0.000000
      6          1           0       -0.897470   -2.192847    0.000000
 ---------------------------------------------------------------------

 SCF Done:  E(RHF) =  -152.108507581     A.U. after   10 cycles
 E2 =    -0.5259595575D+00 EUMP2 =    -0.15263446713833D+03
 CCSD(T)
 CCSD(T)= -0.15266164591D+03

 The electronic state is 1-A'.
 Alpha  occ. eigenvalues --  -20.56523 -20.54927  -1.33816  -1.32235  -0.71235
 Alpha  occ. eigenvalues --   -0.69621  -0.57303  -0.55697  -0.50932  -0.49354
 Alpha virt. eigenvalues --    0.12105   0.15494   0.19316   0.22355   0.53617
 Alpha virt. eigenvalues --    0.55004   0.56414   0.58172   0.67272   0.69157
 Alpha virt. eigenvalues --    0.77974   0.78603   0.79503   0.80858   0.82733

 Mulliken charges:
               1
     1  O   -0.512581
     2  H    0.260977
     3  H    0.250306
     4  O   -0.511506
     5  H    0.259853
     6  H    0.252951
 Sum of Mulliken charges =  -0.00000

 Dipole moment (field-independent basis, Debye):
    X=             -2.8259    Y=             -2.7573    Z=              0.0000  Tot=              3.9482
 Quadrupole moment (field-independent basis, Debye-Ang):
   XX=            -10.2517   YY=             -8.1246   ZZ=            -14.7149
   XY=             -3.0277   XZ=              0.0000   YZ=             -0.0000

 CCSD(T)=-152.6616459\RMSD=7.153e-09\PG=CS [SG(H4O2)]\\@
 Normal termination of Gaussian 16 at Fri Aug 26 20:56:12 2022.
