 Gaussian 16, Revision A.03,
 Gaussian 16:  ES64L-G16RevA.03 25-Dec-2016

 ------------------
 #p CCSD(T)/cc-pVTZ
 ------------------

 -----------
 H2O_H2O_195
 -----------
 Symbolic Z-matrix:
 Charge =  0 Multiplicity = 1

                         Standard orientation:
 ---------------------------------------------------------------------
 Center     Atomic      Atomic             Coordinates (Angstroms)
 Number     Number       Type             X           Y           Z
 ---------------------------------------------------------------------
      1          8           0        0.026892    1.178583   -0.000000
      2          1           0        0.021740    0.195995   -0.000000
      3          1           0       -0.900918    1.502118   -0.000000
      4          8           0        0.026892   -1.005503    0.000000
      5          1           0        0.974666   -1.264792    0.000000
      6          1           0       -0.525754   -1.817961    0.000000
 ---------------------------------------------------------------------

 SCF Done:  E(RHF) =  -152.066034255     A.U. after   11 cycles
 E2 =    -0.5346630665D+00 EUMP2 =    -0.15260069732145D+03
 CCSD(T)
 CCSD(T)= -0.15262649409D+03

 The electronic state is 1-A'.
 Alpha  occ. eigenvalues --  -20.61376 -20.45811  -1.41869  -1.25414  -0.79142
 Alpha  occ. eigenvalues --   -0.73830  -0.57414  -0.56468  -0.46076  -0.42118
 Alpha virt. eigenvalues --    0.10798   0.17163   0.20571   0.33715   0.47020
 Alpha virt. eigenvalues --    0.52408   0.60746   0.68490   0.70624   0.71484
 Alpha virt. eigenvalues --    0.77212   0.78426   0.79859   0.84034   0.85295

 Mulliken charges:
               1
     1  O   -0.659881
     2  H    0.292185
     3  H    0.221925
     4  O   -0.351867
     5  H    0.262319
     6  H    0.235319
 Sum of Mulliken charges =  -0.00000

 Dipole moment (field-independent basis, Debye):
    X=             -0.8309    Y=             -4.6791    Z=              0.0000  Tot=              4.7523
 Quadrupole moment (field-independent basis, Debye-Ang):
   XX=             -9.2051   YY=             -9.9287   ZZ=            -14.5944
   XY=             -2.8558   XZ=              0.0000   YZ=             -0.0000

 Normal termination of Gaussian 16 at Fri Aug 26 16:31:13 2022.
