 Gaussian 16, Revision A.03,
 Gaussian 16:  ES64L-G16RevA.03 25-Dec-2016

 ------------------
 #p CCSD(T)/cc-pVTZ
 ------------------

 -----------
 H2O_H2O_620
 -----------
 Symbolic Z-matrix:
 Charge =  0 Multiplicity = 1

                         Standard orientation:
 ---------------------------------------------------------------------
 Center     Atomic      Atomic             Coordinates (Angstroms)
 Number     Number       Type             X           Y           Z
 ---------------------------------------------------------------------
      1          8           0        0.026831    1.348123    0.000000
      2          1           0        0.022371    0.365531    0.000000
      3          1           0       -0.901206    1.671005   -0.000000
      4          8           0        0.026831   -1.175005    0.000000
      5          1           0        0.974787   -1.433626    0.000000
      6          1           0       -0.525244   -1.987852   -0.000000
 ---------------------------------------------------------------------

 SCF Done:  E(RHF) =  -152.104978755     A.U. after   11 cycles
 E2 =    -0.5308279597D+00 EUMP2 =    -0.15263580671456D+03
 CCSD(T)
 CCSD(T)= -0.15266232765D+03

 The electronic state is 1-A'.
 Alpha  occ. eigenvalues --  -20.59779 -20.49718  -1.37969  -1.27937  -0.75265
 Alpha  occ. eigenvalues --   -0.69454  -0.59372  -0.54724  -0.50269  -0.44952
 Alpha virt. eigenvalues --    0.11557   0.18097   0.19356   0.33658   0.47663
 Alpha virt. eigenvalues --    0.53916   0.58459   0.66922   0.68392   0.72287
 Alpha virt. eigenvalues --    0.73492   0.77568   0.80443   0.83705   0.83985

 Mulliken charges:
               1
     1  O   -0.606701
     2  H    0.304635
     3  H    0.238486
     4  O   -0.441693
     5  H    0.261838
     6  H    0.243434
 Sum of Mulliken charges =  -0.00000

 Dipole moment (field-independent basis, Debye):
    X=             -0.8734    Y=             -4.0156    Z=              0.0000  Tot=              4.1094
 Quadrupole moment (field-independent basis, Debye-Ang):
   XX=             -9.2559   YY=             -9.2452   ZZ=            -14.6865
   XY=             -3.2989   XZ=              0.0000   YZ=              0.0000

 Normal termination of Gaussian 16 at Fri Aug 26 19:26:50 2022.
