 Gaussian 16, Revision A.03,
 Gaussian 16:  ES64L-G16RevA.03 25-Dec-2016

 ------------------
 #p CCSD(T)/cc-pVTZ
 ------------------

 ------------
 H2O_H2O_4195
 ------------
 Symbolic Z-matrix:
 Charge =  0 Multiplicity = 1

                         Standard orientation:
 ---------------------------------------------------------------------
 Center     Atomic      Atomic             Coordinates (Angstroms)
 Number     Number       Type             X           Y           Z
 ---------------------------------------------------------------------
      1          8           0        0.026622    2.774166   -0.000000
      2          1           0        0.024529    1.791567   -0.000000
      3          1           0       -0.902190    3.094813   -0.000000
      4          8           0        0.026622   -2.600920    0.000000
      5          1           0        0.975199   -2.857257    0.000000
      6          1           0       -0.523493   -3.415095    0.000000
 ---------------------------------------------------------------------

 SCF Done:  E(RHF) =  -152.108655735     A.U. after   10 cycles
 E2 =    -0.5258035611D+00 EUMP2 =    -0.15263445929618D+03
 CCSD(T)
 CCSD(T)= -0.15266164953D+03

 The electronic state is 1-A'.
 Alpha  occ. eigenvalues --  -20.56240 -20.54917  -1.33541  -1.32226  -0.70945
 Alpha  occ. eigenvalues --   -0.69630  -0.57043  -0.55703  -0.50661  -0.49352
 Alpha virt. eigenvalues --    0.13143   0.15084   0.19553   0.21306   0.53463
 Alpha virt. eigenvalues --    0.54969   0.56635   0.57820   0.66707   0.68922
 Alpha virt. eigenvalues --    0.78228   0.79293   0.79499   0.80315   0.82766

 Mulliken charges:
               1
     1  O   -0.515152
     2  H    0.260694
     3  H    0.254185
     4  O   -0.515625
     5  H    0.257990
     6  H    0.257908
 Sum of Mulliken charges =  -0.00000

 Dipole moment (field-independent basis, Debye):
    X=             -0.9131    Y=             -3.0497    Z=              0.0000  Tot=              3.1834
 Quadrupole moment (field-independent basis, Debye-Ang):
   XX=             -9.2889   YY=             -6.7916   ZZ=            -14.7156
   XY=             -6.6167   XZ=              0.0000   YZ=             -0.0000

 Normal termination of Gaussian 16 at Sun Aug 28 00:36:41 2022.
