 Gaussian 16, Revision A.03,
 Gaussian 16:  ES64L-G16RevA.03 25-Dec-2016

 ------------------
 #p CCSD(T)/cc-pVTZ
 ------------------

 ------------
 H2O_H2O_4951
 ------------
 Symbolic Z-matrix:
 Charge =  0 Multiplicity = 1

                         Standard orientation:
 ---------------------------------------------------------------------
 Center     Atomic      Atomic             Coordinates (Angstroms)
 Number     Number       Type             X           Y           Z
 ---------------------------------------------------------------------
      1          8           0        0.090683   -3.064532    0.000000
      2          1           0        0.090619   -2.081931    0.000000
      3          1           0       -0.838789   -3.383260    0.000000
      4          8           0        0.090683    2.925820    0.000000
      5          1           0        0.154884    3.906322    0.000000
      6          1           0       -0.857645    2.668565    0.000000
 ---------------------------------------------------------------------

 SCF Done:  E(RHF) =  -152.107642456     A.U. after   10 cycles
 E2 =    -0.5258613539D+00 EUMP2 =    -0.15263350380977D+03
 CCSD(T)
 CCSD(T)= -0.15266071932D+03

 The electronic state is 1-A'.
 Alpha  occ. eigenvalues --  -20.56137 -20.55347  -1.33439  -1.32648  -0.70851
 Alpha  occ. eigenvalues --   -0.70047  -0.56898  -0.56100  -0.50550  -0.49761
 Alpha virt. eigenvalues --    0.13185   0.14551   0.19147   0.21179   0.53483
 Alpha virt. eigenvalues --    0.54674   0.56620   0.57558   0.67114   0.68262
 Alpha virt. eigenvalues --    0.78337   0.79113   0.79701   0.80887   0.81678

 Mulliken charges:
               1
     1  O   -0.509744
     2  H    0.257139
     3  H    0.252588
     4  O   -0.510539
     5  H    0.257594
     6  H    0.252962
 Sum of Mulliken charges =  -0.00000

 Dipole moment (field-independent basis, Debye):
    X=             -3.1133    Y=              2.4262    Z=              0.0000  Tot=              3.9471
 Quadrupole moment (field-independent basis, Debye-Ang):
   XX=            -10.6985   YY=             -8.8392   ZZ=            -14.7120
   XY=              2.4357   XZ=              0.0000   YZ=              0.0000

 Normal termination of Gaussian 16 at Sun Aug 28 07:11:56 2022.
