 Gaussian 16, Revision A.03,
 Gaussian 16:  ES64L-G16RevA.03 25-Dec-2016

 ------------------
 #p CCSD(T)/cc-pVTZ
 ------------------

 ------------
 H2O_H2O_4491
 ------------
 Symbolic Z-matrix:
 Charge =  0 Multiplicity = 1

                         Standard orientation:
 ---------------------------------------------------------------------
 Center     Atomic      Atomic             Coordinates (Angstroms)
 Number     Number       Type             X           Y           Z
 ---------------------------------------------------------------------
      1          8           0        0.041106    2.897472   -0.000000
      2          1           0        0.039540    1.914871   -0.000000
      3          1           0       -0.887878    3.217619   -0.000000
      4          8           0        0.041106   -2.717516    0.000000
      5          1           0        0.891280   -3.210172    0.000000
      6          1           0       -0.700642   -3.361965    0.000000
 ---------------------------------------------------------------------

 SCF Done:  E(RHF) =  -152.108465070     A.U. after   10 cycles
 E2 =    -0.5258043251D+00 EUMP2 =    -0.15263426939465D+03
 CCSD(T)
 CCSD(T)= -0.15266146554D+03

 The electronic state is 1-A'.
 Alpha  occ. eigenvalues --  -20.56185 -20.54938  -1.33486  -1.32246  -0.70890
 Alpha  occ. eigenvalues --   -0.69648  -0.56982  -0.55719  -0.50606  -0.49370
 Alpha virt. eigenvalues --    0.13364   0.14947   0.19699   0.21057   0.53653
 Alpha virt. eigenvalues --    0.54856   0.56668   0.57803   0.66827   0.68767
 Alpha virt. eigenvalues --    0.78281   0.79485   0.79661   0.80129   0.82688

 Mulliken charges:
               1
     1  O   -0.514181
     2  H    0.260488
     3  H    0.253557
     4  O   -0.514863
     5  H    0.258142
     6  H    0.256856
 Sum of Mulliken charges =   0.00000

 Dipole moment (field-independent basis, Debye):
    X=             -1.4099    Y=             -3.1592    Z=              0.0000  Tot=              3.4595
 Quadrupole moment (field-independent basis, Debye-Ang):
   XX=             -9.1494   YY=             -6.2469   ZZ=            -14.7150
   XY=             -6.0008   XZ=              0.0000   YZ=             -0.0000

 Normal termination of Gaussian 16 at Sun Aug 28 03:19:35 2022.
