 Gaussian 16, Revision A.03,
 Gaussian 16:  ES64L-G16RevA.03 25-Dec-2016

 ------------------
 #p CCSD(T)/cc-pVTZ
 ------------------

 ------------
 H2O_H2O_1253
 ------------
 Symbolic Z-matrix:
 Charge =  0 Multiplicity = 1

                         Standard orientation:
 ---------------------------------------------------------------------
 Center     Atomic      Atomic             Coordinates (Angstroms)
 Number     Number       Type             X           Y           Z
 ---------------------------------------------------------------------
      1          8           0        0.085611   -1.594587    0.000000
      2          1           0        0.085201   -0.611986    0.000000
      3          1           0       -0.843749   -1.913642    0.000000
      4          8           0        0.085611    1.445014    0.000000
      5          1           0        0.276905    2.408815    0.000000
      6          1           0       -0.888136    1.313399    0.000000
 ---------------------------------------------------------------------

 SCF Done:  E(RHF) =  -152.110168810     A.U. after   10 cycles
 E2 =    -0.5282087816D+00 EUMP2 =    -0.15263837759163D+03
 CCSD(T)
 CCSD(T)= -0.15266538771D+03

 The electronic state is 1-A'.
 Alpha  occ. eigenvalues --  -20.58261 -20.53538  -1.35691  -1.30984  -0.73423
 Alpha  occ. eigenvalues --   -0.68421  -0.59206  -0.54258  -0.52725  -0.48081
 Alpha virt. eigenvalues --    0.11581   0.16595   0.20119   0.29500   0.48996
 Alpha virt. eigenvalues --    0.54387   0.58113   0.58783   0.68717   0.73001
 Alpha virt. eigenvalues --    0.74621   0.77399   0.81270   0.81743   0.83599

 Mulliken charges:
               1
     1  O   -0.533392
     2  H    0.280052
     3  H    0.236635
     4  O   -0.470201
     5  H    0.242936
     6  H    0.243970
 Sum of Mulliken charges =  -0.00000

 Dipole moment (field-independent basis, Debye):
    X=             -2.8423    Y=              3.0134    Z=              0.0000  Tot=              4.1424
 Quadrupole moment (field-independent basis, Debye-Ang):
   XX=            -10.4488   YY=             -8.8436   ZZ=            -14.7124
   XY=              2.5720   XZ=              0.0000   YZ=              0.0000

 CCSD(T)=-152.6653877\RMSD=7.396e-09\PG=CS [SG(H4O2)]\\@
 Normal termination of Gaussian 16 at Fri Aug 26 23:24:33 2022.
