 Gaussian 16, Revision A.03,
 Gaussian 16:  ES64L-G16RevA.03 25-Dec-2016

 ------------------
 #p CCSD(T)/cc-pVTZ
 ------------------

 -----------
 H2O_H2O_930
 -----------
 Symbolic Z-matrix:
 Charge =  0 Multiplicity = 1

                         Standard orientation:
 ---------------------------------------------------------------------
 Center     Atomic      Atomic             Coordinates (Angstroms)
 Number     Number       Type             X           Y           Z
 ---------------------------------------------------------------------
      1          8           0        0.079877   -1.470080    0.000000
      2          1           0        0.079078   -0.487479    0.000000
      3          1           0       -0.849357   -1.789502    0.000000
      4          8           0        0.079877    1.311069    0.000000
      5          1           0        0.394967    2.241780    0.000000
      6          1           0       -0.902718    1.307290    0.000000
 ---------------------------------------------------------------------

 SCF Done:  E(RHF) =  -152.109194725     A.U. after   10 cycles
 E2 =    -0.5294827867D+00 EUMP2 =    -0.15263867751142D+03
 CCSD(T)
 CCSD(T)= -0.15266553122D+03

 The electronic state is 1-A'.
 Alpha  occ. eigenvalues --  -20.58925 -20.52285  -1.36582  -1.29941  -0.74328
 Alpha  occ. eigenvalues --   -0.68188  -0.59673  -0.53525  -0.52980  -0.47010
 Alpha virt. eigenvalues --    0.11519   0.16822   0.20013   0.31575   0.48272
 Alpha virt. eigenvalues --    0.54032   0.58695   0.60384   0.69376   0.72292
 Alpha virt. eigenvalues --    0.74456   0.77262   0.80884   0.82502   0.83794

 Mulliken charges:
               1
     1  O   -0.553765
     2  H    0.291743
     3  H    0.231144
     4  O   -0.450441
     5  H    0.238894
     6  H    0.242424
 Sum of Mulliken charges =  -0.00000

 Dipole moment (field-independent basis, Debye):
    X=             -2.6203    Y=              3.3938    Z=              0.0000  Tot=              4.2877
 Quadrupole moment (field-independent basis, Debye-Ang):
   XX=            -10.1391   YY=             -8.9221   ZZ=            -14.7021
   XY=              2.7538   XZ=              0.0000   YZ=              0.0000

 Normal termination of Gaussian 16 at Fri Aug 26 21:24:21 2022.
