 Gaussian 16, Revision A.03,
 Gaussian 16:  ES64L-G16RevA.03 25-Dec-2016

 ------------------
 #p CCSD(T)/cc-pVTZ
 ------------------

 ------------
 H2O_H2O_3085
 ------------
 Symbolic Z-matrix:
 Charge =  0 Multiplicity = 1

                         Standard orientation:
 ---------------------------------------------------------------------
 Center     Atomic      Atomic             Coordinates (Angstroms)
 Number     Number       Type             X           Y           Z
 ---------------------------------------------------------------------
      1          8           0        0.063237    2.336626   -0.000000
      2          1           0        0.062115    1.354025   -0.000000
      3          1           0       -0.865892    2.656353    0.000000
      4          8           0        0.063237   -2.161119   -0.000000
      5          1           0        0.660516   -2.941351   -0.000000
      6          1           0       -0.868529   -2.473080    0.000000
 ---------------------------------------------------------------------

 SCF Done:  E(RHF) =  -152.109459455     A.U. after   10 cycles
 E2 =    -0.5259492579D+00 EUMP2 =    -0.15263540871257D+03
 CCSD(T)
 CCSD(T)= -0.15266256061D+03

 The electronic state is 1-A'.
 Alpha  occ. eigenvalues --  -20.56615 -20.54554  -1.33897  -1.31871  -0.71303
 Alpha  occ. eigenvalues --   -0.69260  -0.57423  -0.55350  -0.51023  -0.49001
 Alpha virt. eigenvalues --    0.12429   0.15809   0.19460   0.22468   0.53374
 Alpha virt. eigenvalues --    0.55298   0.56323   0.58475   0.67926   0.69337
 Alpha virt. eigenvalues --    0.77878   0.78924   0.79717   0.79834   0.83122

 Mulliken charges:
               1
     1  O   -0.516929
     2  H    0.263721
     3  H    0.250700
     4  O   -0.513308
     5  H    0.260147
     6  H    0.255668
 Sum of Mulliken charges =  -0.00000

 Dipole moment (field-independent basis, Debye):
    X=             -2.1564    Y=             -3.1532    Z=             -0.0000  Tot=              3.8201
 Quadrupole moment (field-independent basis, Debye-Ang):
   XX=             -9.4577   YY=             -7.3135   ZZ=            -14.7184
   XY=             -4.0835   XZ=             -0.0000   YZ=             -0.0000

 CCSD(T)=-152.6625606\RMSD=6.948e-09\PG=CS [SG(H4O2)]\\@
 Normal termination of Gaussian 16 at Fri Aug 26 19:41:13 2022.
