 Gaussian 16, Revision A.03,
 Gaussian 16:  ES64L-G16RevA.03 25-Dec-2016

 ------------------
 #p CCSD(T)/cc-pVTZ
 ------------------

 ------------
 H2O_H2O_3487
 ------------
 Symbolic Z-matrix:
 Charge =  0 Multiplicity = 1

                         Standard orientation:
 ---------------------------------------------------------------------
 Center     Atomic      Atomic             Coordinates (Angstroms)
 Number     Number       Type             X           Y           Z
 ---------------------------------------------------------------------
      1          8           0        0.055982    2.498030    0.000000
      2          1           0        0.054680    1.515429    0.000000
      3          1           0       -0.873088    2.817928    0.000000
      4          8           0        0.055982   -2.319112    0.000000
      5          1           0        0.749865   -3.014837    0.000000
      6          1           0       -0.827171   -2.749861    0.000000
 ---------------------------------------------------------------------

 SCF Done:  E(RHF) =  -152.109109059     A.U. after   10 cycles
 E2 =    -0.5258713914D+00 EUMP2 =    -0.15263498044991D+03
 CCSD(T)
 CCSD(T)= -0.15266214906D+03

 The electronic state is 1-A'.
 Alpha  occ. eigenvalues --  -20.56450 -20.54669  -1.33740  -1.31983  -0.71144
 Alpha  occ. eigenvalues --   -0.69377  -0.57256  -0.55462  -0.50863  -0.49111
 Alpha virt. eigenvalues --    0.12723   0.15524   0.19545   0.21808   0.53406
 Alpha virt. eigenvalues --    0.55082   0.56461   0.58061   0.67043   0.69326
 Alpha virt. eigenvalues --    0.78041   0.78991   0.79609   0.79728   0.83025

 Mulliken charges:
               1
     1  O   -0.516031
     2  H    0.262808
     3  H    0.251903
     4  O   -0.514996
     5  H    0.259854
     6  H    0.256462
 Sum of Mulliken charges =   0.00000

 Dipole moment (field-independent basis, Debye):
    X=             -1.9131    Y=             -3.1852    Z=              0.0000  Tot=              3.7156
 Quadrupole moment (field-independent basis, Debye-Ang):
   XX=             -9.2863   YY=             -6.9352   ZZ=            -14.7173
   XY=             -4.6046   XZ=             -0.0000   YZ=              0.0000

 CCSD(T)=-152.6621491\RMSD=7.022e-09\PG=CS [SG(H4O2)]\\@
 Normal termination of Gaussian 16 at Fri Aug 26 21:58:05 2022.
