 Gaussian 16, Revision A.03,
 Gaussian 16:  ES64L-G16RevA.03 25-Dec-2016

 ------------------
 #p CCSD(T)/cc-pVTZ
 ------------------

 ------------
 H2O_H2O_1713
 ------------
 Symbolic Z-matrix:
 Charge =  0 Multiplicity = 1

                         Standard orientation:
 ---------------------------------------------------------------------
 Center     Atomic      Atomic             Coordinates (Angstroms)
 Number     Number       Type             X           Y           Z
 ---------------------------------------------------------------------
      1          8           0        0.052345    1.790526   -0.000000
      2          1           0        0.050316    0.807927   -0.000000
      3          1           0       -0.876488    2.111111   -0.000000
      4          8           0        0.052345   -1.610689    0.000000
      5          1           0        0.789764   -2.260088    0.000000
      6          1           0       -0.801106   -2.097646    0.000000
 ---------------------------------------------------------------------

 SCF Done:  E(RHF) =  -152.113139677     A.U. after   10 cycles
 E2 =    -0.5267833108D+00 EUMP2 =    -0.15263992298826D+03
 CCSD(T)
 CCSD(T)= -0.15266695468D+03

 The electronic state is 1-A'.
 Alpha  occ. eigenvalues --  -20.57678 -20.53314  -1.34938  -1.30709  -0.72304
 Alpha  occ. eigenvalues --   -0.68216  -0.58701  -0.54116  -0.52074  -0.47860
 Alpha virt. eigenvalues --    0.12101   0.17274   0.19099   0.27736   0.50532
 Alpha virt. eigenvalues --    0.54861   0.56307   0.59133   0.69102   0.72323
 Alpha virt. eigenvalues --    0.75192   0.76957   0.81137   0.83211   0.84569

 Mulliken charges:
               1
     1  O   -0.534520
     2  H    0.273241
     3  H    0.246479
     4  O   -0.506634
     5  H    0.263810
     6  H    0.257624
 Sum of Mulliken charges =  -0.00000

 Dipole moment (field-independent basis, Debye):
    X=             -1.7614    Y=             -3.4564    Z=              0.0000  Tot=              3.8793
 Quadrupole moment (field-independent basis, Debye-Ang):
   XX=             -9.2335   YY=             -8.0964   ZZ=            -14.7327
   XY=             -3.7734   XZ=              0.0000   YZ=              0.0000

 Normal termination of Gaussian 16 at Sun Aug 28 00:53:47 2022.
