 Gaussian 16, Revision A.03,
 Gaussian 16:  ES64L-G16RevA.03 25-Dec-2016

 ------------------
 #p CCSD(T)/cc-pVTZ
 ------------------

 ------------
 H2O_H2O_2717
 ------------
 Symbolic Z-matrix:
 Charge =  0 Multiplicity = 1

                         Standard orientation:
 ---------------------------------------------------------------------
 Center     Atomic      Atomic             Coordinates (Angstroms)
 Number     Number       Type             X           Y           Z
 ---------------------------------------------------------------------
      1          8           0        0.037461    2.188923   -0.000000
      2          1           0        0.035217    1.206324   -0.000000
      3          1           0       -0.891302    2.509711   -0.000000
      4          8           0        0.037461   -2.009971    0.000000
      5          1           0        0.917735   -2.446576    0.000000
      6          1           0       -0.661027   -2.701072    0.000000
 ---------------------------------------------------------------------

 SCF Done:  E(RHF) =  -152.110513387     A.U. after   10 cycles
 E2 =    -0.5260016360D+00 EUMP2 =    -0.15263651502343D+03
 CCSD(T)
 CCSD(T)= -0.15266363663D+03

 The electronic state is 1-A'.
 Alpha  occ. eigenvalues --  -20.56800 -20.54275  -1.34070  -1.31602  -0.71467
 Alpha  occ. eigenvalues --   -0.69000  -0.57644  -0.55093  -0.51204  -0.48744
 Alpha virt. eigenvalues --    0.12412   0.16237   0.19367   0.23481   0.53026
 Alpha virt. eigenvalues --    0.55590   0.56376   0.58789   0.69047   0.69703
 Alpha virt. eigenvalues --    0.77625   0.78999   0.79985   0.80086   0.83469

 Mulliken charges:
               1
     1  O   -0.522086
     2  H    0.265558
     3  H    0.251993
     4  O   -0.513220
     5  H    0.260257
     6  H    0.257499
 Sum of Mulliken charges =   0.00000

 Dipole moment (field-independent basis, Debye):
    X=             -1.2756    Y=             -3.2533    Z=              0.0000  Tot=              3.4944
 Quadrupole moment (field-independent basis, Debye-Ang):
   XX=             -9.1590   YY=             -7.4121   ZZ=            -14.7219
   XY=             -4.8614   XZ=              0.0000   YZ=             -0.0000

 Normal termination of Gaussian 16 at Fri Aug 26 16:47:16 2022.
