 Gaussian 16, Revision A.03,
 Gaussian 16:  ES64L-G16RevA.03 25-Dec-2016

 ------------------
 #p CCSD(T)/cc-pVTZ
 ------------------

 ------------
 H2O_H2O_2898
 ------------
 Symbolic Z-matrix:
 Charge =  0 Multiplicity = 1

                         Standard orientation:
 ---------------------------------------------------------------------
 Center     Atomic      Atomic             Coordinates (Angstroms)
 Number     Number       Type             X           Y           Z
 ---------------------------------------------------------------------
      1          8           0       -0.016637    2.250274    0.000000
      2          1           0       -0.013650    1.267678    0.000000
      3          1           0        0.911883    2.571764    0.000000
      4          8           0       -0.016637   -2.086889    0.000000
      5          1           0       -0.996935   -2.154134    0.000000
      6          1           0        0.364894   -2.992395    0.000000
 ---------------------------------------------------------------------

 SCF Done:  E(RHF) =  -152.109956616     A.U. after   10 cycles
 E2 =    -0.5259455178D+00 EUMP2 =    -0.15263590213353D+03
 CCSD(T)
 CCSD(T)= -0.15266304272D+03

 The electronic state is 1-A'.
 Alpha  occ. eigenvalues --  -20.56675 -20.54581  -1.33960  -1.31901  -0.71368
 Alpha  occ. eigenvalues --   -0.69309  -0.57506  -0.55393  -0.51087  -0.49040
 Alpha virt. eigenvalues --    0.12267   0.15997   0.19262   0.23308   0.53783
 Alpha virt. eigenvalues --    0.55581   0.56375   0.58339   0.68391   0.69422
 Alpha virt. eigenvalues --    0.77779   0.78877   0.79799   0.80554   0.83213

 Mulliken charges:
               1
     1  O   -0.520834
     2  H    0.263307
     3  H    0.254554
     4  O   -0.514555
     5  H    0.258780
     6  H    0.258747
 Sum of Mulliken charges =  -0.00000

 Dipole moment (field-independent basis, Debye):
    X=              0.5713    Y=             -2.9469    Z=              0.0000  Tot=              3.0018
 Quadrupole moment (field-independent basis, Debye-Ang):
   XX=             -9.5431   YY=             -7.8593   ZZ=            -14.7198
   XY=              5.9048   XZ=              0.0000   YZ=              0.0000

 Normal termination of Gaussian 16 at Fri Aug 26 18:11:11 2022.
