 Gaussian 16, Revision A.03,
 Gaussian 16:  ES64L-G16RevA.03 25-Dec-2016

 ------------------
 #p CCSD(T)/cc-pVTZ
 ------------------

 ------------
 H2O_H2O_1474
 ------------
 Symbolic Z-matrix:
 Charge =  0 Multiplicity = 1

                         Standard orientation:
 ---------------------------------------------------------------------
 Center     Atomic      Atomic             Coordinates (Angstroms)
 Number     Number       Type             X           Y           Z
 ---------------------------------------------------------------------
      1          8           0        0.013619   -1.679622    0.000000
      2          1           0        0.009407   -0.697029    0.000000
      3          1           0       -0.914499   -2.002270    0.000000
      4          8           0        0.013619    1.520394    0.000000
      5          1           0        0.996212    1.524606    0.000000
      6          1           0       -0.309029    2.448513    0.000000
 ---------------------------------------------------------------------

 SCF Done:  E(RHF) =  -152.112930498     A.U. after   10 cycles
 E2 =    -0.5271623570D+00 EUMP2 =    -0.15264009285497D+03
 CCSD(T)
 CCSD(T)= -0.15266710880D+03

 The electronic state is 1-A'.
 Alpha  occ. eigenvalues --  -20.57893 -20.53352  -1.35234  -1.30788  -0.72756
 Alpha  occ. eigenvalues --   -0.68302  -0.59029  -0.54119  -0.52337  -0.47939
 Alpha virt. eigenvalues --    0.12150   0.17500   0.19201   0.29086   0.50782
 Alpha virt. eigenvalues --    0.54492   0.55605   0.60794   0.68765   0.74030
 Alpha virt. eigenvalues --    0.74302   0.77119   0.81272   0.82633   0.84263

 Mulliken charges:
               1
     1  O   -0.544820
     2  H    0.274626
     3  H    0.253896
     4  O   -0.497274
     5  H    0.262569
     6  H    0.251003
 Sum of Mulliken charges =   0.00000

 Dipole moment (field-independent basis, Debye):
    X=             -0.4699    Y=              3.1302    Z=              0.0000  Tot=              3.1653
 Quadrupole moment (field-independent basis, Debye-Ang):
   XX=             -9.6481   YY=             -8.5839   ZZ=            -14.7281
   XY=              4.5160   XZ=              0.0000   YZ=              0.0000

 Normal termination of Gaussian 16 at Sat Aug 27 00:48:20 2022.
