 Gaussian 16, Revision A.03,
 Gaussian 16:  ES64L-G16RevA.03 25-Dec-2016

 ------------------
 #p CCSD(T)/cc-pVTZ
 ------------------

 ------------
 H2O_H2O_2400
 ------------
 Symbolic Z-matrix:
 Charge =  0 Multiplicity = 1

                         Standard orientation:
 ---------------------------------------------------------------------
 Center     Atomic      Atomic             Coordinates (Angstroms)
 Number     Number       Type             X           Y           Z
 ---------------------------------------------------------------------
      1          8           0        0.092949   -2.044177    0.000000
      2          1           0        0.092949   -1.061576    0.000000
      3          1           0       -0.836544   -2.362844    0.000000
      4          8           0        0.092949    1.911390    0.000000
      5          1           0        0.092950    2.893992    0.000000
      6          1           0       -0.836544    1.592723    0.000000
 ---------------------------------------------------------------------

 SCF Done:  E(RHF) =  -152.108482092     A.U. after   10 cycles
 E2 =    -0.5263752934D+00 EUMP2 =    -0.15263485738567D+03
 CCSD(T)
 CCSD(T)= -0.15266201546D+03

 The electronic state is 1-A'.
 Alpha  occ. eigenvalues --  -20.56989 -20.55010  -1.34280  -1.32312  -0.71757
 Alpha  occ. eigenvalues --   -0.69661  -0.57756  -0.55752  -0.51382  -0.49424
 Alpha virt. eigenvalues --    0.11417   0.15884   0.19920   0.24389   0.53341
 Alpha virt. eigenvalues --    0.55816   0.56525   0.57675   0.68245   0.71517
 Alpha virt. eigenvalues --    0.77150   0.79156   0.79556   0.79882   0.83363

 Mulliken charges:
               1
     1  O   -0.512514
     2  H    0.262920
     3  H    0.246763
     4  O   -0.503260
     5  H    0.259235
     6  H    0.246856
 Sum of Mulliken charges =  -0.00000

 Dipole moment (field-independent basis, Debye):
    X=             -3.1480    Y=              2.4289    Z=              0.0000  Tot=              3.9761
 Quadrupole moment (field-independent basis, Debye-Ang):
   XX=            -10.8709   YY=             -9.1771   ZZ=            -14.7132
   XY=              2.1428   XZ=              0.0000   YZ=              0.0000

 Normal termination of Gaussian 16 at Sun Aug 28 07:00:19 2022.
