 Gaussian 16, Revision A.03,
 Gaussian 16:  ES64L-G16RevA.03 25-Dec-2016

 ------------------
 #p CCSD(T)/cc-pVTZ
 ------------------

 ------------
 H2O_H2O_2445
 ------------
 Symbolic Z-matrix:
 Charge =  0 Multiplicity = 1

                         Standard orientation:
 ---------------------------------------------------------------------
 Center     Atomic      Atomic             Coordinates (Angstroms)
 Number     Number       Type             X           Y           Z
 ---------------------------------------------------------------------
      1          8           0        0.026687    2.076114   -0.000000
      2          1           0        0.023859    1.093516   -0.000000
      3          1           0       -0.901885    2.397454   -0.000000
      4          8           0        0.026687   -1.902907    0.000000
      5          1           0        0.975072   -2.159954    0.000000
      6          1           0       -0.524036   -2.716670    0.000000
 ---------------------------------------------------------------------

 SCF Done:  E(RHF) =  -152.111085612     A.U. after   10 cycles
 E2 =    -0.5260999071D+00 EUMP2 =    -0.15263718551863D+03
 CCSD(T)
 CCSD(T)= -0.15266428887D+03

 The electronic state is 1-A'.
 Alpha  occ. eigenvalues --  -20.56963 -20.54169  -1.34230  -1.31504  -0.71630
 Alpha  occ. eigenvalues --   -0.68911  -0.57834  -0.54992  -0.51365  -0.48651
 Alpha virt. eigenvalues --    0.12303   0.16500   0.19271   0.24449   0.53164
 Alpha virt. eigenvalues --    0.55449   0.56381   0.58669   0.68961   0.70965
 Alpha virt. eigenvalues --    0.77284   0.78881   0.80206   0.81447   0.83695

 Mulliken charges:
               1
     1  O   -0.525222
     2  H    0.266176
     3  H    0.252798
     4  O   -0.511871
     5  H    0.260329
     6  H    0.257791
 Sum of Mulliken charges =  -0.00000

 Dipole moment (field-independent basis, Debye):
    X=             -0.9091    Y=             -3.1810    Z=              0.0000  Tot=              3.3083
 Quadrupole moment (field-independent basis, Debye-Ang):
   XX=             -9.2886   YY=             -7.7493   ZZ=            -14.7237
   XY=             -5.0178   XZ=              0.0000   YZ=             -0.0000

 Normal termination of Gaussian 16 at Sun Aug 28 07:20:08 2022.
