 Gaussian 16, Revision A.03,
 Gaussian 16:  ES64L-G16RevA.03 25-Dec-2016

 ------------------
 #p CCSD(T)/cc-pVTZ
 ------------------

 ------------
 H2O_H2O_4932
 ------------
 Symbolic Z-matrix:
 Charge =  0 Multiplicity = 1

                         Standard orientation:
 ---------------------------------------------------------------------
 Center     Atomic      Atomic             Coordinates (Angstroms)
 Number     Number       Type             X           Y           Z
 ---------------------------------------------------------------------
      1          8           0        0.073521    3.069908    0.000000
      2          1           0        0.072969    2.087307    0.000000
      3          1           0       -0.855793    3.389096   -0.000000
      4          8           0        0.073521   -2.902940    0.000000
      5          1           0        0.507620   -3.784452    0.000000
      6          1           0       -0.901129   -3.027693   -0.000000
 ---------------------------------------------------------------------

 SCF Done:  E(RHF) =  -152.107984399     A.U. after   10 cycles
 E2 =    -0.5258317316D+00 EUMP2 =    -0.15263381613099D+03
 CCSD(T)
 CCSD(T)= -0.15266102402D+03

 The electronic state is 1-A'.
 Alpha  occ. eigenvalues --  -20.56127 -20.55136  -1.33429  -1.32440  -0.70837
 Alpha  occ. eigenvalues --   -0.69840  -0.56903  -0.55901  -0.50544  -0.49558
 Alpha virt. eigenvalues --    0.13438   0.14676   0.19589   0.20906   0.53632
 Alpha virt. eigenvalues --    0.54765   0.56681   0.57685   0.67084   0.68432
 Alpha virt. eigenvalues --    0.78341   0.79308   0.79706   0.80686   0.82005

 Mulliken charges:
               1
     1  O   -0.511615
     2  H    0.258792
     3  H    0.252793
     4  O   -0.512418
     5  H    0.257875
     6  H    0.254573
 Sum of Mulliken charges =  -0.00000

 Dipole moment (field-independent basis, Debye):
    X=             -2.5238    Y=             -2.9215    Z=             -0.0000  Tot=              3.8606
 Quadrupole moment (field-independent basis, Debye-Ang):
   XX=             -9.8082   YY=             -6.8134   ZZ=            -14.7133
   XY=             -4.0705   XZ=              0.0000   YZ=             -0.0000

 Normal termination of Gaussian 16 at Sun Aug 28 07:01:48 2022.
