 Gaussian 16, Revision A.03,
 Gaussian 16:  ES64L-G16RevA.03 25-Dec-2016

 ------------------
 #p CCSD(T)/cc-pVTZ
 ------------------

 ------------
 H2O_H2O_2589
 ------------
 Symbolic Z-matrix:
 Charge =  0 Multiplicity = 1

                         Standard orientation:
 ---------------------------------------------------------------------
 Center     Atomic      Atomic             Coordinates (Angstroms)
 Number     Number       Type             X           Y           Z
 ---------------------------------------------------------------------
      1          8           0        0.048599    2.139833   -0.000000
      2          1           0        0.046761    1.157233   -0.000000
      3          1           0       -0.880297    2.460237   -0.000000
      4          8           0        0.048599   -1.959461    0.000000
      5          1           0        0.827029   -2.559087    0.000000
      6          1           0       -0.771071   -2.501354    0.000000
 ---------------------------------------------------------------------

 SCF Done:  E(RHF) =  -152.110692940     A.U. after   10 cycles
 E2 =    -0.5260621188D+00 EUMP2 =    -0.15263675505843D+03
 CCSD(T)
 CCSD(T)= -0.15266386884D+03

 The electronic state is 1-A'.
 Alpha  occ. eigenvalues --  -20.56888 -20.54185  -1.34152  -1.31514  -0.71548
 Alpha  occ. eigenvalues --   -0.68908  -0.57736  -0.55001  -0.51287  -0.48656
 Alpha virt. eigenvalues --    0.12363   0.16345   0.19353   0.23828   0.52768
 Alpha virt. eigenvalues --    0.55609   0.56278   0.58974   0.69052   0.70265
 Alpha virt. eigenvalues --    0.77487   0.78797   0.80179   0.80391   0.83597

 Mulliken charges:
               1
     1  O   -0.522277
     2  H    0.266249
     3  H    0.250575
     4  O   -0.511718
     5  H    0.260465
     6  H    0.256706
 Sum of Mulliken charges =  -0.00000

 Dipole moment (field-independent basis, Debye):
    X=             -1.6523    Y=             -3.2956    Z=              0.0000  Tot=              3.6867
 Quadrupole moment (field-independent basis, Debye-Ang):
   XX=             -9.1839   YY=             -7.4544   ZZ=            -14.7224
   XY=             -4.3952   XZ=              0.0000   YZ=             -0.0000

 Normal termination of Gaussian 16 at Fri Aug 26 15:49:55 2022.
