 Gaussian 16, Revision A.03,
 Gaussian 16:  ES64L-G16RevA.03 25-Dec-2016

 ------------------
 #p CCSD(T)/cc-pVTZ
 ------------------

 ------------
 H2O_H2O_1270
 ------------
 Symbolic Z-matrix:
 Charge =  0 Multiplicity = 1

                         Standard orientation:
 ---------------------------------------------------------------------
 Center     Atomic      Atomic             Coordinates (Angstroms)
 Number     Number       Type             X           Y           Z
 ---------------------------------------------------------------------
      1          8           0        0.026764    1.607411    0.000000
      2          1           0        0.023064    0.624817    0.000000
      3          1           0       -0.901523    1.929575    0.000000
      4          8           0        0.026764   -1.434252    0.000000
      5          1           0        0.974920   -1.692139    0.000000
      6          1           0       -0.524681   -2.247527    0.000000
 ---------------------------------------------------------------------

 SCF Done:  E(RHF) =  -152.113975222     A.U. after   10 cycles
 E2 =    -0.5276490845D+00 EUMP2 =    -0.15264162430702D+03
 CCSD(T)
 CCSD(T)= -0.15266857190D+03

 The electronic state is 1-A'.
 Alpha  occ. eigenvalues --  -20.58273 -20.52528  -1.35643  -1.30055  -0.73026
 Alpha  occ. eigenvalues --   -0.67939  -0.59458  -0.53276  -0.52744  -0.47201
 Alpha virt. eigenvalues --    0.12066   0.18030   0.18829   0.30419   0.49692
 Alpha virt. eigenvalues --    0.54504   0.55832   0.61384   0.68626   0.72937
 Alpha virt. eigenvalues --    0.73400   0.77053   0.81931   0.82624   0.84569

 Mulliken charges:
               1
     1  O   -0.554693
     2  H    0.283663
     3  H    0.248841
     4  O   -0.496736
     5  H    0.264982
     6  H    0.253942
 Sum of Mulliken charges =  -0.00000

 Dipole moment (field-independent basis, Debye):
    X=             -0.8976    Y=             -3.4966    Z=              0.0000  Tot=              3.6100
 Quadrupole moment (field-independent basis, Debye-Ang):
   XX=             -9.2852   YY=             -8.5419   ZZ=            -14.7318
   XY=             -3.9293   XZ=             -0.0000   YZ=              0.0000

 Normal termination of Gaussian 16 at Fri Aug 26 23:30:50 2022.
