 Gaussian 16, Revision A.03,
 Gaussian 16:  ES64L-G16RevA.03 25-Dec-2016

 ------------------
 #p CCSD(T)/cc-pVTZ
 ------------------

 ------------
 H2O_H2O_2568
 ------------
 Symbolic Z-matrix:
 Charge =  0 Multiplicity = 1

                         Standard orientation:
 ---------------------------------------------------------------------
 Center     Atomic      Atomic             Coordinates (Angstroms)
 Number     Number       Type             X           Y           Z
 ---------------------------------------------------------------------
      1          8           0        0.033812    2.128307    0.000000
      2          1           0        0.031350    1.145709    0.000000
      3          1           0       -0.894879    2.449301    0.000000
      4          8           0        0.033812   -1.950801   -0.000000
      5          1           0        0.940673   -2.329099   -0.000000
      6          1           0       -0.618142   -2.685961   -0.000000
 ---------------------------------------------------------------------

 SCF Done:  E(RHF) =  -152.110846428     A.U. after   10 cycles
 E2 =    -0.5260507364D+00 EUMP2 =    -0.15263689716433D+03
 CCSD(T)
 CCSD(T)= -0.15266400817D+03

 The electronic state is 1-A'.
 Alpha  occ. eigenvalues --  -20.56890 -20.54194  -1.34156  -1.31525  -0.71552
 Alpha  occ. eigenvalues --   -0.68927  -0.57747  -0.55016  -0.51292  -0.48670
 Alpha virt. eigenvalues --    0.12363   0.16388   0.19317   0.23974   0.52985
 Alpha virt. eigenvalues --    0.55557   0.56408   0.58798   0.69042   0.70375
 Alpha virt. eigenvalues --    0.77462   0.78880   0.80168   0.80661   0.83614

 Mulliken charges:
               1
     1  O   -0.523690
     2  H    0.266074
     3  H    0.252108
     4  O   -0.512420
     5  H    0.260371
     6  H    0.257557
 Sum of Mulliken charges =  -0.00000

 Dipole moment (field-independent basis, Debye):
    X=             -1.1507    Y=             -3.2449    Z=             -0.0000  Tot=              3.4429
 Quadrupole moment (field-independent basis, Debye-Ang):
   XX=             -9.1861   YY=             -7.5503   ZZ=            -14.7229
   XY=             -4.8712   XZ=             -0.0000   YZ=              0.0000

 Normal termination of Gaussian 16 at Fri Aug 26 15:40:27 2022.
