 Gaussian 16, Revision A.03,
 Gaussian 16:  ES64L-G16RevA.03 25-Dec-2016

 ------------------
 #p CCSD(T)/cc-pVTZ
 ------------------

 ------------
 H2O_H2O_3205
 ------------
 Symbolic Z-matrix:
 Charge =  0 Multiplicity = 1

                         Standard orientation:
 ---------------------------------------------------------------------
 Center     Atomic      Atomic             Coordinates (Angstroms)
 Number     Number       Type             X           Y           Z
 ---------------------------------------------------------------------
      1          8           0        0.079851    2.377551   -0.000000
      2          1           0        0.079368    1.394950   -0.000000
      3          1           0       -0.849485    2.696675   -0.000000
      4          8           0        0.079851   -2.218489    0.000000
      5          1           0        0.395240   -3.149099    0.000000
      6          1           0       -0.902744   -2.215026    0.000000
 ---------------------------------------------------------------------

 SCF Done:  E(RHF) =  -152.108731367     A.U. after   10 cycles
 E2 =    -0.5259691518D+00 EUMP2 =    -0.15263470051841D+03
 CCSD(T)
 CCSD(T)= -0.15266187167D+03

 The electronic state is 1-A'.
 Alpha  occ. eigenvalues --  -20.56563 -20.54836  -1.33853  -1.32146  -0.71270
 Alpha  occ. eigenvalues --   -0.69532  -0.57348  -0.55612  -0.50970  -0.49268
 Alpha virt. eigenvalues --    0.12145   0.15589   0.19374   0.22406   0.53683
 Alpha virt. eigenvalues --    0.55039   0.56388   0.58260   0.67490   0.69220
 Alpha virt. eigenvalues --    0.77934   0.78641   0.79585   0.80656   0.82822

 Mulliken charges:
               1
     1  O   -0.513519
     2  H    0.261709
     3  H    0.250157
     4  O   -0.511671
     5  H    0.259916
     6  H    0.253408
 Sum of Mulliken charges =   0.00000

 Dipole moment (field-independent basis, Debye):
    X=             -2.7239    Y=             -2.8455    Z=              0.0000  Tot=              3.9391
 Quadrupole moment (field-independent basis, Debye-Ang):
   XX=            -10.1015   YY=             -7.9434   ZZ=            -14.7157
   XY=             -3.2162   XZ=              0.0000   YZ=             -0.0000

 CCSD(T)=-152.6618717\RMSD=7.103e-09\PG=CS [SG(H4O2)]\\@
 Normal termination of Gaussian 16 at Fri Aug 26 20:23:22 2022.
