 Gaussian 16, Revision A.03,
 Gaussian 16:  ES64L-G16RevA.03 25-Dec-2016

 ------------------
 #p CCSD(T)/cc-pVTZ
 ------------------

 ------------
 H2O_H2O_3873
 ------------
 Symbolic Z-matrix:
 Charge =  0 Multiplicity = 1

                         Standard orientation:
 ---------------------------------------------------------------------
 Center     Atomic      Atomic             Coordinates (Angstroms)
 Number     Number       Type             X           Y           Z
 ---------------------------------------------------------------------
      1          8           0       -0.016599    2.639186    0.000000
      2          1           0       -0.014067    1.656588    0.000000
      3          1           0        0.912070    2.960247    0.000000
      4          8           0       -0.016599   -2.475785    0.000000
      5          1           0       -0.996929   -2.542577    0.000000
      6          1           0        0.364512   -3.381467    0.000000
 ---------------------------------------------------------------------

 SCF Done:  E(RHF) =  -152.108820790     A.U. after   10 cycles
 E2 =    -0.5258160695D+00 EUMP2 =    -0.15263463685921D+03
 CCSD(T)
 CCSD(T)= -0.15266182066D+03

 The electronic state is 1-A'.
 Alpha  occ. eigenvalues --  -20.56314 -20.54921  -1.33614  -1.32232  -0.71020
 Alpha  occ. eigenvalues --   -0.69639  -0.57120  -0.55712  -0.50735  -0.49360
 Alpha virt. eigenvalues --    0.12784   0.15254   0.19298   0.21794   0.53240
 Alpha virt. eigenvalues --    0.55172   0.56602   0.57861   0.66702   0.69065
 Alpha virt. eigenvalues --    0.78159   0.78950   0.79489   0.80677   0.82793

 Mulliken charges:
               1
     1  O   -0.515913
     2  H    0.260584
     3  H    0.254813
     4  O   -0.515903
     5  H    0.257685
     6  H    0.258734
 Sum of Mulliken charges =  -0.00000

 Dipole moment (field-independent basis, Debye):
    X=              0.5704    Y=             -2.8868    Z=              0.0000  Tot=              2.9426
 Quadrupole moment (field-independent basis, Debye-Ang):
   XX=             -9.5429   YY=             -7.4688   ZZ=            -14.7161
   XY=              6.9284   XZ=              0.0000   YZ=              0.0000

 Normal termination of Gaussian 16 at Sat Aug 27 00:12:31 2022.
