 Gaussian 16, Revision A.03,
 Gaussian 16:  ES64L-G16RevA.03 25-Dec-2016

 ------------------
 #p CCSD(T)/cc-pVTZ
 ------------------

 -----------
 H2O_H2O_760
 -----------
 Symbolic Z-matrix:
 Charge =  0 Multiplicity = 1

                         Standard orientation:
 ---------------------------------------------------------------------
 Center     Atomic      Atomic             Coordinates (Angstroms)
 Number     Number       Type             X           Y           Z
 ---------------------------------------------------------------------
      1          8           0        0.063307    1.409186    0.000000
      2          1           0        0.061399    0.426587    0.000000
      3          1           0       -0.865565    1.729657    0.000000
      4          8           0        0.063307   -1.233781    0.000000
      5          1           0        0.659962   -2.014491    0.000000
      6          1           0       -0.868708   -1.544996    0.000000
 ---------------------------------------------------------------------

 SCF Done:  E(RHF) =  -152.108965052     A.U. after   10 cycles
 E2 =    -0.5300877103D+00 EUMP2 =    -0.15263905276242D+03
 CCSD(T)
 CCSD(T)= -0.15266573297D+03

 The electronic state is 1-A'.
 Alpha  occ. eigenvalues --  -20.59423 -20.50741  -1.37254  -1.28678  -0.74462
 Alpha  occ. eigenvalues --   -0.68934  -0.59497  -0.54158  -0.51399  -0.45721
 Alpha virt. eigenvalues --    0.11501   0.17381   0.19653   0.32792   0.48003
 Alpha virt. eigenvalues --    0.54149   0.59982   0.60430   0.70296   0.72373
 Alpha virt. eigenvalues --    0.73016   0.77569   0.81323   0.83166   0.84353

 Mulliken charges:
               1
     1  O   -0.580730
     2  H    0.306417
     3  H    0.230226
     4  O   -0.460788
     5  H    0.254613
     6  H    0.250262
 Sum of Mulliken charges =  -0.00000

 Dipole moment (field-independent basis, Debye):
    X=             -2.0580    Y=             -3.8923    Z=             -0.0000  Tot=              4.4029
 Quadrupole moment (field-independent basis, Debye-Ang):
   XX=             -9.4672   YY=             -9.0441   ZZ=            -14.7021
   XY=             -3.0737   XZ=             -0.0000   YZ=             -0.0000

 Normal termination of Gaussian 16 at Fri Aug 26 20:20:26 2022.
