 Gaussian 16, Revision A.03,
 Gaussian 16:  ES64L-G16RevA.03 25-Dec-2016

 ------------------
 #p CCSD(T)/cc-pVTZ
 ------------------

 -----------
 H2O_H2O_458
 -----------
 Symbolic Z-matrix:
 Charge =  0 Multiplicity = 1

                         Standard orientation:
 ---------------------------------------------------------------------
 Center     Atomic      Atomic             Coordinates (Angstroms)
 Number     Number       Type             X           Y           Z
 ---------------------------------------------------------------------
      1          8           0        0.070264    1.286661   -0.000000
      2          1           0        0.068657    0.304060   -0.000000
      3          1           0       -0.858707    1.606847   -0.000000
      4          8           0        0.070264   -1.116524    0.000000
      5          1           0        0.560172   -1.968284    0.000000
      6          1           0       -0.894342   -1.303720   -0.000000
 ---------------------------------------------------------------------

 SCF Done:  E(RHF) =  -152.095072142     A.U. after   11 cycles
 E2 =    -0.5326627539D+00 EUMP2 =    -0.15262773489555D+03
 CCSD(T)
 CCSD(T)= -0.15265406141D+03

 The electronic state is 1-A'.
 Alpha  occ. eigenvalues --  -20.60346 -20.49089  -1.39082  -1.27566  -0.76519
 Alpha  occ. eigenvalues --   -0.70722  -0.58369  -0.55531  -0.49698  -0.44483
 Alpha virt. eigenvalues --    0.11104   0.16843   0.20356   0.33099   0.48334
 Alpha virt. eigenvalues --    0.53152   0.60062   0.63493   0.72107   0.72128
 Alpha virt. eigenvalues --    0.74338   0.78845   0.79367   0.83988   0.84032

 Mulliken charges:
               1
     1  O   -0.601864
     2  H    0.302811
     3  H    0.217575
     4  O   -0.402127
     5  H    0.241377
     6  H    0.242228
 Sum of Mulliken charges =  -0.00000

 Dipole moment (field-independent basis, Debye):
    X=             -2.2315    Y=             -4.1274    Z=             -0.0000  Tot=              4.6920
 Quadrupole moment (field-independent basis, Debye-Ang):
   XX=             -9.6885   YY=             -9.4285   ZZ=            -14.6520
   XY=             -2.8151   XZ=              0.0000   YZ=             -0.0000

 Normal termination of Gaussian 16 at Fri Aug 26 18:24:14 2022.
