 Gaussian 16, Revision A.03,
 Gaussian 16:  ES64L-G16RevA.03 25-Dec-2016

 ------------------
 #p CCSD(T)/cc-pVTZ
 ------------------

 ------------
 H2O_H2O_1665
 ------------
 Symbolic Z-matrix:
 Charge =  0 Multiplicity = 1

                         Standard orientation:
 ---------------------------------------------------------------------
 Center     Atomic      Atomic             Coordinates (Angstroms)
 Number     Number       Type             X           Y           Z
 ---------------------------------------------------------------------
      1          8           0        0.044916    1.770858   -0.000000
      2          1           0        0.042487    0.788260   -0.000000
      3          1           0       -0.883787    2.091822   -0.000000
      4          8           0        0.044916   -1.590516    0.000000
      5          1           0        0.860567   -2.138438    0.000000
      6          1           0       -0.737915   -2.184386    0.000000
 ---------------------------------------------------------------------

 SCF Done:  E(RHF) =  -152.113472835     A.U. after   10 cycles
 E2 =    -0.5268317055D+00 EUMP2 =    -0.15264030454070D+03
 CCSD(T)
 CCSD(T)= -0.15266732717D+03

 The electronic state is 1-A'.
 Alpha  occ. eigenvalues --  -20.57735 -20.53202  -1.34998  -1.30610  -0.72354
 Alpha  occ. eigenvalues --   -0.68149  -0.58788  -0.54006  -0.52135  -0.47764
 Alpha virt. eigenvalues --    0.12129   0.17423   0.19025   0.28065   0.50562
 Alpha virt. eigenvalues --    0.54626   0.56245   0.59346   0.69027   0.72206
 Alpha virt. eigenvalues --    0.74995   0.76913   0.81241   0.83187   0.84700

 Mulliken charges:
               1
     1  O   -0.537253
     2  H    0.274178
     3  H    0.247421
     4  O   -0.507309
     5  H    0.264303
     6  H    0.258660
 Sum of Mulliken charges =  -0.00000

 Dipole moment (field-independent basis, Debye):
    X=             -1.5109    Y=             -3.4816    Z=              0.0000  Tot=              3.7953
 Quadrupole moment (field-independent basis, Debye-Ang):
   XX=             -9.1614   YY=             -8.1289   ZZ=            -14.7340
   XY=             -3.8970   XZ=              0.0000   YZ=             -0.0000

 Normal termination of Gaussian 16 at Sun Aug 28 00:26:18 2022.
