 Gaussian 16, Revision A.03,
 Gaussian 16:  ES64L-G16RevA.03 25-Dec-2016

 ------------------
 #p CCSD(T)/cc-pVTZ
 ------------------

 ------------
 H2O_H2O_3706
 ------------
 Symbolic Z-matrix:
 Charge =  0 Multiplicity = 1

                         Standard orientation:
 ---------------------------------------------------------------------
 Center     Atomic      Atomic             Coordinates (Angstroms)
 Number     Number       Type             X           Y           Z
 ---------------------------------------------------------------------
      1          8           0        0.076753    2.579247    0.000000
      2          1           0        0.076203    1.596645    0.000000
      3          1           0       -0.852561    2.898434    0.000000
      4          8           0        0.076753   -2.416030   -0.000000
      5          1           0        0.452271   -3.324045   -0.000000
      6          1           0       -0.903968   -2.476772   -0.000000
 ---------------------------------------------------------------------

 SCF Done:  E(RHF) =  -152.108441619     A.U. after   10 cycles
 E2 =    -0.5258853295D+00 EUMP2 =    -0.15263432694835D+03
 CCSD(T)
 CCSD(T)= -0.15266151447D+03

 The electronic state is 1-A'.
 Alpha  occ. eigenvalues --  -20.56384 -20.54929  -1.33681  -1.32237  -0.71092
 Alpha  occ. eigenvalues --   -0.69629  -0.57169  -0.55703  -0.50797  -0.49357
 Alpha virt. eigenvalues --    0.12568   0.15272   0.19359   0.21734   0.53282
 Alpha virt. eigenvalues --    0.55055   0.56473   0.57976   0.66784   0.69119
 Alpha virt. eigenvalues --    0.78104   0.78793   0.79497   0.80596   0.82754

 Mulliken charges:
               1
     1  O   -0.512838
     2  H    0.260811
     3  H    0.251326
     4  O   -0.513203
     5  H    0.259661
     6  H    0.254243
 Sum of Mulliken charges =  -0.00000

 Dipole moment (field-independent basis, Debye):
    X=             -2.6248    Y=             -2.8922    Z=             -0.0000  Tot=              3.9057
 Quadrupole moment (field-independent basis, Debye-Ang):
   XX=             -9.9511   YY=             -7.5630   ZZ=            -14.7148
   XY=             -3.5261   XZ=             -0.0000   YZ=              0.0000

 Normal termination of Gaussian 16 at Fri Aug 26 23:13:17 2022.
