 Gaussian 16, Revision A.03,
 Gaussian 16:  ES64L-G16RevA.03 25-Dec-2016

 ------------------
 #p CCSD(T)/cc-pVTZ
 ------------------

 ------------
 H2O_H2O_4780
 ------------
 Symbolic Z-matrix:
 Charge =  0 Multiplicity = 1

                         Standard orientation:
 ---------------------------------------------------------------------
 Center     Atomic      Atomic             Coordinates (Angstroms)
 Number     Number       Type             X           Y           Z
 ---------------------------------------------------------------------
      1          8           0        0.079843    3.005791    0.000000
      2          1           0        0.079463    2.023190    0.000000
      3          1           0       -0.849527    3.324817   -0.000000
      4          8           0        0.079843   -2.846712    0.000000
      5          1           0        0.395331   -3.777289    0.000000
      6          1           0       -0.902753   -2.843353   -0.000000
 ---------------------------------------------------------------------

 SCF Done:  E(RHF) =  -152.107915333     A.U. after   10 cycles
 E2 =    -0.5258420550D+00 EUMP2 =    -0.15263375738766D+03
 CCSD(T)
 CCSD(T)= -0.15266096638D+03

 The electronic state is 1-A'.
 Alpha  occ. eigenvalues --  -20.56153 -20.55174  -1.33455  -1.32478  -0.70865
 Alpha  occ. eigenvalues --   -0.69876  -0.56926  -0.55936  -0.50569  -0.49594
 Alpha virt. eigenvalues --    0.13296   0.14691   0.19435   0.21040   0.53524
 Alpha virt. eigenvalues --    0.54783   0.56642   0.57679   0.67021   0.68458
 Alpha virt. eigenvalues --    0.78318   0.79273   0.79662   0.80779   0.81980

 Mulliken charges:
               1
     1  O   -0.511157
     2  H    0.258565
     3  H    0.252550
     4  O   -0.512050
     5  H    0.258046
     6  H    0.254047
 Sum of Mulliken charges =  -0.00000

 Dipole moment (field-independent basis, Debye):
    X=             -2.7399    Y=             -2.7860    Z=             -0.0000  Tot=              3.9075
 Quadrupole moment (field-independent basis, Debye-Ang):
   XX=            -10.0931   YY=             -7.4079   ZZ=            -14.7130
   XY=             -3.5069   XZ=              0.0000   YZ=             -0.0000

 Normal termination of Gaussian 16 at Sun Aug 28 05:51:05 2022.
