 Gaussian 16, Revision A.03,
 Gaussian 16:  ES64L-G16RevA.03 25-Dec-2016

 ------------------
 #p CCSD(T)/cc-pVTZ
 ------------------

 ------------
 H2O_H2O_4166
 ------------
 Symbolic Z-matrix:
 Charge =  0 Multiplicity = 1

                         Standard orientation:
 ---------------------------------------------------------------------
 Center     Atomic      Atomic             Coordinates (Angstroms)
 Number     Number       Type             X           Y           Z
 ---------------------------------------------------------------------
      1          8           0        0.041113    2.767833    0.000000
      2          1           0        0.039471    1.785233    0.000000
      3          1           0       -0.887846    3.088053    0.000000
      4          8           0        0.041113   -2.587884    0.000000
      5          1           0        0.891249   -3.080606    0.000000
      6          1           0       -0.700685   -3.232276    0.000000
 ---------------------------------------------------------------------

 SCF Done:  E(RHF) =  -152.108658943     A.U. after   10 cycles
 E2 =    -0.5258101445D+00 EUMP2 =    -0.15263446908768D+03
 CCSD(T)
 CCSD(T)= -0.15266165836D+03

 The electronic state is 1-A'.
 Alpha  occ. eigenvalues --  -20.56251 -20.54859  -1.33550  -1.32169  -0.70953
 Alpha  occ. eigenvalues --   -0.69570  -0.57053  -0.55644  -0.50671  -0.49295
 Alpha virt. eigenvalues --    0.13189   0.15110   0.19657   0.21224   0.53585
 Alpha virt. eigenvalues --    0.54899   0.56621   0.57819   0.66694   0.68988
 Alpha virt. eigenvalues --    0.78220   0.79521   0.79556   0.79842   0.82832

 Mulliken charges:
               1
     1  O   -0.514934
     2  H    0.261241
     3  H    0.253379
     4  O   -0.515488
     5  H    0.258622
     6  H    0.257180
 Sum of Mulliken charges =  -0.00000

 Dipole moment (field-independent basis, Debye):
    X=             -1.4088    Y=             -3.1697    Z=             -0.0000  Tot=              3.4687
 Quadrupole moment (field-independent basis, Debye-Ang):
   XX=             -9.1493   YY=             -6.4563   ZZ=            -14.7157
   XY=             -5.7685   XZ=             -0.0000   YZ=             -0.0000

 Normal termination of Gaussian 16 at Sun Aug 28 00:22:56 2022.
