 Gaussian 16, Revision A.03,
 Gaussian 16:  ES64L-G16RevA.03 25-Dec-2016

 ------------------
 #p CCSD(T)/cc-pVTZ
 ------------------

 -----------
 H2O_H2O_292
 -----------
 Symbolic Z-matrix:
 Charge =  0 Multiplicity = 1

                         Standard orientation:
 ---------------------------------------------------------------------
 Center     Atomic      Atomic             Coordinates (Angstroms)
 Number     Number       Type             X           Y           Z
 ---------------------------------------------------------------------
      1          8           0        0.037636    1.221577    0.000000
      2          1           0        0.033474    0.238984    0.000000
      3          1           0       -0.890500    1.544176    0.000000
      4          8           0        0.037636   -1.042771    0.000000
      5          1           0        0.917056   -1.481093    0.000000
      6          1           0       -0.662200   -1.732508    0.000000
 ---------------------------------------------------------------------

 SCF Done:  E(RHF) =  -152.081627375     A.U. after   11 cycles
 E2 =    -0.5335254547D+00 EUMP2 =    -0.15261515282997D+03
 CCSD(T)
 CCSD(T)= -0.15264115133D+03

 The electronic state is 1-A'.
 Alpha  occ. eigenvalues --  -20.61039 -20.46693  -1.40628  -1.25919  -0.76922
 Alpha  occ. eigenvalues --   -0.73916  -0.56973  -0.56696  -0.47106  -0.42694
 Alpha virt. eigenvalues --    0.10910   0.17259   0.20367   0.33671   0.46907
 Alpha virt. eigenvalues --    0.52901   0.61563   0.66805   0.69986   0.71872
 Alpha virt. eigenvalues --    0.77694   0.79204   0.79975   0.82737   0.84072

 Mulliken charges:
               1
     1  O   -0.644137
     2  H    0.304524
     3  H    0.220562
     4  O   -0.384355
     5  H    0.260093
     6  H    0.243315
 Sum of Mulliken charges =  -0.00000

 Dipole moment (field-independent basis, Debye):
    X=             -1.1763    Y=             -4.6251    Z=              0.0000  Tot=              4.7723
 Quadrupole moment (field-independent basis, Debye-Ang):
   XX=             -9.1086   YY=             -9.7957   ZZ=            -14.6277
   XY=             -2.8931   XZ=              0.0000   YZ=              0.0000

 Normal termination of Gaussian 16 at Fri Aug 26 17:13:07 2022.
