 Gaussian 16, Revision A.03,
 Gaussian 16:  ES64L-G16RevA.03 25-Dec-2016

 ------------------
 #p CCSD(T)/cc-pVTZ
 ------------------

 ------------
 H2O_H2O_3378
 ------------
 Symbolic Z-matrix:
 Charge =  0 Multiplicity = 1

                         Standard orientation:
 ---------------------------------------------------------------------
 Center     Atomic      Atomic             Coordinates (Angstroms)
 Number     Number       Type             X           Y           Z
 ---------------------------------------------------------------------
      1          8           0        0.085600   -2.442214    0.000000
      2          1           0        0.085336   -1.459613    0.000000
      3          1           0       -0.843808   -2.761130    0.000000
      4          8           0        0.085600    2.292616    0.000000
      5          1           0        0.277038    3.256388    0.000000
      6          1           0       -0.888167    2.161145    0.000000
 ---------------------------------------------------------------------

 SCF Done:  E(RHF) =  -152.108315564     A.U. after   10 cycles
 E2 =    -0.5259561404D+00 EUMP2 =    -0.15263427170401D+03
 CCSD(T)
 CCSD(T)= -0.15266145685D+03

 The electronic state is 1-A'.
 Alpha  occ. eigenvalues --  -20.56496 -20.55009  -1.33791  -1.32315  -0.71211
 Alpha  occ. eigenvalues --   -0.69703  -0.57271  -0.55775  -0.50905  -0.49433
 Alpha virt. eigenvalues --    0.12045   0.15419   0.19247   0.22382   0.53557
 Alpha virt. eigenvalues --    0.54976   0.56432   0.58108   0.67142   0.69084
 Alpha virt. eigenvalues --    0.78001   0.78600   0.79428   0.81034   0.82650

 Mulliken charges:
               1
     1  O   -0.511769
     2  H    0.260319
     3  H    0.250407
     4  O   -0.511202
     5  H    0.259778
     6  H    0.252466
 Sum of Mulliken charges =  -0.00000

 Dipole moment (field-independent basis, Debye):
    X=             -2.9223    Y=              2.6646    Z=              0.0000  Tot=              3.9547
 Quadrupole moment (field-independent basis, Debye-Ang):
   XX=            -10.4042   YY=             -8.3492   ZZ=            -14.7141
   XY=              2.8230   XZ=              0.0000   YZ=              0.0000

 Normal termination of Gaussian 16 at Fri Aug 26 21:22:11 2022.
