 Gaussian 16, Revision A.03,
 Gaussian 16:  ES64L-G16RevA.03 25-Dec-2016

 ------------------
 #p CCSD(T)/cc-pVTZ
 ------------------

 ------------
 H2O_H2O_1816
 ------------
 Symbolic Z-matrix:
 Charge =  0 Multiplicity = 1

                         Standard orientation:
 ---------------------------------------------------------------------
 Center     Atomic      Atomic             Coordinates (Angstroms)
 Number     Number       Type             X           Y           Z
 ---------------------------------------------------------------------
      1          8           0        0.041194    1.830436   -0.000000
      2          1           0        0.038667    0.847838   -0.000000
      3          1           0       -0.887476    2.151492   -0.000000
      4          8           0        0.041194   -1.650561    0.000000
      5          1           0        0.890886   -2.144049    0.000000
      6          1           0       -0.701184   -2.294286    0.000000
 ---------------------------------------------------------------------

 SCF Done:  E(RHF) =  -152.113034344     A.U. after   10 cycles
 E2 =    -0.5266074215D+00 EUMP2 =    -0.15263964176571D+03
 CCSD(T)
 CCSD(T)= -0.15266668349D+03

 The electronic state is 1-A'.
 Alpha  occ. eigenvalues --  -20.57551 -20.53428  -1.34806  -1.30811  -0.72176
 Alpha  occ. eigenvalues --   -0.68290  -0.58559  -0.54243  -0.51946  -0.47967
 Alpha virt. eigenvalues --    0.12189   0.17259   0.19074   0.27234   0.51166
 Alpha virt. eigenvalues --    0.54681   0.56335   0.59162   0.69069   0.72399
 Alpha virt. eigenvalues --    0.75588   0.77168   0.81000   0.83310   0.84579

 Mulliken charges:
               1
     1  O   -0.534064
     2  H    0.271534
     3  H    0.248860
     4  O   -0.507988
     5  H    0.263232
     6  H    0.258426
 Sum of Mulliken charges =  -0.00000

 Dipole moment (field-independent basis, Debye):
    X=             -1.3898    Y=             -3.4299    Z=              0.0000  Tot=              3.7008
 Quadrupole moment (field-independent basis, Debye-Ang):
   XX=             -9.1522   YY=             -8.0159   ZZ=            -14.7321
   XY=             -4.0821   XZ=              0.0000   YZ=             -0.0000

 Normal termination of Gaussian 16 at Sun Aug 28 01:53:05 2022.
