 Gaussian 16, Revision A.03,
 Gaussian 16:  ES64L-G16RevA.03 25-Dec-2016

 ------------------
 #p CCSD(T)/cc-pVTZ
 ------------------

 ------------
 H2O_H2O_3111
 ------------
 Symbolic Z-matrix:
 Charge =  0 Multiplicity = 1

                         Standard orientation:
 ---------------------------------------------------------------------
 Center     Atomic      Atomic             Coordinates (Angstroms)
 Number     Number       Type             X           Y           Z
 ---------------------------------------------------------------------
      1          8           0        0.059641    2.347651    0.000000
      2          1           0        0.058389    1.365050    0.000000
      3          1           0       -0.869445    2.667501   -0.000000
      4          8           0        0.059641   -2.170206    0.000000
      5          1           0        0.706574   -2.909789    0.000000
      6          1           0       -0.849775   -2.542319   -0.000000
 ---------------------------------------------------------------------

 SCF Done:  E(RHF) =  -152.109510752     A.U. after   10 cycles
 E2 =    -0.5259363218D+00 EUMP2 =    -0.15263544707345D+03
 CCSD(T)
 CCSD(T)= -0.15266259861D+03

 The electronic state is 1-A'.
 Alpha  occ. eigenvalues --  -20.56603 -20.54536  -1.33885  -1.31853  -0.71289
 Alpha  occ. eigenvalues --   -0.69244  -0.57414  -0.55335  -0.51011  -0.48985
 Alpha virt. eigenvalues --    0.12483   0.15807   0.19472   0.22418   0.53324
 Alpha virt. eigenvalues --    0.55305   0.56339   0.58451   0.67876   0.69342
 Alpha virt. eigenvalues --    0.77891   0.78963   0.79577   0.79849   0.83145

 Mulliken charges:
               1
     1  O   -0.517270
     2  H    0.263820
     3  H    0.250988
     4  O   -0.513741
     5  H    0.260153
     6  H    0.256050
 Sum of Mulliken charges =   0.00000

 Dipole moment (field-independent basis, Debye):
    X=             -2.0342    Y=             -3.1863    Z=             -0.0000  Tot=              3.7803
 Quadrupole moment (field-independent basis, Debye-Ang):
   XX=             -9.3646   YY=             -7.2241   ZZ=            -14.7186
   XY=             -4.2554   XZ=              0.0000   YZ=             -0.0000

 CCSD(T)=-152.6625986\RMSD=6.936e-09\PG=CS [SG(H4O2)]\\@
 Normal termination of Gaussian 16 at Fri Aug 26 19:49:42 2022.
