 Gaussian 16, Revision A.03,
 Gaussian 16:  ES64L-G16RevA.03 25-Dec-2016

 ------------------
 #p CCSD(T)/cc-pVTZ
 ------------------

 ------------
 H2O_H2O_3783
 ------------
 Symbolic Z-matrix:
 Charge =  0 Multiplicity = 1

                         Standard orientation:
 ---------------------------------------------------------------------
 Center     Atomic      Atomic             Coordinates (Angstroms)
 Number     Number       Type             X           Y           Z
 ---------------------------------------------------------------------
      1          8           0        0.070191    2.612987   -0.000000
      2          1           0        0.069427    1.630386   -0.000000
      3          1           0       -0.859054    2.932376   -0.000000
      4          8           0        0.070191   -2.442729    0.000000
      5          1           0        0.560829   -3.294069    0.000000
      6          1           0       -0.894254   -2.630753    0.000000
 ---------------------------------------------------------------------

 SCF Done:  E(RHF) =  -152.108562245     A.U. after   10 cycles
 E2 =    -0.5258646849D+00 EUMP2 =    -0.15263442693026D+03
 CCSD(T)
 CCSD(T)= -0.15266161283D+03

 The electronic state is 1-A'.
 Alpha  occ. eigenvalues --  -20.56359 -20.54870  -1.33655  -1.32179  -0.71064
 Alpha  occ. eigenvalues --   -0.69573  -0.57150  -0.55649  -0.50774  -0.49302
 Alpha virt. eigenvalues --    0.12758   0.15258   0.19466   0.21555   0.53339
 Alpha virt. eigenvalues --    0.55023   0.56501   0.57929   0.66740   0.69142
 Alpha virt. eigenvalues --    0.78126   0.78897   0.79550   0.80295   0.82821

 Mulliken charges:
               1
     1  O   -0.513612
     2  H    0.261272
     3  H    0.251681
     4  O   -0.514011
     5  H    0.259607
     6  H    0.255063
 Sum of Mulliken charges =  -0.00000

 Dipole moment (field-independent basis, Debye):
    X=             -2.4013    Y=             -3.0141    Z=              0.0000  Tot=              3.8537
 Quadrupole moment (field-independent basis, Debye-Ang):
   XX=             -9.6811   YY=             -7.1737   ZZ=            -14.7153
   XY=             -3.9684   XZ=              0.0000   YZ=             -0.0000

 Normal termination of Gaussian 16 at Fri Aug 26 23:38:57 2022.
