 Gaussian 16, Revision A.03,
 Gaussian 16:  ES64L-G16RevA.03 25-Dec-2016

 ------------------
 #p CCSD(T)/cc-pVTZ
 ------------------

 ----------
 H2O_H2O_60
 ----------
 Symbolic Z-matrix:
 Charge =  0 Multiplicity = 1

                         Standard orientation:
 ---------------------------------------------------------------------
 Center     Atomic      Atomic             Coordinates (Angstroms)
 Number     Number       Type             X           Y           Z
 ---------------------------------------------------------------------
      1          8           0        0.063353    1.129940    0.000000
      2          1           0        0.060933    0.147342    0.000000
      3          1           0       -0.865353    1.450894   -0.000000
      4          8           0        0.063353   -0.954601    0.000000
      5          1           0        0.659602   -1.735621    0.000000
      6          1           0       -0.868824   -1.265330   -0.000000
 ---------------------------------------------------------------------

 SCF Done:  E(RHF) =  -152.039289027     A.U. after   11 cycles
 E2 =    -0.5364568756D+00 EUMP2 =    -0.15257574590296D+03
 CCSD(T)
 CCSD(T)= -0.15260128437D+03

 The electronic state is 1-A'.
 Alpha  occ. eigenvalues --  -20.62070 -20.44486  -1.43913  -1.24700  -0.80734
 Alpha  occ. eigenvalues --   -0.76350  -0.58649  -0.54610  -0.44755  -0.41201
 Alpha virt. eigenvalues --    0.10316   0.16095   0.21396   0.32378   0.48279
 Alpha virt. eigenvalues --    0.51740   0.61445   0.64054   0.70595   0.71395
 Alpha virt. eigenvalues --    0.78367   0.79397   0.81691   0.83387   0.88628

 Mulliken charges:
               1
     1  O   -0.660155
     2  H    0.282750
     3  H    0.195374
     4  O   -0.300098
     5  H    0.238728
     6  H    0.243401
 Sum of Mulliken charges =  -0.00000

 Dipole moment (field-independent basis, Debye):
    X=             -1.9133    Y=             -4.9628    Z=             -0.0000  Tot=              5.3188
 Quadrupole moment (field-independent basis, Debye-Ang):
   XX=             -9.4148   YY=            -10.1820   ZZ=            -14.5462
   XY=             -2.6311   XZ=              0.0000   YZ=             -0.0000

 Normal termination of Gaussian 16 at Fri Aug 26 15:35:36 2022.
