 Gaussian 16, Revision A.03,
 Gaussian 16:  ES64L-G16RevA.03 25-Dec-2016

 ------------------
 #p CCSD(T)/cc-pVTZ
 ------------------

 ------------
 H2O_H2O_3630
 ------------
 Symbolic Z-matrix:
 Charge =  0 Multiplicity = 1

                         Standard orientation:
 ---------------------------------------------------------------------
 Center     Atomic      Atomic             Coordinates (Angstroms)
 Number     Number       Type             X           Y           Z
 ---------------------------------------------------------------------
      1          8           0        0.079849    2.547077    0.000000
      2          1           0        0.079398    1.564475    0.000000
      3          1           0       -0.849498    2.866169    0.000000
      4          8           0        0.079849   -2.388009   -0.000000
      5          1           0        0.395269   -3.318609   -0.000000
      6          1           0       -0.902747   -2.384579   -0.000000
 ---------------------------------------------------------------------

 SCF Done:  E(RHF) =  -152.108391080     A.U. after   10 cycles
 E2 =    -0.5259014018D+00 EUMP2 =    -0.15263429248136D+03
 CCSD(T)
 CCSD(T)= -0.15266148002D+03

 The electronic state is 1-A'.
 Alpha  occ. eigenvalues --  -20.56409 -20.54957  -1.33705  -1.32264  -0.71119
 Alpha  occ. eigenvalues --   -0.69655  -0.57190  -0.55728  -0.50821  -0.49384
 Alpha virt. eigenvalues --    0.12426   0.15302   0.19303   0.21888   0.53292
 Alpha virt. eigenvalues --    0.55059   0.56456   0.58013   0.66839   0.69114
 Alpha virt. eigenvalues --    0.78082   0.78735   0.79473   0.80752   0.82720

 Mulliken charges:
               1
     1  O   -0.512460
     2  H    0.260599
     3  H    0.251094
     4  O   -0.512692
     5  H    0.259702
     6  H    0.253757
 Sum of Mulliken charges =  -0.00000

 Dipole moment (field-independent basis, Debye):
    X=             -2.7297    Y=             -2.8217    Z=             -0.0000  Tot=              3.9259
 Quadrupole moment (field-independent basis, Debye-Ang):
   XX=            -10.0979   YY=             -7.8024   ZZ=            -14.7146
   XY=             -3.2946   XZ=             -0.0000   YZ=              0.0000

 Normal termination of Gaussian 16 at Fri Aug 26 22:46:46 2022.
