 Gaussian 16, Revision A.03,
 Gaussian 16:  ES64L-G16RevA.03 25-Dec-2016

 ------------------
 #p CCSD(T)/cc-pVTZ
 ------------------

 ------------
 H2O_H2O_4896
 ------------
 Symbolic Z-matrix:
 Charge =  0 Multiplicity = 1

                         Standard orientation:
 ---------------------------------------------------------------------
 Center     Atomic      Atomic             Coordinates (Angstroms)
 Number     Number       Type             X           Y           Z
 ---------------------------------------------------------------------
      1          8           0       -0.023156    3.051843    0.000000
      2          1           0       -0.021160    2.069244    0.000000
      3          1           0        0.905688    3.372396    0.000000
      4          8           0       -0.023156   -2.881427    0.000000
      5          1           0       -0.986486   -3.075079    0.000000
      6          1           0        0.472447   -3.729887    0.000000
 ---------------------------------------------------------------------

 SCF Done:  E(RHF) =  -152.108296470     A.U. after   10 cycles
 E2 =    -0.5257998571D+00 EUMP2 =    -0.15263409632707D+03
 CCSD(T)
 CCSD(T)= -0.15266129824D+03

 The electronic state is 1-A'.
 Alpha  occ. eigenvalues --  -20.56118 -20.55081  -1.33421  -1.32387  -0.70826
 Alpha  occ. eigenvalues --   -0.69793  -0.56908  -0.55857  -0.50539  -0.49510
 Alpha virt. eigenvalues --    0.13485   0.14760   0.19648   0.20955   0.53655
 Alpha virt. eigenvalues --    0.54797   0.56719   0.57739   0.67044   0.68474
 Alpha virt. eigenvalues --    0.78344   0.79351   0.79711   0.80639   0.82102

 Mulliken charges:
               1
     1  O   -0.513642
     2  H    0.259118
     3  H    0.254487
     4  O   -0.514138
     5  H    0.256995
     6  H    0.257180
 Sum of Mulliken charges =  -0.00000

 Dipole moment (field-independent basis, Debye):
    X=              0.7957    Y=             -2.9816    Z=              0.0000  Tot=              3.0859
 Quadrupole moment (field-independent basis, Debye-Ang):
   XX=             -9.3627   YY=             -6.5869   ZZ=            -14.7144
   XY=              7.5024   XZ=              0.0000   YZ=              0.0000

 Normal termination of Gaussian 16 at Sun Aug 28 06:44:36 2022.
