 Gaussian 16, Revision A.03,
 Gaussian 16:  ES64L-G16RevA.03 25-Dec-2016

 ------------------
 #p CCSD(T)/cc-pVTZ
 ------------------

 ------------
 H2O_H2O_2392
 ------------
 Symbolic Z-matrix:
 Charge =  0 Multiplicity = 1

                         Standard orientation:
 ---------------------------------------------------------------------
 Center     Atomic      Atomic             Coordinates (Angstroms)
 Number     Number       Type             X           Y           Z
 ---------------------------------------------------------------------
      1          8           0        0.037474    2.059282    0.000000
      2          1           0        0.035083    1.076683    0.000000
      3          1           0       -0.891240    2.380210    0.000000
      4          8           0        0.037474   -1.880342    0.000000
      5          1           0        0.917683   -2.317078    0.000000
      6          1           0       -0.661117   -2.571338    0.000000
 ---------------------------------------------------------------------

 SCF Done:  E(RHF) =  -152.111286883     A.U. after   10 cycles
 E2 =    -0.5261317684D+00 EUMP2 =    -0.15263741865123D+03
 CCSD(T)
 CCSD(T)= -0.15266451567D+03

 The electronic state is 1-A'.
 Alpha  occ. eigenvalues --  -20.57017 -20.54044  -1.34277  -1.31382  -0.71670
 Alpha  occ. eigenvalues --   -0.68786  -0.57895  -0.54868  -0.51415  -0.48529
 Alpha virt. eigenvalues --    0.12330   0.16581   0.19275   0.24586   0.52640
 Alpha virt. eigenvalues --    0.55440   0.56431   0.58879   0.69045   0.71216
 Alpha virt. eigenvalues --    0.77198   0.78531   0.80324   0.81721   0.83662

 Mulliken charges:
               1
     1  O   -0.525339
     2  H    0.267005
     3  H    0.251288
     4  O   -0.511032
     5  H    0.260746
     6  H    0.257331
 Sum of Mulliken charges =  -0.00000

 Dipole moment (field-independent basis, Debye):
    X=             -1.2730    Y=             -3.2968    Z=             -0.0000  Tot=              3.5341
 Quadrupole moment (field-independent basis, Debye-Ang):
   XX=             -9.1595   YY=             -7.6245   ZZ=            -14.7245
   XY=             -4.6117   XZ=             -0.0000   YZ=             -0.0000

 Normal termination of Gaussian 16 at Sun Aug 28 06:52:05 2022.
