 Gaussian 16, Revision A.03,
 Gaussian 16:  ES64L-G16RevA.03 25-Dec-2016

 ------------------
 #p CCSD(T)/cc-pVTZ
 ------------------

 ------------
 H2O_H2O_2490
 ------------
 Symbolic Z-matrix:
 Charge =  0 Multiplicity = 1

                         Standard orientation:
 ---------------------------------------------------------------------
 Center     Atomic      Atomic             Coordinates (Angstroms)
 Number     Number       Type             X           Y           Z
 ---------------------------------------------------------------------
      1          8           0        0.044879    2.099950    0.000000
      2          1           0        0.042848    1.117350    0.000000
      3          1           0       -0.883953    2.420537   -0.000000
      4          8           0        0.044879   -1.919571    0.000000
      5          1           0        0.860752   -2.467163    0.000000
      6          1           0       -0.737711   -2.513758   -0.000000
 ---------------------------------------------------------------------

 SCF Done:  E(RHF) =  -152.110981663     A.U. after   10 cycles
 E2 =    -0.5260962289D+00 EUMP2 =    -0.15263707789223D+03
 CCSD(T)
 CCSD(T)= -0.15266418333D+03

 The electronic state is 1-A'.
 Alpha  occ. eigenvalues --  -20.56953 -20.54107  -1.34214  -1.31441  -0.71608
 Alpha  occ. eigenvalues --   -0.68838  -0.57814  -0.54927  -0.51350  -0.48585
 Alpha virt. eigenvalues --    0.12348   0.16462   0.19318   0.24189   0.52643
 Alpha virt. eigenvalues --    0.55554   0.56343   0.58981   0.69049   0.70755
 Alpha virt. eigenvalues --    0.77356   0.78643   0.80256   0.80956   0.83700

 Mulliken charges:
               1
     1  O   -0.523629
     2  H    0.266698
     3  H    0.250685
     4  O   -0.511270
     5  H    0.260604
     6  H    0.256913
 Sum of Mulliken charges =  -0.00000

 Dipole moment (field-independent basis, Debye):
    X=             -1.5249    Y=             -3.3094    Z=             -0.0000  Tot=              3.6438
 Quadrupole moment (field-independent basis, Debye-Ang):
   XX=             -9.1580   YY=             -7.5205   ZZ=            -14.7234
   XY=             -4.4517   XZ=              0.0000   YZ=             -0.0000

 Normal termination of Gaussian 16 at Sun Aug 28 07:41:58 2022.
