 Gaussian 16, Revision A.03,
 Gaussian 16:  ES64L-G16RevA.03 25-Dec-2016

 ------------------
 #p CCSD(T)/cc-pVTZ
 ------------------

 ------------
 H2O_H2O_1581
 ------------
 Symbolic Z-matrix:
 Charge =  0 Multiplicity = 1

                         Standard orientation:
 ---------------------------------------------------------------------
 Center     Atomic      Atomic             Coordinates (Angstroms)
 Number     Number       Type             X           Y           Z
 ---------------------------------------------------------------------
      1          8           0        0.076777    1.731611   -0.000000
      2          1           0        0.075944    0.749010   -0.000000
      3          1           0       -0.852446    2.051065   -0.000000
      4          8           0        0.076777   -1.568438    0.000000
      5          1           0        0.452032   -2.476561    0.000000
      6          1           0       -0.903963   -1.628898    0.000000
 ---------------------------------------------------------------------

 SCF Done:  E(RHF) =  -152.111740944     A.U. after   10 cycles
 E2 =    -0.5271632728D+00 EUMP2 =    -0.15263890421643D+03
 CCSD(T)
 CCSD(T)= -0.15266594604D+03

 The electronic state is 1-A'.
 Alpha  occ. eigenvalues --  -20.57809 -20.53641  -1.35113  -1.31030  -0.72584
 Alpha  occ. eigenvalues --   -0.68483  -0.58775  -0.54401  -0.52217  -0.48158
 Alpha virt. eigenvalues --    0.11800   0.16788   0.19607   0.27938   0.49932
 Alpha virt. eigenvalues --    0.55233   0.57020   0.58400   0.69410   0.74015
 Alpha virt. eigenvalues --    0.74557   0.77247   0.80997   0.82828   0.83951

 Mulliken charges:
               1
     1  O   -0.529638
     2  H    0.274092
     3  H    0.241956
     4  O   -0.495923
     5  H    0.257195
     6  H    0.252319
 Sum of Mulliken charges =  -0.00000

 Dipole moment (field-independent basis, Debye):
    X=             -2.5734    Y=             -3.1647    Z=              0.0000  Tot=              4.0790
 Quadrupole moment (field-independent basis, Debye-Ang):
   XX=             -9.9818   YY=             -8.4532   ZZ=            -14.7253
   XY=             -3.0353   XZ=              0.0000   YZ=             -0.0000

 Normal termination of Gaussian 16 at Sat Aug 27 23:27:38 2022.
