 Gaussian 16, Revision A.03,
 Gaussian 16:  ES64L-G16RevA.03 25-Dec-2016

 ------------------
 #p CCSD(T)/cc-pVTZ
 ------------------

 ------------
 H2O_H2O_3239
 ------------
 Symbolic Z-matrix:
 Charge =  0 Multiplicity = 1

                         Standard orientation:
 ---------------------------------------------------------------------
 Center     Atomic      Atomic             Coordinates (Angstroms)
 Number     Number       Type             X           Y           Z
 ---------------------------------------------------------------------
      1          8           0        0.048580    2.399112    0.000000
      2          1           0        0.046948    1.416512    0.000000
      3          1           0       -0.880383    2.719321    0.000000
      4          8           0        0.048580   -2.218721   -0.000000
      5          1           0        0.827137   -2.818184   -0.000000
      6          1           0       -0.770977   -2.760785   -0.000000
 ---------------------------------------------------------------------

 SCF Done:  E(RHF) =  -152.109518726     A.U. after   10 cycles
 E2 =    -0.5258956103D+00 EUMP2 =    -0.15263541433661D+03
 CCSD(T)
 CCSD(T)= -0.15266256910D+03

 The electronic state is 1-A'.
 Alpha  occ. eigenvalues --  -20.56544 -20.54543  -1.33828  -1.31861  -0.71229
 Alpha  occ. eigenvalues --   -0.69255  -0.57359  -0.55345  -0.50955  -0.48993
 Alpha virt. eigenvalues --    0.12620   0.15741   0.19511   0.22199   0.53305
 Alpha virt. eigenvalues --    0.55262   0.56414   0.58283   0.67566   0.69357
 Alpha virt. eigenvalues --    0.77951   0.79072   0.79341   0.79839   0.83148

 Mulliken charges:
               1
     1  O   -0.517749
     2  H    0.263695
     3  H    0.251979
     4  O   -0.514948
     5  H    0.259975
     6  H    0.257049
 Sum of Mulliken charges =  -0.00000

 Dipole moment (field-independent basis, Debye):
    X=             -1.6583    Y=             -3.2294    Z=             -0.0000  Tot=              3.6302
 Quadrupole moment (field-independent basis, Debye-Ang):
   XX=             -9.1827   YY=             -7.0298   ZZ=            -14.7187
   XY=             -4.7944   XZ=             -0.0000   YZ=             -0.0000

 Normal termination of Gaussian 16 at Fri Aug 26 20:34:34 2022.
