 Gaussian 16, Revision A.03,
 Gaussian 16:  ES64L-G16RevA.03 25-Dec-2016

 ------------------
 #p CCSD(T)/cc-pVTZ
 ------------------

 ------------
 H2O_H2O_4556
 ------------
 Symbolic Z-matrix:
 Charge =  0 Multiplicity = 1

                         Standard orientation:
 ---------------------------------------------------------------------
 Center     Atomic      Atomic             Coordinates (Angstroms)
 Number     Number       Type             X           Y           Z
 ---------------------------------------------------------------------
      1          8           0        0.076748    2.918298    0.000000
      2          1           0        0.076263    1.935696    0.000000
      3          1           0       -0.852588    3.237422    0.000000
      4          8           0        0.076748   -2.755070   -0.000000
      5          1           0        0.452326   -3.663061   -0.000000
      6          1           0       -0.903970   -2.815878   -0.000000
 ---------------------------------------------------------------------

 SCF Done:  E(RHF) =  -152.108037007     A.U. after   10 cycles
 E2 =    -0.5258401286D+00 EUMP2 =    -0.15263387713547D+03
 CCSD(T)
 CCSD(T)= -0.15266108256D+03

 The electronic state is 1-A'.
 Alpha  occ. eigenvalues --  -20.56187 -20.55106  -1.33489  -1.32411  -0.70899
 Alpha  occ. eigenvalues --   -0.69809  -0.56965  -0.55872  -0.50604  -0.49529
 Alpha virt. eigenvalues --    0.13206   0.14803   0.19450   0.21122   0.53467
 Alpha virt. eigenvalues --    0.54851   0.56619   0.57739   0.66902   0.68608
 Alpha virt. eigenvalues --    0.78284   0.79335   0.79523   0.80707   0.82319

 Mulliken charges:
               1
     1  O   -0.511693
     2  H    0.259198
     3  H    0.252406
     4  O   -0.512663
     5  H    0.258415
     6  H    0.254336
 Sum of Mulliken charges =  -0.00000

 Dipole moment (field-independent basis, Debye):
    X=             -2.6322    Y=             -2.8636    Z=             -0.0000  Tot=              3.8896
 Quadrupole moment (field-independent basis, Debye-Ang):
   XX=             -9.9479   YY=             -7.2220   ZZ=            -14.7134
   XY=             -3.7191   XZ=             -0.0000   YZ=             -0.0000

 Normal termination of Gaussian 16 at Sun Aug 28 03:49:17 2022.
