 Gaussian 16, Revision A.03,
 Gaussian 16:  ES64L-G16RevA.03 25-Dec-2016

 ------------------
 #p CCSD(T)/cc-pVTZ
 ------------------

 -----------
 H2O_H2O_583
 -----------
 Symbolic Z-matrix:
 Charge =  0 Multiplicity = 1

                         Standard orientation:
 ---------------------------------------------------------------------
 Center     Atomic      Atomic             Coordinates (Angstroms)
 Number     Number       Type             X           Y           Z
 ---------------------------------------------------------------------
      1          8           0        0.070258    1.336525    0.000000
      2          1           0        0.068715    0.353925    0.000000
      3          1           0       -0.858733    1.656650   -0.000000
      4          8           0        0.070258   -1.166379    0.000000
      5          1           0        0.560223   -2.018107    0.000000
      6          1           0       -0.894335   -1.353637   -0.000000
 ---------------------------------------------------------------------

 SCF Done:  E(RHF) =  -152.102141677     A.U. after   11 cycles
 E2 =    -0.5315532069D+00 EUMP2 =    -0.15263369488384D+03
 CCSD(T)
 CCSD(T)= -0.15266019995D+03

 The electronic state is 1-A'.
 Alpha  occ. eigenvalues --  -20.59919 -20.49998  -1.38199  -1.28188  -0.75630
 Alpha  occ. eigenvalues --   -0.69721  -0.59019  -0.54877  -0.50633  -0.45166
 Alpha virt. eigenvalues --    0.11271   0.16992   0.20111   0.33032   0.48188
 Alpha virt. eigenvalues --    0.53543   0.59815   0.62561   0.71228   0.72184
 Alpha virt. eigenvalues --    0.73779   0.78149   0.80027   0.83735   0.84072

 Mulliken charges:
               1
     1  O   -0.590257
     2  H    0.304613
     3  H    0.222761
     4  O   -0.424785
     5  H    0.243933
     6  H    0.243735
 Sum of Mulliken charges =  -0.00000

 Dipole moment (field-independent basis, Debye):
    X=             -2.2553    Y=             -3.9648    Z=             -0.0000  Tot=              4.5614
 Quadrupole moment (field-independent basis, Debye-Ang):
   XX=             -9.6968   YY=             -9.2552   ZZ=            -14.6737
   XY=             -2.8770   XZ=             -0.0000   YZ=             -0.0000

 Normal termination of Gaussian 16 at Fri Aug 26 19:13:03 2022.
