 Gaussian 16, Revision A.03,
 Gaussian 16:  ES64L-G16RevA.03 25-Dec-2016

 ------------------
 #p CCSD(T)/cc-pVTZ
 ------------------

 ------------
 H2O_H2O_1314
 ------------
 Symbolic Z-matrix:
 Charge =  0 Multiplicity = 1

                         Standard orientation:
 ---------------------------------------------------------------------
 Center     Atomic      Atomic             Coordinates (Angstroms)
 Number     Number       Type             X           Y           Z
 ---------------------------------------------------------------------
      1          8           0        0.048654    1.631235   -0.000000
      2          1           0        0.046210    0.648637   -0.000000
      3          1           0       -0.880043    1.952212    0.000000
      4          8           0        0.048654   -1.450924   -0.000000
      5          1           0        0.826715   -2.051030   -0.000000
      6          1           0       -0.771349   -1.992310    0.000000
 ---------------------------------------------------------------------

 SCF Done:  E(RHF) =  -152.114130397     A.U. after   10 cycles
 E2 =    -0.5275874275D+00 EUMP2 =    -0.15264171782446D+03
 CCSD(T)
 CCSD(T)= -0.15266867453D+03

 The electronic state is 1-A'.
 Alpha  occ. eigenvalues --  -20.58248 -20.52508  -1.35577  -1.30017  -0.72879
 Alpha  occ. eigenvalues --   -0.67920  -0.59367  -0.53271  -0.52693  -0.47159
 Alpha virt. eigenvalues --    0.11978   0.17777   0.18950   0.30159   0.49282
 Alpha virt. eigenvalues --    0.54752   0.56141   0.59960   0.69140   0.71664
 Alpha virt. eigenvalues --    0.73611   0.76926   0.81916   0.82832   0.84951

 Mulliken charges:
               1
     1  O   -0.549349
     2  H    0.284497
     3  H    0.243795
     4  O   -0.503528
     5  H    0.265801
     6  H    0.258784
 Sum of Mulliken charges =  -0.00000

 Dipole moment (field-independent basis, Debye):
    X=             -1.6227    Y=             -3.6157    Z=              0.0000  Tot=              3.9631
 Quadrupole moment (field-independent basis, Debye-Ang):
   XX=             -9.1874   YY=             -8.4385   ZZ=            -14.7345
   XY=             -3.5982   XZ=             -0.0000   YZ=              0.0000

 Normal termination of Gaussian 16 at Fri Aug 26 23:47:26 2022.
