 Gaussian 16, Revision A.03,
 Gaussian 16:  ES64L-G16RevA.03 25-Dec-2016

 ------------------
 #p CCSD(T)/cc-pVTZ
 ------------------

 ------------
 H2O_H2O_1089
 ------------
 Symbolic Z-matrix:
 Charge =  0 Multiplicity = 1

                         Standard orientation:
 ---------------------------------------------------------------------
 Center     Atomic      Atomic             Coordinates (Angstroms)
 Number     Number       Type             X           Y           Z
 ---------------------------------------------------------------------
      1          8           0        0.048668    1.541481   -0.000000
      2          1           0        0.046073    0.558883   -0.000000
      3          1           0       -0.879980    1.862601   -0.000000
      4          8           0        0.048668   -1.361184    0.000000
      5          1           0        0.826635   -1.961410    0.000000
      6          1           0       -0.771419   -1.902445    0.000000
 ---------------------------------------------------------------------

 SCF Done:  E(RHF) =  -152.113799846     A.U. after   10 cycles
 E2 =    -0.5283086606D+00 EUMP2 =    -0.15264210850619D+03
 CCSD(T)
 CCSD(T)= -0.15266898804D+03

 The electronic state is 1-A'.
 Alpha  occ. eigenvalues --  -20.58664 -20.51850  -1.36102  -1.29485  -0.73329
 Alpha  occ. eigenvalues --   -0.68000  -0.59664  -0.53180  -0.52572  -0.46605
 Alpha virt. eigenvalues --    0.11859   0.17952   0.18971   0.31500   0.48618
 Alpha virt. eigenvalues --    0.54740   0.56645   0.60587   0.69322   0.71498
 Alpha virt. eigenvalues --    0.72935   0.77280   0.82430   0.82537   0.84907

 Mulliken charges:
               1
     1  O   -0.562129
     2  H    0.294359
     3  H    0.240846
     4  O   -0.496771
     5  H    0.265704
     6  H    0.257991
 Sum of Mulliken charges =   0.00000

 Dipole moment (field-independent basis, Debye):
    X=             -1.6108    Y=             -3.7406    Z=              0.0000  Tot=              4.0727
 Quadrupole moment (field-independent basis, Debye-Ang):
   XX=             -9.1843   YY=             -8.6680   ZZ=            -14.7295
   XY=             -3.4503   XZ=              0.0000   YZ=             -0.0000

 Normal termination of Gaussian 16 at Fri Aug 26 22:23:38 2022.
