 Gaussian 16, Revision A.03,
 Gaussian 16:  ES64L-G16RevA.03 25-Dec-2016

 ------------------
 #p CCSD(T)/cc-pVTZ
 ------------------

 ------------
 H2O_H2O_2681
 ------------
 Symbolic Z-matrix:
 Charge =  0 Multiplicity = 1

                         Standard orientation:
 ---------------------------------------------------------------------
 Center     Atomic      Atomic             Coordinates (Angstroms)
 Number     Number       Type             X           Y           Z
 ---------------------------------------------------------------------
      1          8           0        0.076762    2.170389   -0.000000
      2          1           0        0.076105    1.187788   -0.000000
      3          1           0       -0.852517    2.489678   -0.000000
      4          8           0        0.076762   -2.007189    0.000000
      5          1           0        0.452180   -2.915245    0.000000
      6          1           0       -0.903967   -2.067824    0.000000
 ---------------------------------------------------------------------

 SCF Done:  E(RHF) =  -152.109543696     A.U. after   10 cycles
 E2 =    -0.5261122337D+00 EUMP2 =    -0.15263565592956D+03
 CCSD(T)
 CCSD(T)= -0.15266279492D+03

 The electronic state is 1-A'.
 Alpha  occ. eigenvalues --  -20.56825 -20.54564  -1.34104  -1.31881  -0.71523
 Alpha  occ. eigenvalues --   -0.69260  -0.57629  -0.55349  -0.51225  -0.49008
 Alpha virt. eigenvalues --    0.12020   0.16010   0.19467   0.23431   0.53703
 Alpha virt. eigenvalues --    0.55342   0.56270   0.58522   0.68757   0.69799
 Alpha virt. eigenvalues --    0.77585   0.79068   0.79853   0.80496   0.83085

 Mulliken charges:
               1
     1  O   -0.516765
     2  H    0.264245
     3  H    0.248657
     4  O   -0.509215
     5  H    0.259686
     6  H    0.253392
 Sum of Mulliken charges =  -0.00000

 Dipole moment (field-independent basis, Debye):
    X=             -2.6098    Y=             -2.9652    Z=             -0.0000  Tot=              3.9501
 Quadrupole moment (field-independent basis, Debye-Ang):
   XX=             -9.9606   YY=             -7.9668   ZZ=            -14.7181
   XY=             -3.2934   XZ=              0.0000   YZ=             -0.0000

 Normal termination of Gaussian 16 at Fri Aug 26 16:31:27 2022.
