 Gaussian 16, Revision A.03,
 Gaussian 16:  ES64L-G16RevA.03 25-Dec-2016

 ------------------
 #p CCSD(T)/cc-pVTZ
 ------------------

 ------------
 H2O_H2O_3261
 ------------
 Symbolic Z-matrix:
 Charge =  0 Multiplicity = 1

                         Standard orientation:
 ---------------------------------------------------------------------
 Center     Atomic      Atomic             Coordinates (Angstroms)
 Number     Number       Type             X           Y           Z
 ---------------------------------------------------------------------
      1          8           0        0.059638    2.407484   -0.000000
      2          1           0        0.058419    1.424883   -0.000000
      3          1           0       -0.869459    2.727304   -0.000000
      4          8           0        0.059638   -2.230035    0.000000
      5          1           0        0.706595   -2.969598    0.000000
      6          1           0       -0.849766   -2.602178    0.000000
 ---------------------------------------------------------------------

 SCF Done:  E(RHF) =  -152.109308177     A.U. after   10 cycles
 E2 =    -0.5259089930D+00 EUMP2 =    -0.15263521717045D+03
 CCSD(T)
 CCSD(T)= -0.15266237657D+03

 The electronic state is 1-A'.
 Alpha  occ. eigenvalues --  -20.56538 -20.54601  -1.33823  -1.31917  -0.71228
 Alpha  occ. eigenvalues --   -0.69308  -0.57345  -0.55397  -0.50948  -0.49046
 Alpha virt. eigenvalues --    0.12560   0.15684   0.19496   0.22144   0.53363
 Alpha virt. eigenvalues --    0.55205   0.56389   0.58279   0.67472   0.69348
 Alpha virt. eigenvalues --    0.77958   0.78906   0.79638   0.79790   0.83084

 Mulliken charges:
               1
     1  O   -0.516548
     2  H    0.263318
     3  H    0.251300
     4  O   -0.514241
     5  H    0.260072
     6  H    0.256099
 Sum of Mulliken charges =  -0.00000

 Dipole moment (field-independent basis, Debye):
    X=             -2.0357    Y=             -3.1744    Z=              0.0000  Tot=              3.7711
 Quadrupole moment (field-independent basis, Debye-Ang):
   XX=             -9.3640   YY=             -7.1340   ZZ=            -14.7180
   XY=             -4.3247   XZ=              0.0000   YZ=             -0.0000

 Normal termination of Gaussian 16 at Fri Aug 26 20:41:57 2022.
