 Gaussian 16, Revision A.03,
 Gaussian 16:  ES64L-G16RevA.03 25-Dec-2016

 ------------------
 #p CCSD(T)/cc-pVTZ
 ------------------

 ------------
 H2O_H2O_2791
 ------------
 Symbolic Z-matrix:
 Charge =  0 Multiplicity = 1

                         Standard orientation:
 ---------------------------------------------------------------------
 Center     Atomic      Atomic             Coordinates (Angstroms)
 Number     Number       Type             X           Y           Z
 ---------------------------------------------------------------------
      1          8           0        0.041152    2.219360    0.000000
      2          1           0        0.039087    1.236761    0.000000
      3          1           0       -0.887669    2.539979   -0.000000
      4          8           0        0.041152   -2.039446    0.000000
      5          1           0        0.891076   -2.532535    0.000000
      6          1           0       -0.700923   -2.683520   -0.000000
 ---------------------------------------------------------------------

 SCF Done:  E(RHF) =  -152.110343469     A.U. after   10 cycles
 E2 =    -0.5259833469D+00 EUMP2 =    -0.15263632681539D+03
 CCSD(T)
 CCSD(T)= -0.15266345367D+03

 The electronic state is 1-A'.
 Alpha  occ. eigenvalues --  -20.56760 -20.54310  -1.34031  -1.31636  -0.71429
 Alpha  occ. eigenvalues --   -0.69032  -0.57597  -0.55126  -0.51164  -0.48776
 Alpha virt. eigenvalues --    0.12440   0.16161   0.19395   0.23247   0.53030
 Alpha virt. eigenvalues --    0.55575   0.56352   0.58771   0.68982   0.69454
 Alpha virt. eigenvalues --    0.77690   0.79043   0.79707   0.80052   0.83412

 Mulliken charges:
               1
     1  O   -0.521214
     2  H    0.265328
     3  H    0.251772
     4  O   -0.513477
     5  H    0.260244
     6  H    0.257347
 Sum of Mulliken charges =  -0.00000

 Dipole moment (field-independent basis, Debye):
    X=             -1.4015    Y=             -3.2626    Z=             -0.0000  Tot=              3.5509
 Quadrupole moment (field-independent basis, Debye-Ang):
   XX=             -9.1493   YY=             -7.3343   ZZ=            -14.7213
   XY=             -4.7847   XZ=              0.0000   YZ=             -0.0000

 Normal termination of Gaussian 16 at Fri Aug 26 17:20:51 2022.
