 Gaussian 16, Revision A.03,
 Gaussian 16:  ES64L-G16RevA.03 25-Dec-2016

 ------------------
 #p CCSD(T)/cc-pVTZ
 ------------------

 ------------
 H2O_H2O_1312
 ------------
 Symbolic Z-matrix:
 Charge =  0 Multiplicity = 1

                         Standard orientation:
 ---------------------------------------------------------------------
 Center     Atomic      Atomic             Coordinates (Angstroms)
 Number     Number       Type             X           Y           Z
 ---------------------------------------------------------------------
      1          8           0        0.056049    1.630431   -0.000000
      2          1           0        0.054013    0.647832   -0.000000
      3          1           0       -0.872782    1.951022   -0.000000
      4          8           0        0.056049   -1.451597    0.000000
      5          1           0        0.749412   -2.147839    0.000000
      6          1           0       -0.827426   -1.881687    0.000000
 ---------------------------------------------------------------------

 SCF Done:  E(RHF) =  -152.113826549     A.U. after   10 cycles
 E2 =    -0.5276313465D+00 EUMP2 =    -0.15264145789507D+03
 CCSD(T)
 CCSD(T)= -0.15266841799D+03

 The electronic state is 1-A'.
 Alpha  occ. eigenvalues --  -20.58250 -20.52582  -1.35583  -1.30085  -0.72903
 Alpha  occ. eigenvalues --   -0.67961  -0.59345  -0.53341  -0.52694  -0.47222
 Alpha virt. eigenvalues --    0.11928   0.17584   0.19088   0.30086   0.49102
 Alpha virt. eigenvalues --    0.54869   0.56496   0.59587   0.69512   0.71919
 Alpha virt. eigenvalues --    0.73598   0.76776   0.81872   0.82787   0.84849

 Mulliken charges:
               1
     1  O   -0.547254
     2  H    0.284394
     3  H    0.242263
     4  O   -0.501254
     5  H    0.264237
     6  H    0.257615
 Sum of Mulliken charges =  -0.00000

 Dipole moment (field-independent basis, Debye):
    X=             -1.8682    Y=             -3.5848    Z=              0.0000  Tot=              4.0424
 Quadrupole moment (field-independent basis, Debye-Ang):
   XX=             -9.2969   YY=             -8.4493   ZZ=            -14.7331
   XY=             -3.4770   XZ=              0.0000   YZ=              0.0000

 Normal termination of Gaussian 16 at Fri Aug 26 23:46:34 2022.
