 Gaussian 16, Revision A.03,
 Gaussian 16:  ES64L-G16RevA.03 25-Dec-2016

 ------------------
 #p CCSD(T)/cc-pVTZ
 ------------------

 ------------
 H2O_H2O_2573
 ------------
 Symbolic Z-matrix:
 Charge =  0 Multiplicity = 1

                         Standard orientation:
 ---------------------------------------------------------------------
 Center     Atomic      Atomic             Coordinates (Angstroms)
 Number     Number       Type             X           Y           Z
 ---------------------------------------------------------------------
      1          8           0       -0.016653    2.120637    0.000000
      2          1           0       -0.013476    1.138041    0.000000
      3          1           0        0.911805    2.442306    0.000000
      4          8           0       -0.016653   -1.957258    0.000000
      5          1           0       -0.996938   -2.024691    0.000000
      6          1           0        0.365053   -2.862689    0.000000
 ---------------------------------------------------------------------

 SCF Done:  E(RHF) =  -152.110564835     A.U. after   10 cycles
 E2 =    -0.5260480588D+00 EUMP2 =    -0.15263661289399D+03
 CCSD(T)
 CCSD(T)= -0.15266373232D+03

 The electronic state is 1-A'.
 Alpha  occ. eigenvalues --  -20.56858 -20.54409  -1.34136  -1.31736  -0.71547
 Alpha  occ. eigenvalues --   -0.69145  -0.57711  -0.55226  -0.51266  -0.48880
 Alpha virt. eigenvalues --    0.12215   0.16302   0.19261   0.24173   0.53860
 Alpha virt. eigenvalues --    0.55480   0.56236   0.58511   0.68758   0.70423
 Alpha virt. eigenvalues --    0.77466   0.79205   0.79979   0.80805   0.83540

 Mulliken charges:
               1
     1  O   -0.523718
     2  H    0.264625
     3  H    0.254366
     4  O   -0.512844
     5  H    0.259261
     6  H    0.258310
 Sum of Mulliken charges =  -0.00000

 Dipole moment (field-independent basis, Debye):
    X=              0.5718    Y=             -2.9802    Z=              0.0000  Tot=              3.0346
 Quadrupole moment (field-independent basis, Debye-Ang):
   XX=             -9.5436   YY=             -7.9927   ZZ=            -14.7217
   XY=              5.5637   XZ=              0.0000   YZ=              0.0000

 Normal termination of Gaussian 16 at Fri Aug 26 15:42:34 2022.
