 Gaussian 16, Revision A.03,
 Gaussian 16:  ES64L-G16RevA.03 25-Dec-2016

 ------------------
 #p CCSD(T)/cc-pVTZ
 ------------------

 ------------
 H2O_H2O_2297
 ------------
 Symbolic Z-matrix:
 Charge =  0 Multiplicity = 1

                         Standard orientation:
 ---------------------------------------------------------------------
 Center     Atomic      Atomic             Coordinates (Angstroms)
 Number     Number       Type             X           Y           Z
 ---------------------------------------------------------------------
      1          8           0       -0.019902    2.012958    0.000000
      2          1           0       -0.016687    1.030362    0.000000
      3          1           0        0.908544    2.334664    0.000000
      4          8           0       -0.019902   -1.845874    0.000000
      5          1           0       -0.993672   -1.977316    0.000000
      6          1           0        0.420239   -2.724386    0.000000
 ---------------------------------------------------------------------

 SCF Done:  E(RHF) =  -152.111308148     A.U. after   10 cycles
 E2 =    -0.5261780634D+00 EUMP2 =    -0.15263748621179D+03
 CCSD(T)
 CCSD(T)= -0.15266458197D+03

 The electronic state is 1-A'.
 Alpha  occ. eigenvalues --  -20.57058 -20.54158  -1.34328  -1.31497  -0.71737
 Alpha  occ. eigenvalues --   -0.68910  -0.57947  -0.54980  -0.51462  -0.48646
 Alpha virt. eigenvalues --    0.12233   0.16617   0.19244   0.25054   0.53370
 Alpha virt. eigenvalues --    0.55157   0.56190   0.58652   0.68816   0.71728
 Alpha virt. eigenvalues --    0.76999   0.78961   0.80248   0.82289   0.83616

 Mulliken charges:
               1
     1  O   -0.526833
     2  H    0.266091
     3  H    0.253628
     4  O   -0.511161
     5  H    0.260225
     6  H    0.258049
 Sum of Mulliken charges =  -0.00000

 Dipole moment (field-independent basis, Debye):
    X=              0.6803    Y=             -3.0872    Z=              0.0000  Tot=              3.1613
 Quadrupole moment (field-independent basis, Debye-Ang):
   XX=             -9.4477   YY=             -8.0028   ZZ=            -14.7244
   XY=              5.1367   XZ=              0.0000   YZ=              0.0000

 Normal termination of Gaussian 16 at Sun Aug 28 06:07:24 2022.
