 Gaussian 16, Revision A.03,
 Gaussian 16:  ES64L-G16RevA.03 25-Dec-2016

 ------------------
 #p CCSD(T)/cc-pVTZ
 ------------------

 -----------
 H2O_H2O_371
 -----------
 Symbolic Z-matrix:
 Charge =  0 Multiplicity = 1

                         Standard orientation:
 ---------------------------------------------------------------------
 Center     Atomic      Atomic             Coordinates (Angstroms)
 Number     Number       Type             X           Y           Z
 ---------------------------------------------------------------------
      1          8           0       -0.023424    1.246859    0.000000
      2          1           0       -0.018330    0.264271    0.000000
      3          1           0        0.904404    1.570340    0.000000
      4          8           0       -0.023424   -1.076590    0.000000
      5          1           0       -0.986139   -1.273280    0.000000
      6          1           0        0.474852   -1.923482    0.000000
 ---------------------------------------------------------------------

 SCF Done:  E(RHF) =  -152.088275097     A.U. after   11 cycles
 E2 =    -0.5330226163D+00 EUMP2 =    -0.15262129771316D+03
 CCSD(T)
 CCSD(T)= -0.15264744297D+03

 The electronic state is 1-A'.
 Alpha  occ. eigenvalues --  -20.60617 -20.47825  -1.39860  -1.26681  -0.77396
 Alpha  occ. eigenvalues --   -0.71298  -0.58149  -0.56078  -0.48231  -0.43565
 Alpha virt. eigenvalues --    0.11203   0.17664   0.19997   0.33993   0.47337
 Alpha virt. eigenvalues --    0.53033   0.59639   0.68460   0.70630   0.72047
 Alpha virt. eigenvalues --    0.75950   0.77451   0.78845   0.83909   0.84293

 Mulliken charges:
               1
     1  O   -0.634963
     2  H    0.297757
     3  H    0.232214
     4  O   -0.391770
     5  H    0.260838
     6  H    0.235924
 Sum of Mulliken charges =  -0.00000

 Dipole moment (field-independent basis, Debye):
    X=              0.7455    Y=             -4.3013    Z=              0.0000  Tot=              4.3654
 Quadrupole moment (field-independent basis, Debye-Ang):
   XX=             -9.2976   YY=             -9.6034   ZZ=            -14.6388
   XY=              3.0835   XZ=              0.0000   YZ=              0.0000

 Normal termination of Gaussian 16 at Fri Aug 26 17:45:59 2022.
