 Gaussian 16, Revision A.03,
 Gaussian 16:  ES64L-G16RevA.03 25-Dec-2016

 ------------------
 #p CCSD(T)/cc-pVTZ
 ------------------

 ------------
 H2O_H2O_1078
 ------------
 Symbolic Z-matrix:
 Charge =  0 Multiplicity = 1

                         Standard orientation:
 ---------------------------------------------------------------------
 Center     Atomic      Atomic             Coordinates (Angstroms)
 Number     Number       Type             X           Y           Z
 ---------------------------------------------------------------------
      1          8           0        0.085613   -1.524782    0.000000
      2          1           0        0.085183   -0.542180    0.000000
      3          1           0       -0.843741   -1.843855    0.000000
      4          8           0        0.085613    1.375212    0.000000
      5          1           0        0.276886    2.339017    0.000000
      6          1           0       -0.888132    1.243577    0.000000
 ---------------------------------------------------------------------

 SCF Done:  E(RHF) =  -152.109248635     A.U. after   10 cycles
 E2 =    -0.5289220814D+00 EUMP2 =    -0.15263817071676D+03
 CCSD(T)
 CCSD(T)= -0.15266512509D+03

 The electronic state is 1-A'.
 Alpha  occ. eigenvalues --  -20.58580 -20.53136  -1.36124  -1.30658  -0.73988
 Alpha  occ. eigenvalues --   -0.68242  -0.59482  -0.53844  -0.53103  -0.47738
 Alpha virt. eigenvalues --    0.11531   0.16619   0.20205   0.30514   0.48548
 Alpha virt. eigenvalues --    0.53950   0.58288   0.59765   0.68747   0.72402
 Alpha virt. eigenvalues --    0.74455   0.77528   0.80993   0.81866   0.83516

 Mulliken charges:
               1
     1  O   -0.539965
     2  H    0.284537
     3  H    0.233432
     4  O   -0.456406
     5  H    0.237900
     6  H    0.240503
 Sum of Mulliken charges =  -0.00000

 Dipole moment (field-independent basis, Debye):
    X=             -2.8256    Y=              3.1018    Z=              0.0000  Tot=              4.1959
 Quadrupole moment (field-independent basis, Debye-Ang):
   XX=            -10.4509   YY=             -8.9270   ZZ=            -14.7048
   XY=              2.5426   XZ=              0.0000   YZ=              0.0000

 Normal termination of Gaussian 16 at Fri Aug 26 22:19:32 2022.
