 Gaussian 16, Revision A.03,
 Gaussian 16:  ES64L-G16RevA.03 25-Dec-2016

 ------------------
 #p CCSD(T)/cc-pVTZ
 ------------------

 ------------
 H2O_H2O_3822
 ------------
 Symbolic Z-matrix:
 Charge =  0 Multiplicity = 1

                         Standard orientation:
 ---------------------------------------------------------------------
 Center     Atomic      Atomic             Coordinates (Angstroms)
 Number     Number       Type             X           Y           Z
 ---------------------------------------------------------------------
      1          8           0       -0.019836    2.621259    0.000000
      2          1           0       -0.017392    1.638661    0.000000
      3          1           0        0.908862    2.942237    0.000000
      4          8           0       -0.019836   -2.454144    0.000000
      5          1           0       -0.993709   -2.584821    0.000000
      6          1           0        0.419615   -3.333000    0.000000
 ---------------------------------------------------------------------

 SCF Done:  E(RHF) =  -152.108895628     A.U. after   10 cycles
 E2 =    -0.5258184338D+00 EUMP2 =    -0.15263471406171D+03
 CCSD(T)
 CCSD(T)= -0.15266189514D+03

 The electronic state is 1-A'.
 Alpha  occ. eigenvalues --  -20.56329 -20.54873  -1.33628  -1.32184  -0.71033
 Alpha  occ. eigenvalues --   -0.69590  -0.57137  -0.55665  -0.50750  -0.49313
 Alpha virt. eigenvalues --    0.12805   0.15296   0.19367   0.21748   0.53279
 Alpha virt. eigenvalues --    0.55166   0.56591   0.57873   0.66718   0.69119
 Alpha virt. eigenvalues --    0.78146   0.78918   0.79534   0.80508   0.82842

 Mulliken charges:
               1
     1  O   -0.516161
     2  H    0.261001
     3  H    0.254557
     4  O   -0.516041
     5  H    0.258013
     6  H    0.258631
 Sum of Mulliken charges =   0.00000

 Dipole moment (field-independent basis, Debye):
    X=              0.6807    Y=             -2.9552    Z=              0.0000  Tot=              3.0326
 Quadrupole moment (field-independent basis, Debye-Ang):
   XX=             -9.4468   YY=             -7.2989   ZZ=            -14.7164
   XY=              6.6713   XZ=              0.0000   YZ=              0.0000

 CCSD(T)=-152.6618951\RMSD=7.056e-09\PG=CS [SG(H4O2)]\\@
 Normal termination of Gaussian 16 at Fri Aug 26 23:52:58 2022.
