 Gaussian 16, Revision A.03,
 Gaussian 16:  ES64L-G16RevA.03 25-Dec-2016

 ------------------
 #p CCSD(T)/cc-pVTZ
 ------------------

 ------------
 H2O_H2O_2041
 ------------
 Symbolic Z-matrix:
 Charge =  0 Multiplicity = 1

                         Standard orientation:
 ---------------------------------------------------------------------
 Center     Atomic      Atomic             Coordinates (Angstroms)
 Number     Number       Type             X           Y           Z
 ---------------------------------------------------------------------
      1          8           0        0.041183    1.920189   -0.000000
      2          1           0        0.038780    0.937590   -0.000000
      3          1           0       -0.887528    2.241127    0.000000
      4          8           0        0.041183   -1.740303   -0.000000
      5          1           0        0.890937   -2.233683   -0.000000
      6          1           0       -0.701114   -2.384121    0.000000
 ---------------------------------------------------------------------

 SCF Done:  E(RHF) =  -152.112300756     A.U. after   10 cycles
 E2 =    -0.5263712608D+00 EUMP2 =    -0.15263867201718D+03
 CCSD(T)
 CCSD(T)= -0.15266573792D+03

 The electronic state is 1-A'.
 Alpha  occ. eigenvalues --  -20.57318 -20.53704  -1.34569  -1.31062  -0.71951
 Alpha  occ. eigenvalues --   -0.68492  -0.58260  -0.54526  -0.51710  -0.48216
 Alpha virt. eigenvalues --    0.12247   0.16983   0.19161   0.26088   0.51808
 Alpha virt. eigenvalues --    0.55005   0.56439   0.58956   0.69083   0.72312
 Alpha virt. eigenvalues --    0.76363   0.77659   0.80696   0.83464   0.84255

 Mulliken charges:
               1
     1  O   -0.529788
     2  H    0.269171
     3  H    0.249763
     4  O   -0.508732
     5  H    0.261930
     6  H    0.257656
 Sum of Mulliken charges =   0.00000

 Dipole moment (field-independent basis, Debye):
    X=             -1.3936    Y=             -3.3776    Z=              0.0000  Tot=              3.6538
 Quadrupole moment (field-independent basis, Debye-Ang):
   XX=             -9.1514   YY=             -7.8468   ZZ=            -14.7288
   XY=             -4.2454   XZ=             -0.0000   YZ=              0.0000

 1345\MP4DQ=-152.6475657\MP4SDQ=-152.650643\CCSD=-152.6500363\CCSD(T)=-
 Normal termination of Gaussian 16 at Sun Aug 28 03:48:08 2022.
