 Gaussian 16, Revision A.03,
 Gaussian 16:  ES64L-G16RevA.03 25-Dec-2016

 ------------------
 #p CCSD(T)/cc-pVTZ
 ------------------

 -----------
 H2O_H2O_470
 -----------
 Symbolic Z-matrix:
 Charge =  0 Multiplicity = 1

                         Standard orientation:
 ---------------------------------------------------------------------
 Center     Atomic      Atomic             Coordinates (Angstroms)
 Number     Number       Type             X           Y           Z
 ---------------------------------------------------------------------
      1          8           0        0.026850    1.288286   -0.000000
      2          1           0        0.022169    0.305695   -0.000000
      3          1           0       -0.901114    1.611377   -0.000000
      4          8           0        0.026850   -1.115180    0.000000
      5          1           0        0.974749   -1.374015    0.000000
      6          1           0       -0.525407   -1.927902    0.000000
 ---------------------------------------------------------------------

 SCF Done:  E(RHF) =  -152.096954497     A.U. after   11 cycles
 E2 =    -0.5320403564D+00 EUMP2 =    -0.15262899485321D+03
 CCSD(T)
 CCSD(T)= -0.15265530672D+03

 The electronic state is 1-A'.
 Alpha  occ. eigenvalues --  -20.60278 -20.48591  -1.38989  -1.27166  -0.76248
 Alpha  occ. eigenvalues --   -0.70700  -0.58647  -0.55492  -0.49071  -0.44106
 Alpha virt. eigenvalues --    0.11337   0.17827   0.19746   0.33906   0.47365
 Alpha virt. eigenvalues --    0.53458   0.59417   0.68096   0.69273   0.72191
 Alpha virt. eigenvalues --    0.74632   0.77709   0.79713   0.83826   0.83890

 Mulliken charges:
               1
     1  O   -0.623256
     2  H    0.303414
     3  H    0.233826
     4  O   -0.415564
     5  H    0.261200
     6  H    0.240380
 Sum of Mulliken charges =  -0.00000

 Dipole moment (field-independent basis, Debye):
    X=             -0.8622    Y=             -4.2130    Z=              0.0000  Tot=              4.3003
 Quadrupole moment (field-independent basis, Debye-Ang):
   XX=             -9.2417   YY=             -9.4613   ZZ=            -14.6619
   XY=             -3.1461   XZ=              0.0000   YZ=             -0.0000

 Normal termination of Gaussian 16 at Fri Aug 26 18:29:03 2022.
