 Gaussian 16, Revision A.03,
 Gaussian 16:  ES64L-G16RevA.03 25-Dec-2016

 ------------------
 #p CCSD(T)/cc-pVTZ
 ------------------

 ------------
 H2O_H2O_4459
 ------------
 Symbolic Z-matrix:
 Charge =  0 Multiplicity = 1

                         Standard orientation:
 ---------------------------------------------------------------------
 Center     Atomic      Atomic             Coordinates (Angstroms)
 Number     Number       Type             X           Y           Z
 ---------------------------------------------------------------------
      1          8           0        0.066744    2.883789    0.000000
      2          1           0        0.065949    1.901188    0.000000
      3          1           0       -0.862491    3.203207    0.000000
      4          8           0        0.066744   -2.710659   -0.000000
      5          1           0        0.611987   -3.528104   -0.000000
      6          1           0       -0.883347   -2.961328   -0.000000
 ---------------------------------------------------------------------

 SCF Done:  E(RHF) =  -152.108243249     A.U. after   10 cycles
 E2 =    -0.5258274933D+00 EUMP2 =    -0.15263407074271D+03
 CCSD(T)
 CCSD(T)= -0.15266127110D+03

 The electronic state is 1-A'.
 Alpha  occ. eigenvalues --  -20.56200 -20.55002  -1.33501  -1.32309  -0.70908
 Alpha  occ. eigenvalues --   -0.69707  -0.56986  -0.55774  -0.50618  -0.49429
 Alpha virt. eigenvalues --    0.13261   0.14898   0.19592   0.21082   0.53544
 Alpha virt. eigenvalues --    0.54869   0.56630   0.57779   0.66833   0.68737
 Alpha virt. eigenvalues --    0.78271   0.79430   0.79484   0.80408   0.82606

 Mulliken charges:
               1
     1  O   -0.512769
     2  H    0.260059
     3  H    0.252578
     4  O   -0.513686
     5  H    0.258587
     6  H    0.255232
 Sum of Mulliken charges =  -0.00000

 Dipole moment (field-independent basis, Debye):
    X=             -2.2885    Y=             -3.0403    Z=             -0.0000  Tot=              3.8053
 Quadrupole moment (field-independent basis, Debye-Ang):
   XX=             -9.5602   YY=             -6.6652   ZZ=            -14.7142
   XY=             -4.4186   XZ=             -0.0000   YZ=              0.0000

 Normal termination of Gaussian 16 at Sun Aug 28 03:06:51 2022.
