 Gaussian 16, Revision A.03,
 Gaussian 16:  ES64L-G16RevA.03 25-Dec-2016

 ------------------
 #p CCSD(T)/cc-pVTZ
 ------------------

 ------------
 H2O_H2O_3817
 ------------
 Symbolic Z-matrix:
 Charge =  0 Multiplicity = 1

                         Standard orientation:
 ---------------------------------------------------------------------
 Center     Atomic      Atomic             Coordinates (Angstroms)
 Number     Number       Type             X           Y           Z
 ---------------------------------------------------------------------
      1          8           0        0.037426    2.627701    0.000000
      2          1           0        0.035570    1.645102    0.000000
      3          1           0       -0.891464    2.948123    0.000000
      4          8           0        0.037426   -2.448720   -0.000000
      5          1           0        0.917871   -2.884978   -0.000000
      6          1           0       -0.660790   -3.140097   -0.000000
 ---------------------------------------------------------------------

 SCF Done:  E(RHF) =  -152.108946650     A.U. after   10 cycles
 E2 =    -0.5258237869D+00 EUMP2 =    -0.15263477043706D+03
 CCSD(T)
 CCSD(T)= -0.15266194907D+03

 The electronic state is 1-A'.
 Alpha  occ. eigenvalues --  -20.56338 -20.54765  -1.33634  -1.32077  -0.71036
 Alpha  occ. eigenvalues --   -0.69478  -0.57146  -0.55557  -0.50756  -0.49205
 Alpha virt. eigenvalues --    0.12962   0.15322   0.19590   0.21501   0.53475
 Alpha virt. eigenvalues --    0.55002   0.56567   0.57872   0.66725   0.69198
 Alpha virt. eigenvalues --    0.78141   0.79168   0.79638   0.79781   0.82940

 Mulliken charges:
               1
     1  O   -0.516055
     2  H    0.262007
     3  H    0.253355
     4  O   -0.515990
     5  H    0.258994
     6  H    0.257689
 Sum of Mulliken charges =  -0.00000

 Dipole moment (field-independent basis, Debye):
    X=             -1.2812    Y=             -3.1675    Z=             -0.0000  Tot=              3.4168
 Quadrupole moment (field-independent basis, Debye-Ang):
   XX=             -9.1591   YY=             -6.7236   ZZ=            -14.7167
   XY=             -5.7043   XZ=             -0.0000   YZ=             -0.0000

 Normal termination of Gaussian 16 at Fri Aug 26 23:51:10 2022.
