 Gaussian 16, Revision A.03,
 Gaussian 16:  ES64L-G16RevA.03 25-Dec-2016

 ------------------
 #p CCSD(T)/cc-pVTZ
 ------------------

 ------------
 H2O_H2O_3885
 ------------
 Symbolic Z-matrix:
 Charge =  0 Multiplicity = 1

                         Standard orientation:
 ---------------------------------------------------------------------
 Center     Atomic      Atomic             Coordinates (Angstroms)
 Number     Number       Type             X           Y           Z
 ---------------------------------------------------------------------
      1          8           0        0.063224    2.655736   -0.000000
      2          1           0        0.062242    1.673135   -0.000000
      3          1           0       -0.865950    2.975331   -0.000000
      4          8           0        0.063224   -2.480211    0.000000
      5          1           0        0.660615   -3.260359    0.000000
      6          1           0       -0.868497   -2.792305    0.000000
 ---------------------------------------------------------------------

 SCF Done:  E(RHF) =  -152.108628189     A.U. after   10 cycles
 E2 =    -0.5258455705D+00 EUMP2 =    -0.15263447375947D+03
 CCSD(T)
 CCSD(T)= -0.15266165974D+03

 The electronic state is 1-A'.
 Alpha  occ. eigenvalues --  -20.56328 -20.54840  -1.33625  -1.32150  -0.71031
 Alpha  occ. eigenvalues --   -0.69545  -0.57123  -0.55622  -0.50744  -0.49274
 Alpha virt. eigenvalues --    0.12923   0.15225   0.19555   0.21416   0.53431
 Alpha virt. eigenvalues --    0.54969   0.56536   0.57877   0.66701   0.69129
 Alpha virt. eigenvalues --    0.78153   0.79077   0.79576   0.80044   0.82856

 Mulliken charges:
               1
     1  O   -0.514168
     2  H    0.261504
     3  H    0.252098
     4  O   -0.514638
     5  H    0.259453
     6  H    0.255751
 Sum of Mulliken charges =  -0.00000

 Dipole moment (field-independent basis, Debye):
    X=             -2.1639    Y=             -3.1031    Z=              0.0000  Tot=              3.7831
 Quadrupole moment (field-independent basis, Debye-Ang):
   XX=             -9.4548   YY=             -6.8566   ZZ=            -14.7156
   XY=             -4.4135   XZ=              0.0000   YZ=             -0.0000

 Normal termination of Gaussian 16 at Sat Aug 27 00:16:37 2022.
