 Gaussian 16, Revision A.03,
 Gaussian 16:  ES64L-G16RevA.03 25-Dec-2016

 ------------------
 #p CCSD(T)/cc-pVTZ
 ------------------

 ------------
 H2O_H2O_3350
 ------------
 Symbolic Z-matrix:
 Charge =  0 Multiplicity = 1

                         Standard orientation:
 ---------------------------------------------------------------------
 Center     Atomic      Atomic             Coordinates (Angstroms)
 Number     Number       Type             X           Y           Z
 ---------------------------------------------------------------------
      1          8           0        0.092949   -2.423110    0.000000
      2          1           0        0.092949   -1.440509    0.000000
      3          1           0       -0.836544   -2.741777    0.000000
      4          8           0        0.092949    2.290323    0.000000
      5          1           0        0.092950    3.272926    0.000000
      6          1           0       -0.836544    1.971657    0.000000
 ---------------------------------------------------------------------

 SCF Done:  E(RHF) =  -152.107881629     A.U. after   10 cycles
 E2 =    -0.5259951460D+00 EUMP2 =    -0.15263387677534D+03
 CCSD(T)
 CCSD(T)= -0.15266107340D+03

 The electronic state is 1-A'.
 Alpha  occ. eigenvalues --  -20.56510 -20.55218  -1.33807  -1.32519  -0.71235
 Alpha  occ. eigenvalues --   -0.69905  -0.57271  -0.55969  -0.50915  -0.49631
 Alpha virt. eigenvalues --    0.11658   0.15359   0.19104   0.22948   0.53719
 Alpha virt. eigenvalues --    0.54774   0.56458   0.58002   0.67218   0.68841
 Alpha virt. eigenvalues --    0.77990   0.78567   0.79243   0.81278   0.82472

 Mulliken charges:
               1
     1  O   -0.509839
     2  H    0.258882
     3  H    0.250238
     4  O   -0.509441
     5  H    0.259644
     6  H    0.250517
 Sum of Mulliken charges =   0.00000

 Dipole moment (field-independent basis, Debye):
    X=             -3.1722    Y=              2.3638    Z=              0.0000  Tot=              3.9560
 Quadrupole moment (field-independent basis, Debye-Ang):
   XX=            -10.8537   YY=             -9.2375   ZZ=            -14.7123
   XY=              2.1512   XZ=              0.0000   YZ=              0.0000

 Normal termination of Gaussian 16 at Fri Aug 26 21:12:56 2022.
