 Gaussian 16, Revision A.03,
 Gaussian 16:  ES64L-G16RevA.03 25-Dec-2016

 ------------------
 #p CCSD(T)/cc-pVTZ
 ------------------

 ------------
 H2O_H2O_1135
 ------------
 Symbolic Z-matrix:
 Charge =  0 Multiplicity = 1

                         Standard orientation:
 ---------------------------------------------------------------------
 Center     Atomic      Atomic             Coordinates (Angstroms)
 Number     Number       Type             X           Y           Z
 ---------------------------------------------------------------------
      1          8           0        0.063290    1.558777    0.000000
      2          1           0        0.061575    0.576177    0.000000
      3          1           0       -0.865646    1.879065    0.000000
      4          8           0        0.063290   -1.383347   -0.000000
      5          1           0        0.660099   -2.163940   -0.000000
      6          1           0       -0.868664   -1.694746   -0.000000
 ---------------------------------------------------------------------

 SCF Done:  E(RHF) =  -152.113106923     A.U. after   10 cycles
 E2 =    -0.5282519499D+00 EUMP2 =    -0.15264135887243D+03
 CCSD(T)
 CCSD(T)= -0.15266826887D+03

 The electronic state is 1-A'.
 Alpha  occ. eigenvalues --  -20.58557 -20.52250  -1.35980  -1.29828  -0.73316
 Alpha  occ. eigenvalues --   -0.68029  -0.59561  -0.53053  -0.52976  -0.46944
 Alpha virt. eigenvalues --    0.11783   0.17435   0.19311   0.31014   0.48534
 Alpha virt. eigenvalues --    0.54782   0.57584   0.59505   0.69810   0.72678
 Alpha virt. eigenvalues --    0.73015   0.76766   0.82164   0.82429   0.84630

 Mulliken charges:
               1
     1  O   -0.553597
     2  H    0.290952
     3  H    0.238358
     4  O   -0.489711
     5  H    0.259230
     6  H    0.254768
 Sum of Mulliken charges =  -0.00000

 Dipole moment (field-independent basis, Debye):
    X=             -2.0961    Y=             -3.6065    Z=             -0.0000  Tot=              4.1714
 Quadrupole moment (field-independent basis, Debye-Ang):
   XX=             -9.4735   YY=             -8.6365   ZZ=            -14.7265
   XY=             -3.2578   XZ=             -0.0000   YZ=             -0.0000

 CCSD(T)=-152.6682689\RMSD=7.278e-09\PG=CS [SG(H4O2)]\\@
 Normal termination of Gaussian 16 at Fri Aug 26 22:40:17 2022.
