 Gaussian 16, Revision A.03,
 Gaussian 16:  ES64L-G16RevA.03 25-Dec-2016

 ------------------
 #p CCSD(T)/cc-pVTZ
 ------------------

 ------------
 H2O_H2O_3103
 ------------
 Symbolic Z-matrix:
 Charge =  0 Multiplicity = 1

                         Standard orientation:
 ---------------------------------------------------------------------
 Center     Atomic      Atomic             Coordinates (Angstroms)
 Number     Number       Type             X           Y           Z
 ---------------------------------------------------------------------
      1          8           0        0.085601   -2.332522    0.000000
      2          1           0        0.085325   -1.349920    0.000000
      3          1           0       -0.843802   -2.651450    0.000000
      4          8           0        0.085601    2.182925    0.000000
      5          1           0        0.277026    3.146700    0.000000
      6          1           0       -0.888164    2.051442    0.000000
 ---------------------------------------------------------------------

 SCF Done:  E(RHF) =  -152.108524031     A.U. after   10 cycles
 E2 =    -0.5260145904D+00 EUMP2 =    -0.15263453862142D+03
 CCSD(T)
 CCSD(T)= -0.15266171287D+03

 The electronic state is 1-A'.
 Alpha  occ. eigenvalues --  -20.56606 -20.54938  -1.33898  -1.32245  -0.71321
 Alpha  occ. eigenvalues --   -0.69628  -0.57383  -0.55705  -0.51011  -0.49363
 Alpha virt. eigenvalues --    0.11892   0.15597   0.19362   0.22741   0.54007
 Alpha virt. eigenvalues --    0.54851   0.56419   0.58225   0.67729   0.69118
 Alpha virt. eigenvalues --    0.77887   0.78579   0.79499   0.80943   0.82721

 Mulliken charges:
               1
     1  O   -0.512494
     2  H    0.261164
     3  H    0.249684
     4  O   -0.510196
     5  H    0.259802
     6  H    0.252040
 Sum of Mulliken charges =  -0.00000

 Dipole moment (field-independent basis, Debye):
    X=             -2.9176    Y=              2.6807    Z=              0.0000  Tot=              3.9621
 Quadrupole moment (field-independent basis, Debye-Ang):
   XX=            -10.4074   YY=             -8.4019   ZZ=            -14.7147
   XY=              2.7939   XZ=              0.0000   YZ=              0.0000

 Normal termination of Gaussian 16 at Fri Aug 26 19:47:05 2022.
