 Gaussian 16, Revision A.03,
 Gaussian 16:  ES64L-G16RevA.03 25-Dec-2016

 ------------------
 #p CCSD(T)/cc-pVTZ
 ------------------

 ------------
 H2O_H2O_4472
 ------------
 Symbolic Z-matrix:
 Charge =  0 Multiplicity = 1

                         Standard orientation:
 ---------------------------------------------------------------------
 Center     Atomic      Atomic             Coordinates (Angstroms)
 Number     Number       Type             X           Y           Z
 ---------------------------------------------------------------------
      1          8           0       -0.019817    2.880534    0.000000
      2          1           0       -0.017599    1.897935    0.000000
      3          1           0        0.908955    3.201297    0.000000
      4          8           0       -0.019817   -2.713409    0.000000
      5          1           0       -0.993721   -2.843862    0.000000
      6          1           0        0.419431   -3.592367    0.000000
 ---------------------------------------------------------------------

 SCF Done:  E(RHF) =  -152.108468267     A.U. after   10 cycles
 E2 =    -0.5257992051D+00 EUMP2 =    -0.15263426747163D+03
 CCSD(T)
 CCSD(T)= -0.15266146422D+03

 The electronic state is 1-A'.
 Alpha  occ. eigenvalues --  -20.56185 -20.55026  -1.33487  -1.32334  -0.70892
 Alpha  occ. eigenvalues --   -0.69740  -0.56981  -0.55808  -0.50606  -0.49458
 Alpha virt. eigenvalues --    0.13251   0.14925   0.19499   0.21223   0.53477
 Alpha virt. eigenvalues --    0.54915   0.56670   0.57786   0.66828   0.68696
 Alpha virt. eigenvalues --    0.78280   0.79398   0.79482   0.80613   0.82517

 Mulliken charges:
               1
     1  O   -0.514452
     2  H    0.259700
     3  H    0.254628
     4  O   -0.514983
     5  H    0.257263
     6  H    0.257843
 Sum of Mulliken charges =  -0.00000

 Dipole moment (field-independent basis, Debye):
    X=              0.6809    Y=             -2.9331    Z=              0.0000  Tot=              3.0110
 Quadrupole moment (field-independent basis, Debye-Ang):
   XX=             -9.4475   YY=             -7.0003   ZZ=            -14.7149
   XY=              7.3247   XZ=              0.0000   YZ=              0.0000

 Normal termination of Gaussian 16 at Sun Aug 28 03:12:38 2022.
