 Gaussian 16, Revision A.03,
 Gaussian 16:  ES64L-G16RevA.03 25-Dec-2016

 ------------------
 #p CCSD(T)/cc-pVTZ
 ------------------

 ------------
 H2O_H2O_4353
 ------------
 Symbolic Z-matrix:
 Charge =  0 Multiplicity = 1

                         Standard orientation:
 ---------------------------------------------------------------------
 Center     Atomic      Atomic             Coordinates (Angstroms)
 Number     Number       Type             X           Y           Z
 ---------------------------------------------------------------------
      1          8           0        0.085597   -2.831123    0.000000
      2          1           0        0.085371   -1.848521    0.000000
      3          1           0       -0.843822   -3.150003    0.000000
      4          8           0        0.085597    2.681517    0.000000
      5          1           0        0.277072    3.645283    0.000000
      6          1           0       -0.888175    2.550085    0.000000
 ---------------------------------------------------------------------

 SCF Done:  E(RHF) =  -152.107886124     A.U. after   10 cycles
 E2 =    -0.5258634482D+00 EUMP2 =    -0.15263374957182D+03
 CCSD(T)
 CCSD(T)= -0.15266095737D+03

 The electronic state is 1-A'.
 Alpha  occ. eigenvalues --  -20.56232 -20.55192  -1.33533  -1.32495  -0.70946
 Alpha  occ. eigenvalues --   -0.69891  -0.57002  -0.55952  -0.50646  -0.49610
 Alpha virt. eigenvalues --    0.12863   0.14848   0.19155   0.21483   0.53263
 Alpha virt. eigenvalues --    0.54897   0.56556   0.57759   0.66831   0.68634
 Alpha virt. eigenvalues --    0.78246   0.79257   0.79440   0.81081   0.82182

 Mulliken charges:
               1
     1  O   -0.510728
     2  H    0.258571
     3  H    0.252034
     4  O   -0.511785
     5  H    0.258611
     6  H    0.253296
 Sum of Mulliken charges =  -0.00000

 Dipole moment (field-independent basis, Debye):
    X=             -2.9340    Y=              2.6287    Z=              0.0000  Tot=              3.9394
 Quadrupole moment (field-independent basis, Debye-Ang):
   XX=            -10.3976   YY=             -8.1537   ZZ=            -14.7128
   XY=              2.9262   XZ=              0.0000   YZ=              0.0000

 Normal termination of Gaussian 16 at Sun Aug 28 02:10:34 2022.
