 Gaussian 16, Revision A.03,
 Gaussian 16:  ES64L-G16RevA.03 25-Dec-2016

 ------------------
 #p CCSD(T)/cc-pVTZ
 ------------------

 ------------
 H2O_H2O_2738
 ------------
 Symbolic Z-matrix:
 Charge =  0 Multiplicity = 1

                         Standard orientation:
 ---------------------------------------------------------------------
 Center     Atomic      Atomic             Coordinates (Angstroms)
 Number     Number       Type             X           Y           Z
 ---------------------------------------------------------------------
      1          8           0        0.052309    2.199396   -0.000000
      2          1           0        0.050673    1.216795   -0.000000
      3          1           0       -0.876652    2.519609   -0.000000
      4          8           0        0.052309   -2.019517    0.000000
      5          1           0        0.789988   -2.668620    0.000000
      6          1           0       -0.800948   -2.506815    0.000000
 ---------------------------------------------------------------------

 SCF Done:  E(RHF) =  -152.110306175     A.U. after   10 cycles
 E2 =    -0.5260169838D+00 EUMP2 =    -0.15263632315838D+03
 CCSD(T)
 CCSD(T)= -0.15266344871D+03

 The electronic state is 1-A'.
 Alpha  occ. eigenvalues --  -20.56796 -20.54295  -1.34066  -1.31620  -0.71465
 Alpha  occ. eigenvalues --   -0.69011  -0.57630  -0.55106  -0.51198  -0.48758
 Alpha virt. eigenvalues --    0.12390   0.16180   0.19398   0.23346   0.52968
 Alpha virt. eigenvalues --    0.55594   0.56248   0.58880   0.69015   0.69605
 Alpha virt. eigenvalues --    0.77643   0.78993   0.79805   0.80072   0.83428

 Mulliken charges:
               1
     1  O   -0.520588
     2  H    0.265546
     3  H    0.250635
     4  O   -0.512440
     5  H    0.260330
     6  H    0.256517
 Sum of Mulliken charges =  -0.00000

 Dipole moment (field-independent basis, Debye):
    X=             -1.7802    Y=             -3.2680    Z=              0.0000  Tot=              3.7215
 Quadrupole moment (field-independent basis, Debye-Ang):
   XX=             -9.2273   YY=             -7.3716   ZZ=            -14.7211
   XY=             -4.3552   XZ=              0.0000   YZ=             -0.0000

 CCSD(T)=-152.6634487\RMSD=6.773e-09\PG=CS [SG(H4O2)]\\@
 Normal termination of Gaussian 16 at Fri Aug 26 16:56:13 2022.
