 Gaussian 16, Revision A.03,
 Gaussian 16:  ES64L-G16RevA.03 25-Dec-2016

 ------------------
 #p CCSD(T)/cc-pVTZ
 ------------------

 ------------
 H2O_H2O_4733
 ------------
 Symbolic Z-matrix:
 Charge =  0 Multiplicity = 1

                         Standard orientation:
 ---------------------------------------------------------------------
 Center     Atomic      Atomic             Coordinates (Angstroms)
 Number     Number       Type             X           Y           Z
 ---------------------------------------------------------------------
      1          8           0        0.070182    2.991927    0.000000
      2          1           0        0.069518    2.009326    0.000000
      3          1           0       -0.859095    3.311222    0.000000
      4          8           0        0.070182   -2.821656   -0.000000
      5          1           0        0.560908   -3.672945   -0.000000
      6          1           0       -0.894243   -3.009777   -0.000000
 ---------------------------------------------------------------------

 SCF Done:  E(RHF) =  -152.108090282     A.U. after   10 cycles
 E2 =    -0.5258284531D+00 EUMP2 =    -0.15263391873525D+03
 CCSD(T)
 CCSD(T)= -0.15266112376D+03

 The electronic state is 1-A'.
 Alpha  occ. eigenvalues --  -20.56155 -20.55078  -1.33456  -1.32383  -0.70864
 Alpha  occ. eigenvalues --   -0.69782  -0.56935  -0.55846  -0.50572  -0.49502
 Alpha virt. eigenvalues --    0.13376   0.14766   0.19595   0.20974   0.53597
 Alpha virt. eigenvalues --    0.54814   0.56662   0.57732   0.66982   0.68552
 Alpha virt. eigenvalues --    0.78314   0.79361   0.79628   0.80592   0.82271

 Mulliken charges:
               1
     1  O   -0.512108
     2  H    0.259335
     3  H    0.252715
     4  O   -0.512977
     5  H    0.258167
     6  H    0.254868
 Sum of Mulliken charges =  -0.00000

 Dipole moment (field-independent basis, Debye):
    X=             -2.4081    Y=             -2.9833    Z=             -0.0000  Tot=              3.8339
 Quadrupole moment (field-independent basis, Debye-Ang):
   XX=             -9.6787   YY=             -6.6947   ZZ=            -14.7137
   XY=             -4.2695   XZ=             -0.0000   YZ=              0.0000

 Normal termination of Gaussian 16 at Sun Aug 28 05:27:53 2022.
