 Gaussian 16, Revision A.03,
 Gaussian 16:  ES64L-G16RevA.03 25-Dec-2016

 ------------------
 #p CCSD(T)/cc-pVTZ
 ------------------

 ------------
 H2O_H2O_4966
 ------------
 Symbolic Z-matrix:
 Charge =  0 Multiplicity = 1

                         Standard orientation:
 ---------------------------------------------------------------------
 Center     Atomic      Atomic             Coordinates (Angstroms)
 Number     Number       Type             X           Y           Z
 ---------------------------------------------------------------------
      1          8           0        0.041097    3.086942    0.000000
      2          1           0        0.039630    2.104342    0.000000
      3          1           0       -0.887919    3.406996    0.000000
      4          8           0        0.041097   -2.906978   -0.000000
      5          1           0        0.891321   -3.399549   -0.000000
      6          1           0       -0.700586   -3.551503   -0.000000
 ---------------------------------------------------------------------

 SCF Done:  E(RHF) =  -152.108257585     A.U. after   10 cycles
 E2 =    -0.5258049099D+00 EUMP2 =    -0.15263406249492D+03
 CCSD(T)
 CCSD(T)= -0.15266126498D+03

 The electronic state is 1-A'.
 Alpha  occ. eigenvalues --  -20.56111 -20.55034  -1.33413  -1.32340  -0.70817
 Alpha  occ. eigenvalues --   -0.69743  -0.56900  -0.55809  -0.50531  -0.49462
 Alpha virt. eigenvalues --    0.13546   0.14766   0.19749   0.20888   0.53732
 Alpha virt. eigenvalues --    0.54798   0.56725   0.57763   0.67074   0.68497
 Alpha virt. eigenvalues --    0.78352   0.79398   0.79761   0.80526   0.82189

 Mulliken charges:
               1
     1  O   -0.513290
     2  H    0.259496
     3  H    0.253761
     4  O   -0.513878
     5  H    0.257509
     6  H    0.256402
 Sum of Mulliken charges =   0.00000

 Dipole moment (field-independent basis, Debye):
    X=             -1.4111    Y=             -3.1481    Z=             -0.0000  Tot=              3.4499
 Quadrupole moment (field-independent basis, Debye-Ang):
   XX=             -9.1497   YY=             -5.9376   ZZ=            -14.7143
   XY=             -6.3402   XZ=             -0.0000   YZ=              0.0000

 Normal termination of Gaussian 16 at Sun Aug 28 07:17:07 2022.
