 Gaussian 16, Revision A.03,
 Gaussian 16:  ES64L-G16RevA.03 25-Dec-2016

 ------------------
 #p CCSD(T)/cc-pVTZ
 ------------------

 ------------
 H2O_H2O_2014
 ------------
 Symbolic Z-matrix:
 Charge =  0 Multiplicity = 1

                         Standard orientation:
 ---------------------------------------------------------------------
 Center     Atomic      Atomic             Coordinates (Angstroms)
 Number     Number       Type             X           Y           Z
 ---------------------------------------------------------------------
      1          8           0        0.048620    1.910467   -0.000000
      2          1           0        0.046551    0.927868   -0.000000
      3          1           0       -0.880200    2.231090   -0.000000
      4          8           0        0.048620   -1.730118    0.000000
      5          1           0        0.826910   -2.329928    0.000000
      6          1           0       -0.771178   -2.271818    0.000000
 ---------------------------------------------------------------------

 SCF Done:  E(RHF) =  -152.112279543     A.U. after   10 cycles
 E2 =    -0.5264132805D+00 EUMP2 =    -0.15263869282328D+03
 CCSD(T)
 CCSD(T)= -0.15266575748D+03

 The electronic state is 1-A'.
 Alpha  occ. eigenvalues --  -20.57350 -20.53682  -1.34600  -1.31041  -0.71982
 Alpha  occ. eigenvalues --   -0.68470  -0.58291  -0.54499  -0.51740  -0.48192
 Alpha virt. eigenvalues --    0.12211   0.16974   0.19173   0.26185   0.51575
 Alpha virt. eigenvalues --    0.55089   0.56397   0.58988   0.69053   0.72313
 Alpha virt. eigenvalues --    0.76284   0.77566   0.80725   0.83436   0.84250

 Mulliken charges:
               1
     1  O   -0.529249
     2  H    0.269492
     3  H    0.248607
     4  O   -0.508012
     5  H    0.262064
     6  H    0.257098
 Sum of Mulliken charges =  -0.00000

 Dipole moment (field-independent basis, Debye):
    X=             -1.6439    Y=             -3.3918    Z=              0.0000  Tot=              3.7692
 Quadrupole moment (field-independent basis, Debye-Ang):
   XX=             -9.1868   YY=             -7.8574   ZZ=            -14.7288
   XY=             -4.0402   XZ=              0.0000   YZ=             -0.0000

 Normal termination of Gaussian 16 at Sun Aug 28 03:38:11 2022.
