 Gaussian 16, Revision A.03,
 Gaussian 16:  ES64L-G16RevA.03 25-Dec-2016

 ------------------
 #p CCSD(T)/cc-pVTZ
 ------------------

 -----------
 H2O_H2O_954
 -----------
 Symbolic Z-matrix:
 Charge =  0 Multiplicity = 1

                         Standard orientation:
 ---------------------------------------------------------------------
 Center     Atomic      Atomic             Coordinates (Angstroms)
 Number     Number       Type             X           Y           Z
 ---------------------------------------------------------------------
      1          8           0        0.082822   -1.477589    0.000000
      2          1           0        0.082207   -0.494988    0.000000
      3          1           0       -0.846471   -1.796837    0.000000
      4          8           0        0.082822    1.323111    0.000000
      5          1           0        0.336545    2.272391    0.000000
      6          1           0       -0.897434    1.255259    0.000000
 ---------------------------------------------------------------------

 SCF Done:  E(RHF) =  -152.108772954     A.U. after   10 cycles
 E2 =    -0.5294467896D+00 EUMP2 =    -0.15263821974361D+03
 CCSD(T)
 CCSD(T)= -0.15266510118D+03

 The electronic state is 1-A'.
 Alpha  occ. eigenvalues --  -20.58855 -20.52565  -1.36502  -1.30183  -0.74355
 Alpha  occ. eigenvalues --   -0.68163  -0.59650  -0.53440  -0.53264  -0.47252
 Alpha virt. eigenvalues --    0.11507   0.16720   0.20133   0.31320   0.48325
 Alpha virt. eigenvalues --    0.53878   0.58532   0.60429   0.69112   0.72225
 Alpha virt. eigenvalues --    0.74438   0.77448   0.80750   0.82327   0.83628

 Mulliken charges:
               1
     1  O   -0.549154
     2  H    0.289349
     3  H    0.231171
     4  O   -0.448882
     5  H    0.237070
     6  H    0.240446
 Sum of Mulliken charges =  -0.00000

 Dipole moment (field-independent basis, Debye):
    X=             -2.7199    Y=              3.2817    Z=              0.0000  Tot=              4.2623
 Quadrupole moment (field-independent basis, Debye-Ang):
   XX=            -10.2942   YY=             -8.9445   ZZ=            -14.7005
   XY=              2.6455   XZ=              0.0000   YZ=              0.0000

 Normal termination of Gaussian 16 at Fri Aug 26 21:33:00 2022.
