 Gaussian 16, Revision A.03,
 Gaussian 16:  ES64L-G16RevA.03 25-Dec-2016

 ------------------
 #p CCSD(T)/cc-pVTZ
 ------------------

 ------------
 H2O_H2O_3459
 ------------
 Symbolic Z-matrix:
 Charge =  0 Multiplicity = 1

                         Standard orientation:
 ---------------------------------------------------------------------
 Center     Atomic      Atomic             Coordinates (Angstroms)
 Number     Number       Type             X           Y           Z
 ---------------------------------------------------------------------
      1          8           0        0.066756    2.484903   -0.000000
      2          1           0        0.065829    1.502302   -0.000000
      3          1           0       -0.862436    2.804446   -0.000000
      4          8           0        0.066756   -2.311791    0.000000
      5          1           0        0.611889   -3.129309    0.000000
      6          1           0       -0.883369   -2.562331    0.000000
 ---------------------------------------------------------------------

 SCF Done:  E(RHF) =  -152.108921766     A.U. after   10 cycles
 E2 =    -0.5258930185D+00 EUMP2 =    -0.15263481478419D+03
 CCSD(T)
 CCSD(T)= -0.15266198678D+03

 The electronic state is 1-A'.
 Alpha  occ. eigenvalues --  -20.56463 -20.54736  -1.33754  -1.32048  -0.71161
 Alpha  occ. eigenvalues --   -0.69439  -0.57260  -0.55522  -0.50875  -0.49174
 Alpha virt. eigenvalues --    0.12589   0.15498   0.19480   0.21872   0.53391
 Alpha virt. eigenvalues --    0.55097   0.56432   0.58105   0.67058   0.69294
 Alpha virt. eigenvalues --    0.78031   0.78790   0.79670   0.80025   0.82951

 Mulliken charges:
               1
     1  O   -0.514901
     2  H    0.262315
     3  H    0.251292
     4  O   -0.514052
     5  H    0.259940
     6  H    0.255406
 Sum of Mulliken charges =  -0.00000

 Dipole moment (field-independent basis, Debye):
    X=             -2.2807    Y=             -3.0827    Z=              0.0000  Tot=              3.8346
 Quadrupole moment (field-independent basis, Debye-Ang):
   XX=             -9.5630   YY=             -7.2057   ZZ=            -14.7166
   XY=             -4.0545   XZ=              0.0000   YZ=             -0.0000

 Normal termination of Gaussian 16 at Fri Aug 26 21:48:55 2022.
