 Gaussian 16, Revision A.03,
 Gaussian 16:  ES64L-G16RevA.03 25-Dec-2016

 ------------------
 #p CCSD(T)/cc-pVTZ
 ------------------

 ------------
 H2O_H2O_1151
 ------------
 Symbolic Z-matrix:
 Charge =  0 Multiplicity = 1

                         Standard orientation:
 ---------------------------------------------------------------------
 Center     Atomic      Atomic             Coordinates (Angstroms)
 Number     Number       Type             X           Y           Z
 ---------------------------------------------------------------------
      1          8           0        0.090688   -1.548792    0.000000
      2          1           0        0.090558   -0.566191    0.000000
      3          1           0       -0.838763   -1.867582    0.000000
      4          8           0        0.090688    1.410092    0.000000
      5          1           0        0.154824    2.390599    0.000000
      6          1           0       -0.857623    1.152775    0.000000
 ---------------------------------------------------------------------

 SCF Done:  E(RHF) =  -152.108181827     A.U. after   10 cycles
 E2 =    -0.5287969528D+00 EUMP2 =    -0.15263697877991D+03
 CCSD(T)
 CCSD(T)= -0.15266399223D+03

 The electronic state is 1-A'.
 Alpha  occ. eigenvalues --  -20.58412 -20.53726  -1.35934  -1.31184  -0.73955
 Alpha  occ. eigenvalues --   -0.68431  -0.59302  -0.54437  -0.52906  -0.48259
 Alpha virt. eigenvalues --    0.11491   0.16435   0.20511   0.29817   0.48680
 Alpha virt. eigenvalues --    0.53596   0.58067   0.59672   0.68157   0.72299
 Alpha virt. eigenvalues --    0.74167   0.77983   0.80748   0.81467   0.83229

 Mulliken charges:
               1
     1  O   -0.530938
     2  H    0.280232
     3  H    0.234133
     4  O   -0.459107
     5  H    0.239231
     6  H    0.236449
 Sum of Mulliken charges =  -0.00000

 Dipole moment (field-independent basis, Debye):
    X=             -3.0004    Y=              2.8406    Z=              0.0000  Tot=              4.1317
 Quadrupole moment (field-independent basis, Debye-Ang):
   XX=            -10.7578   YY=             -9.0736   ZZ=            -14.7016
   XY=              2.2577   XZ=              0.0000   YZ=              0.0000

 Normal termination of Gaussian 16 at Fri Aug 26 22:46:03 2022.
