 Gaussian 16, Revision A.03,
 Gaussian 16:  ES64L-G16RevA.03 25-Dec-2016

 ------------------
 #p CCSD(T)/cc-pVTZ
 ------------------

 -----------
 H2O_H2O_178
 -----------
 Symbolic Z-matrix:
 Charge =  0 Multiplicity = 1

                         Standard orientation:
 ---------------------------------------------------------------------
 Center     Atomic      Atomic             Coordinates (Angstroms)
 Number     Number       Type             X           Y           Z
 ---------------------------------------------------------------------
      1          8           0        0.085623   -1.165780    0.000000
      2          1           0        0.085052   -0.183179    0.000000
      3          1           0       -0.843684   -1.484987    0.000000
      4          8           0        0.085623    1.016235    0.000000
      5          1           0        0.276759    1.980067    0.000000
      6          1           0       -0.888102    0.884459    0.000000
 ---------------------------------------------------------------------

 SCF Done:  E(RHF) =  -152.055206933     A.U. after   11 cycles
 E2 =    -0.5369676720D+00 EUMP2 =    -0.15259217460465D+03
 CCSD(T)
 CCSD(T)= -0.15261800198D+03

 The electronic state is 1-A'.
 Alpha  occ. eigenvalues --  -20.61291 -20.47757  -1.42362  -1.26878  -0.81487
 Alpha  occ. eigenvalues --   -0.70987  -0.57337  -0.56986  -0.48403  -0.43680
 Alpha virt. eigenvalues --    0.10733   0.16037   0.21439   0.32090   0.49369
 Alpha virt. eigenvalues --    0.51340   0.59819   0.65786   0.71380   0.72664
 Alpha virt. eigenvalues --    0.75937   0.77894   0.80079   0.84610   0.86124

 Mulliken charges:
               1
     1  O   -0.604530
     2  H    0.271739
     3  H    0.196146
     4  O   -0.326966
     5  H    0.227820
     6  H    0.235790
 Sum of Mulliken charges =  -0.00000

 Dipole moment (field-independent basis, Debye):
    X=             -2.6643    Y=              4.1041    Z=              0.0000  Tot=              4.8931
 Quadrupole moment (field-independent basis, Debye-Ang):
   XX=            -10.3774   YY=             -9.8028   ZZ=            -14.5568
   XY=              2.2935   XZ=              0.0000   YZ=              0.0000

 Normal termination of Gaussian 16 at Fri Aug 26 16:24:21 2022.
