 Gaussian 16, Revision A.03,
 Gaussian 16:  ES64L-G16RevA.03 25-Dec-2016

 ------------------
 #p CCSD(T)/cc-pVTZ
 ------------------

 -----------
 H2O_H2O_537
 -----------
 Symbolic Z-matrix:
 Charge =  0 Multiplicity = 1

                         Standard orientation:
 ---------------------------------------------------------------------
 Center     Atomic      Atomic             Coordinates (Angstroms)
 Number     Number       Type             X           Y           Z
 ---------------------------------------------------------------------
      1          8           0        0.056095    1.321273    0.000000
      2          1           0        0.053549    0.338675    0.000000
      3          1           0       -0.872569    1.642347    0.000000
      4          8           0        0.056095   -1.142497   -0.000000
      5          1           0        0.749097   -1.839099   -0.000000
      6          1           0       -0.827603   -1.572128   -0.000000
 ---------------------------------------------------------------------

 SCF Done:  E(RHF) =  -152.101657658     A.U. after   11 cycles
 E2 =    -0.5315535045D+00 EUMP2 =    -0.15263321116239D+03
 CCSD(T)
 CCSD(T)= -0.15265962671D+03

 The electronic state is 1-A'.
 Alpha  occ. eigenvalues --  -20.60123 -20.49110  -1.38491  -1.27501  -0.75257
 Alpha  occ. eigenvalues --   -0.70848  -0.58612  -0.55163  -0.49704  -0.44454
 Alpha virt. eigenvalues --    0.11260   0.17382   0.19910   0.33376   0.47696
 Alpha virt. eigenvalues --    0.53635   0.61434   0.62097   0.70983   0.72267
 Alpha virt. eigenvalues --    0.73600   0.78553   0.80996   0.82859   0.84147

 Mulliken charges:
               1
     1  O   -0.607108
     2  H    0.313022
     3  H    0.224712
     4  O   -0.436494
     5  H    0.256303
     6  H    0.249566
 Sum of Mulliken charges =  -0.00000

 Dipole moment (field-independent basis, Debye):
    X=             -1.7937    Y=             -4.2262    Z=             -0.0000  Tot=              4.5911
 Quadrupole moment (field-independent basis, Debye-Ang):
   XX=             -9.2773   YY=             -9.3693   ZZ=            -14.6769
   XY=             -3.0149   XZ=             -0.0000   YZ=              0.0000

 Normal termination of Gaussian 16 at Fri Aug 26 18:54:45 2022.
