 Gaussian 16, Revision A.03,
 Gaussian 16:  ES64L-G16RevA.03 25-Dec-2016

 ------------------
 #p CCSD(T)/cc-pVTZ
 ------------------

 -----------
 H2O_H2O_451
 -----------
 Symbolic Z-matrix:
 Charge =  0 Multiplicity = 1

                         Standard orientation:
 ---------------------------------------------------------------------
 Center     Atomic      Atomic             Coordinates (Angstroms)
 Number     Number       Type             X           Y           Z
 ---------------------------------------------------------------------
      1          8           0        0.090690   -1.269576    0.000000
      2          1           0        0.090530   -0.286974    0.000000
      3          1           0       -0.838751   -1.588393    0.000000
      4          8           0        0.090690    1.130881    0.000000
      5          1           0        0.154797    2.111390    0.000000
      6          1           0       -0.857612    0.873534    0.000000
 ---------------------------------------------------------------------

 SCF Done:  E(RHF) =  -152.085364453     A.U. after   11 cycles
 E2 =    -0.5340259748D+00 EUMP2 =    -0.15261939042767D+03
 CCSD(T)
 CCSD(T)= -0.15264580446D+03

 The electronic state is 1-A'.
 Alpha  occ. eigenvalues --  -20.60174 -20.50807  -1.39361  -1.29016  -0.78650
 Alpha  occ. eigenvalues --   -0.68281  -0.59281  -0.55401  -0.51559  -0.45962
 Alpha virt. eigenvalues --    0.11168   0.16322   0.21128   0.32329   0.48732
 Alpha virt. eigenvalues --    0.51680   0.59146   0.65568   0.71319   0.71587
 Alpha virt. eigenvalues --    0.74101   0.77197   0.78851   0.82671   0.84073

 Mulliken charges:
               1
     1  O   -0.568194
     2  H    0.282361
     3  H    0.211023
     4  O   -0.383487
     5  H    0.229095
     6  H    0.229202
 Sum of Mulliken charges =  -0.00000

 Dipole moment (field-independent basis, Debye):
    X=             -2.9027    Y=              3.4346    Z=              0.0000  Tot=              4.4969
 Quadrupole moment (field-independent basis, Debye-Ang):
   XX=            -10.7255   YY=             -9.4971   ZZ=            -14.6204
   XY=              2.1404   XZ=              0.0000   YZ=              0.0000

 Normal termination of Gaussian 16 at Fri Aug 26 18:21:16 2022.
