 Gaussian 16, Revision A.03,
 Gaussian 16:  ES64L-G16RevA.03 25-Dec-2016

 ------------------
 #p CCSD(T)/cc-pVTZ
 ------------------

 ----------
 H2O_H2O_75
 ----------
 Symbolic Z-matrix:
 Charge =  0 Multiplicity = 1

                         Standard orientation:
 ---------------------------------------------------------------------
 Center     Atomic      Atomic             Coordinates (Angstroms)
 Number     Number       Type             X           Y           Z
 ---------------------------------------------------------------------
      1          8           0        0.092949   -1.116788    0.000000
      2          1           0        0.092949   -0.134186    0.000000
      3          1           0       -0.836544   -1.435454    0.000000
      4          8           0        0.092949    0.984001    0.000000
      5          1           0        0.092949    1.966602    0.000000
      6          1           0       -0.836544    0.665333    0.000000
 ---------------------------------------------------------------------

 SCF Done:  E(RHF) =  -152.021730614     A.U. after   11 cycles
 E2 =    -0.5396875629D+00 EUMP2 =    -0.15256141817676D+03
 CCSD(T)
 CCSD(T)= -0.15258696962D+03

 The electronic state is 1-A'.
 Alpha  occ. eigenvalues --  -20.61485 -20.47590  -1.44564  -1.26942  -0.84377
 Alpha  occ. eigenvalues --   -0.70172  -0.58117  -0.56788  -0.48270  -0.43763
 Alpha virt. eigenvalues --    0.10753   0.15803   0.21997   0.31401   0.48950
 Alpha virt. eigenvalues --    0.50601   0.59782   0.67887   0.70840   0.72577
 Alpha virt. eigenvalues --    0.74714   0.78655   0.79484   0.85355   0.85544

 Mulliken charges:
               1
     1  O   -0.594724
     2  H    0.252191
     3  H    0.183868
     4  O   -0.306665
     5  H    0.225931
     6  H    0.239399
 Sum of Mulliken charges =  -0.00000

 Dipole moment (field-independent basis, Debye):
    X=             -2.8914    Y=              3.9122    Z=              0.0000  Tot=              4.8647
 Quadrupole moment (field-independent basis, Debye-Ang):
   XX=            -10.7820   YY=            -10.0253   ZZ=            -14.4991
   XY=              1.8861   XZ=              0.0000   YZ=              0.0000

 Normal termination of Gaussian 16 at Fri Aug 26 15:41:32 2022.
