 Gaussian 16, Revision A.03,
 Gaussian 16:  ES64L-G16RevA.03 25-Dec-2016

 ------------------
 #p CCSD(T)/cc-pVTZ
 ------------------

 ------------
 H2O_H2O_2748
 ------------
 Symbolic Z-matrix:
 Charge =  0 Multiplicity = 1

                         Standard orientation:
 ---------------------------------------------------------------------
 Center     Atomic      Atomic             Coordinates (Angstroms)
 Number     Number       Type             X           Y           Z
 ---------------------------------------------------------------------
      1          8           0       -0.016644    2.190442    0.000000
      2          1           0       -0.013573    1.207845    0.000000
      3          1           0        0.911849    2.512012    0.000000
      4          8           0       -0.016644   -2.027059    0.000000
      5          1           0       -0.996936   -2.094388    0.000000
      6          1           0        0.364964   -2.932532    0.000000
 ---------------------------------------------------------------------

 SCF Done:  E(RHF) =  -152.110219859     A.U. after   10 cycles
 E2 =    -0.5259870747D+00 EUMP2 =    -0.15263620693371D+03
 CCSD(T)
 CCSD(T)= -0.15266333818D+03

 The electronic state is 1-A'.
 Alpha  occ. eigenvalues --  -20.56754 -20.54507  -1.34036  -1.31830  -0.71445
 Alpha  occ. eigenvalues --   -0.69238  -0.57594  -0.55321  -0.51165  -0.48971
 Alpha virt. eigenvalues --    0.12237   0.16134   0.19263   0.23679   0.53856
 Alpha virt. eigenvalues --    0.55575   0.56315   0.58431   0.68691   0.69709
 Alpha virt. eigenvalues --    0.77659   0.79039   0.79874   0.80589   0.83335

 Mulliken charges:
               1
     1  O   -0.522091
     2  H    0.263920
     3  H    0.254473
     4  O   -0.513832
     5  H    0.258985
     6  H    0.258544
 Sum of Mulliken charges =  -0.00000

 Dipole moment (field-independent basis, Debye):
    X=              0.5715    Y=             -2.9612    Z=              0.0000  Tot=              3.0158
 Quadrupole moment (field-independent basis, Debye-Ang):
   XX=             -9.5433   YY=             -7.9204   ZZ=            -14.7206
   XY=              5.7474   XZ=              0.0000   YZ=              0.0000

 Normal termination of Gaussian 16 at Fri Aug 26 17:00:44 2022.
