 Gaussian 16, Revision A.03,
 Gaussian 16:  ES64L-G16RevA.03 25-Dec-2016

 ------------------
 #p CCSD(T)/cc-pVTZ
 ------------------

 ------------
 H2O_H2O_2571
 ------------
 Symbolic Z-matrix:
 Charge =  0 Multiplicity = 1

                         Standard orientation:
 ---------------------------------------------------------------------
 Center     Atomic      Atomic             Coordinates (Angstroms)
 Number     Number       Type             X           Y           Z
 ---------------------------------------------------------------------
      1          8           0       -0.023234    2.124434    0.000000
      2          1           0       -0.020332    1.141837    0.000000
      3          1           0        0.905313    2.445845    0.000000
      4          8           0       -0.023234   -1.954061    0.000000
      5          1           0       -0.986384   -2.148603    0.000000
      6          1           0        0.473151   -2.802063    0.000000
 ---------------------------------------------------------------------

 SCF Done:  E(RHF) =  -152.110732375     A.U. after   10 cycles
 E2 =    -0.5260464430D+00 EUMP2 =    -0.15263677881812D+03
 CCSD(T)
 CCSD(T)= -0.15266389329D+03

 The electronic state is 1-A'.
 Alpha  occ. eigenvalues --  -20.56872 -20.54300  -1.34145  -1.31629  -0.71548
 Alpha  occ. eigenvalues --   -0.69035  -0.57729  -0.55120  -0.51278  -0.48774
 Alpha virt. eigenvalues --    0.12295   0.16350   0.19284   0.24061   0.53462
 Alpha virt. eigenvalues --    0.55536   0.56356   0.58593   0.68915   0.70371
 Alpha virt. eigenvalues --    0.77465   0.79092   0.80074   0.80812   0.83550

 Mulliken charges:
               1
     1  O   -0.523924
     2  H    0.265364
     3  H    0.253435
     4  O   -0.512766
     5  H    0.259883
     6  H    0.258007
 Sum of Mulliken charges =  -0.00000

 Dipole moment (field-independent basis, Debye):
    X=              0.7932    Y=             -3.1111    Z=              0.0000  Tot=              3.2106
 Quadrupole moment (field-independent basis, Debye-Ang):
   XX=             -9.3615   YY=             -7.7658   ZZ=            -14.7224
   XY=              5.2701   XZ=              0.0000   YZ=              0.0000

 CCSD(T)=-152.6638933\RMSD=6.651e-09\PG=CS [SG(H4O2)]\\@
 Normal termination of Gaussian 16 at Fri Aug 26 15:41:43 2022.
