 Gaussian 16, Revision A.03,
 Gaussian 16:  ES64L-G16RevA.03 25-Dec-2016

 ------------------
 #p CCSD(T)/cc-pVTZ
 ------------------

 ------------
 H2O_H2O_4668
 ------------
 Symbolic Z-matrix:
 Charge =  0 Multiplicity = 1

                         Standard orientation:
 ---------------------------------------------------------------------
 Center     Atomic      Atomic             Coordinates (Angstroms)
 Number     Number       Type             X           Y           Z
 ---------------------------------------------------------------------
      1          8           0        0.033748    2.965972   -0.000000
      2          1           0        0.032002    1.983372   -0.000000
      3          1           0       -0.895178    3.286289   -0.000000
      4          8           0        0.033748   -2.788417    0.000000
      5          1           0        0.940884   -3.166053    0.000000
      6          1           0       -0.617671   -3.524051    0.000000
 ---------------------------------------------------------------------

 SCF Done:  E(RHF) =  -152.108398427     A.U. after   10 cycles
 E2 =    -0.5258005486D+00 EUMP2 =    -0.15263419897607D+03
 CCSD(T)
 CCSD(T)= -0.15266139766D+03

 The electronic state is 1-A'.
 Alpha  occ. eigenvalues --  -20.56153 -20.54991  -1.33456  -1.32298  -0.70860
 Alpha  occ. eigenvalues --   -0.69702  -0.56948  -0.55770  -0.50574  -0.49422
 Alpha virt. eigenvalues --    0.13432   0.14869   0.19695   0.21002   0.53660
 Alpha virt. eigenvalues --    0.54841   0.56693   0.57788   0.66922   0.68641
 Alpha virt. eigenvalues --    0.78310   0.79436   0.79663   0.80381   0.82500

 Mulliken charges:
               1
     1  O   -0.513999
     2  H    0.259964
     3  H    0.253955
     4  O   -0.514615
     5  H    0.257673
     6  H    0.257021
 Sum of Mulliken charges =  -0.00000

 Dipole moment (field-independent basis, Debye):
    X=             -1.1583    Y=             -3.1121    Z=              0.0000  Tot=              3.3207
 Quadrupole moment (field-independent basis, Debye-Ang):
   XX=             -9.1870   YY=             -6.2728   ZZ=            -14.7148
   XY=             -6.5847   XZ=              0.0000   YZ=             -0.0000

 Normal termination of Gaussian 16 at Sun Aug 28 04:47:35 2022.
