 Gaussian 16, Revision A.03,
 Gaussian 16:  ES64L-G16RevA.03 25-Dec-2016

 ------------------
 #p CCSD(T)/cc-pVTZ
 ------------------

 ------------
 H2O_H2O_4179
 ------------
 Symbolic Z-matrix:
 Charge =  0 Multiplicity = 1

                         Standard orientation:
 ---------------------------------------------------------------------
 Center     Atomic      Atomic             Coordinates (Angstroms)
 Number     Number       Type             X           Y           Z
 ---------------------------------------------------------------------
      1          8           0        0.082799    2.763993   -0.000000
      2          1           0        0.082478    1.781392   -0.000000
      3          1           0       -0.846590    3.082963   -0.000000
      4          8           0        0.082799   -2.609465    0.000000
      5          1           0        0.336805   -3.558668    0.000000
      6          1           0       -0.897478   -2.541908    0.000000
 ---------------------------------------------------------------------

 SCF Done:  E(RHF) =  -152.108022114     A.U. after   10 cycles
 E2 =    -0.5258643942D+00 EUMP2 =    -0.15263388650810D+03
 CCSD(T)
 CCSD(T)= -0.15266108980D+03

 The electronic state is 1-A'.
 Alpha  occ. eigenvalues --  -20.56265 -20.55119  -1.33566  -1.32424  -0.70979
 Alpha  occ. eigenvalues --   -0.69819  -0.57040  -0.55883  -0.50680  -0.49540
 Alpha virt. eigenvalues --    0.12797   0.14956   0.19223   0.21518   0.53235
 Alpha virt. eigenvalues --    0.54956   0.56540   0.57817   0.66757   0.68778
 Alpha virt. eigenvalues --    0.78214   0.79241   0.79324   0.80956   0.82479

 Mulliken charges:
               1
     1  O   -0.511288
     2  H    0.259212
     3  H    0.251867
     4  O   -0.512329
     5  H    0.258941
     6  H    0.253597
 Sum of Mulliken charges =   0.00000

 Dipole moment (field-independent basis, Debye):
    X=             -2.8365    Y=             -2.7203    Z=              0.0000  Tot=              3.9301
 Quadrupole moment (field-independent basis, Debye-Ang):
   XX=            -10.2455   YY=             -7.8886   ZZ=            -14.7132
   XY=             -3.1537   XZ=              0.0000   YZ=             -0.0000

 Normal termination of Gaussian 16 at Sun Aug 28 00:27:48 2022.
