 Gaussian 16, Revision A.03,
 Gaussian 16:  ES64L-G16RevA.03 25-Dec-2016

 ------------------
 #p CCSD(T)/cc-pVTZ
 ------------------

 ------------
 H2O_H2O_4999
 ------------
 Symbolic Z-matrix:
 Charge =  0 Multiplicity = 1

                         Standard orientation:
 ---------------------------------------------------------------------
 Center     Atomic      Atomic             Coordinates (Angstroms)
 Number     Number       Type             X           Y           Z
 ---------------------------------------------------------------------
      1          8           0       -0.013460    3.085684    0.000000
      2          1           0       -0.011218    2.103085    0.000000
      3          1           0        0.915304    3.406471    0.000000
      4          8           0       -0.013460   -2.926403    0.000000
      5          1           0       -0.996059   -2.928645    0.000000
      6          1           0        0.307328   -3.855167    0.000000
 ---------------------------------------------------------------------

 SCF Done:  E(RHF) =  -152.108214517     A.U. after   10 cycles
 E2 =    -0.5258022164D+00 EUMP2 =    -0.15263401673293D+03
 CCSD(T)
 CCSD(T)= -0.15266122095D+03

 The electronic state is 1-A'.
 Alpha  occ. eigenvalues --  -20.56104 -20.55171  -1.33408  -1.32477  -0.70814
 Alpha  occ. eigenvalues --   -0.69884  -0.56890  -0.55946  -0.50525  -0.49598
 Alpha virt. eigenvalues --    0.13459   0.14682   0.19519   0.21001   0.53616
 Alpha virt. eigenvalues --    0.54752   0.56722   0.57678   0.67096   0.68365
 Alpha virt. eigenvalues --    0.78357   0.79265   0.79755   0.80754   0.81852

 Mulliken charges:
               1
     1  O   -0.513327
     2  H    0.258340
     3  H    0.254964
     4  O   -0.513723
     5  H    0.256382
     6  H    0.257364
 Sum of Mulliken charges =  -0.00000

 Dipole moment (field-independent basis, Debye):
    X=              0.4636    Y=             -2.7842    Z=              0.0000  Tot=              2.8226
 Quadrupole moment (field-independent basis, Debye-Ang):
   XX=             -9.6492   YY=             -7.2920   ZZ=            -14.7141
   XY=              8.3671   XZ=              0.0000   YZ=              0.0000

 Normal termination of Gaussian 16 at Sun Aug 28 07:33:59 2022.
