 Gaussian 16, Revision A.03,
 Gaussian 16:  ES64L-G16RevA.03 25-Dec-2016

 ------------------
 #p CCSD(T)/cc-pVTZ
 ------------------

 ------------
 H2O_H2O_2359
 ------------
 Symbolic Z-matrix:
 Charge =  0 Multiplicity = 1

                         Standard orientation:
 ---------------------------------------------------------------------
 Center     Atomic      Atomic             Coordinates (Angstroms)
 Number     Number       Type             X           Y           Z
 ---------------------------------------------------------------------
      1          8           0        0.066774    2.046124   -0.000000
      2          1           0        0.065639    1.063523   -0.000000
      3          1           0       -0.862351    2.365863   -0.000000
      4          8           0        0.066774   -1.873040    0.000000
      5          1           0        0.611735   -2.690674    0.000000
      6          1           0       -0.883403   -2.123381    0.000000
 ---------------------------------------------------------------------

 SCF Done:  E(RHF) =  -152.110685733     A.U. after   10 cycles
 E2 =    -0.5262260020D+00 EUMP2 =    -0.15263691173463D+03
 CCSD(T)
 CCSD(T)= -0.15266401731D+03

 The electronic state is 1-A'.
 Alpha  occ. eigenvalues --  -20.57049 -20.54181  -1.34312  -1.31512  -0.71720
 Alpha  occ. eigenvalues --   -0.68898  -0.57896  -0.54982  -0.51442  -0.48650
 Alpha virt. eigenvalues --    0.12130   0.16419   0.19376   0.24510   0.52699
 Alpha virt. eigenvalues --    0.55792   0.55969   0.58745   0.68871   0.71246
 Alpha virt. eigenvalues --    0.77136   0.78691   0.80228   0.81903   0.83547

 Mulliken charges:
               1
     1  O   -0.521493
     2  H    0.266641
     3  H    0.248084
     4  O   -0.508168
     5  H    0.260173
     6  H    0.254763
 Sum of Mulliken charges =   0.00000

 Dipole moment (field-independent basis, Debye):
    X=             -2.2650    Y=             -3.1907    Z=              0.0000  Tot=              3.9129
 Quadrupole moment (field-independent basis, Debye-Ang):
   XX=             -9.5713   YY=             -7.8069   ZZ=            -14.7222
   XY=             -3.6536   XZ=              0.0000   YZ=             -0.0000

 Normal termination of Gaussian 16 at Sun Aug 28 06:39:52 2022.
