 Gaussian 16, Revision A.03,
 Gaussian 16:  ES64L-G16RevA.03 25-Dec-2016

 ------------------
 #p CCSD(T)/cc-pVTZ
 ------------------

 ------------
 H2O_H2O_1305
 ------------
 Symbolic Z-matrix:
 Charge =  0 Multiplicity = 1

                         Standard orientation:
 ---------------------------------------------------------------------
 Center     Atomic      Atomic             Coordinates (Angstroms)
 Number     Number       Type             X           Y           Z
 ---------------------------------------------------------------------
      1          8           0        0.079871   -1.619665    0.000000
      2          1           0        0.079149   -0.637064    0.000000
      3          1           0       -0.849388   -1.939015    0.000000
      4          8           0        0.079871    1.460642    0.000000
      5          1           0        0.395034    2.391328    0.000000
      6          1           0       -0.902724    1.456941    0.000000
 ---------------------------------------------------------------------

 SCF Done:  E(RHF) =  -152.111406145     A.U. after   10 cycles
 E2 =    -0.5279005128D+00 EUMP2 =    -0.15263930665740D+03
 CCSD(T)
 CCSD(T)= -0.15266630569D+03

 The electronic state is 1-A'.
 Alpha  occ. eigenvalues --  -20.58201 -20.53306  -1.35585  -1.30756  -0.73155
 Alpha  occ. eigenvalues --   -0.68319  -0.59189  -0.54037  -0.52651  -0.47868
 Alpha virt. eigenvalues --    0.11679   0.16788   0.19805   0.29448   0.49060
 Alpha virt. eigenvalues --    0.54817   0.58084   0.58460   0.69355   0.73376
 Alpha virt. eigenvalues --    0.74621   0.76892   0.81423   0.82186   0.83918

 Mulliken charges:
               1
     1  O   -0.536300
     2  H    0.280675
     3  H    0.238205
     4  O   -0.479714
     5  H    0.248231
     6  H    0.248902
 Sum of Mulliken charges =  -0.00000

 Dipole moment (field-independent basis, Debye):
    X=             -2.6573    Y=              3.1823    Z=              0.0000  Tot=              4.1459
 Quadrupole moment (field-independent basis, Debye-Ang):
   XX=            -10.1370   YY=             -8.6705   ZZ=            -14.7197
   XY=              2.8468   XZ=              0.0000   YZ=              0.0000

 Normal termination of Gaussian 16 at Fri Aug 26 23:43:49 2022.
