 Gaussian 16, Revision A.03,
 Gaussian 16:  ES64L-G16RevA.03 25-Dec-2016

 ------------------
 #p CCSD(T)/cc-pVTZ
 ------------------

 ------------
 H2O_H2O_1767
 ------------
 Symbolic Z-matrix:
 Charge =  0 Multiplicity = 1

                         Standard orientation:
 ---------------------------------------------------------------------
 Center     Atomic      Atomic             Coordinates (Angstroms)
 Number     Number       Type             X           Y           Z
 ---------------------------------------------------------------------
      1          8           0        0.037506    1.809972    0.000000
      2          1           0        0.034768    0.827374    0.000000
      3          1           0       -0.891095    2.131227    0.000000
      4          8           0        0.037506   -1.631058   -0.000000
      5          1           0        0.917561   -2.068105   -0.000000
      6          1           0       -0.661329   -2.321807   -0.000000
 ---------------------------------------------------------------------

 SCF Done:  E(RHF) =  -152.113205078     A.U. after   10 cycles
 E2 =    -0.5266625576D+00 EUMP2 =    -0.15263986763538D+03
 CCSD(T)
 CCSD(T)= -0.15266690345D+03

 The electronic state is 1-A'.
 Alpha  occ. eigenvalues --  -20.57602 -20.53372  -1.34860  -1.30763  -0.72231
 Alpha  occ. eigenvalues --   -0.68258  -0.58629  -0.54184  -0.52000  -0.47919
 Alpha virt. eigenvalues --    0.12187   0.17335   0.19050   0.27500   0.51135
 Alpha virt. eigenvalues --    0.54546   0.56263   0.59284   0.69054   0.72448
 Alpha virt. eigenvalues --    0.75393   0.77166   0.81065   0.83274   0.84606

 Mulliken charges:
               1
     1  O   -0.535584
     2  H    0.272059
     3  H    0.249282
     4  O   -0.507999
     5  H    0.263461
     6  H    0.258782
 Sum of Mulliken charges =  -0.00000

 Dipole moment (field-independent basis, Debye):
    X=             -1.2652    Y=             -3.4246    Z=             -0.0000  Tot=              3.6508
 Quadrupole moment (field-independent basis, Debye-Ang):
   XX=             -9.1613   YY=             -8.0695   ZZ=            -14.7328
   XY=             -4.1278   XZ=             -0.0000   YZ=             -0.0000

 Normal termination of Gaussian 16 at Sun Aug 28 01:25:09 2022.
