 Gaussian 16, Revision A.03,
 Gaussian 16:  ES64L-G16RevA.03 25-Dec-2016

 ------------------
 #p CCSD(T)/cc-pVTZ
 ------------------

 ------------
 H2O_H2O_3850
 ------------
 Symbolic Z-matrix:
 Charge =  0 Multiplicity = 1

                         Standard orientation:
 ---------------------------------------------------------------------
 Center     Atomic      Atomic             Coordinates (Angstroms)
 Number     Number       Type             X           Y           Z
 ---------------------------------------------------------------------
      1          8           0        0.092949   -2.622549    0.000000
      2          1           0        0.092949   -1.639948    0.000000
      3          1           0       -0.836544   -2.941216    0.000000
      4          8           0        0.092949    2.489762    0.000000
      5          1           0        0.092950    3.472364    0.000000
      6          1           0       -0.836544    2.171096    0.000000
 ---------------------------------------------------------------------

 SCF Done:  E(RHF) =  -152.107723930     A.U. after   10 cycles
 E2 =    -0.5259210037D+00 EUMP2 =    -0.15263364493347D+03
 CCSD(T)
 CCSD(T)= -0.15266085274D+03

 The electronic state is 1-A'.
 Alpha  occ. eigenvalues --  -20.56355 -20.55286  -1.33655  -1.32587  -0.71075
 Alpha  occ. eigenvalues --   -0.69979  -0.57116  -0.56038  -0.50764  -0.49699
 Alpha virt. eigenvalues --    0.12053   0.15076   0.18862   0.22430   0.53166
 Alpha virt. eigenvalues --    0.54926   0.56485   0.57856   0.66796   0.68734
 Alpha virt. eigenvalues --    0.78137   0.79083   0.79174   0.81459   0.82319

 Mulliken charges:
               1
     1  O   -0.509490
     2  H    0.257939
     3  H    0.251272
     4  O   -0.510392
     5  H    0.259134
     6  H    0.251536
 Sum of Mulliken charges =  -0.00000

 Dipole moment (field-independent basis, Debye):
    X=             -3.1803    Y=              2.3452    Z=              0.0000  Tot=              3.9515
 Quadrupole moment (field-independent basis, Debye-Ang):
   XX=            -10.8488   YY=             -9.2626   ZZ=            -14.7119
   XY=              2.1539   XZ=              0.0000   YZ=              0.0000

 CCSD(T)=-152.6608527\RMSD=3.964e-09\PG=CS [SG(H4O2)]\\@
 Normal termination of Gaussian 16 at Sat Aug 27 00:04:46 2022.
