 Gaussian 16, Revision A.03,
 Gaussian 16:  ES64L-G16RevA.03 25-Dec-2016

 ------------------
 #p CCSD(T)/cc-pVTZ
 ------------------

 -----------
 H2O_H2O_481
 -----------
 Symbolic Z-matrix:
 Charge =  0 Multiplicity = 1

                         Standard orientation:
 ---------------------------------------------------------------------
 Center     Atomic      Atomic             Coordinates (Angstroms)
 Number     Number       Type             X           Y           Z
 ---------------------------------------------------------------------
      1          8           0        0.076802   -1.292822    0.000000
      2          1           0        0.075668   -0.310221    0.000000
      3          1           0       -0.852323   -1.612561    0.000000
      4          8           0        0.076802    1.129696    0.000000
      5          1           0        0.451780    2.037935    0.000000
      6          1           0       -0.903956    1.189856    0.000000
 ---------------------------------------------------------------------

 SCF Done:  E(RHF) =  -152.094985471     A.U. after   11 cycles
 E2 =    -0.5327345179D+00 EUMP2 =    -0.15262771998935D+03
 CCSD(T)
 CCSD(T)= -0.15265410592D+03

 The electronic state is 1-A'.
 Alpha  occ. eigenvalues --  -20.60220 -20.49692  -1.38928  -1.28034  -0.76846
 Alpha  occ. eigenvalues --   -0.69892  -0.58706  -0.55358  -0.50336  -0.44972
 Alpha virt. eigenvalues --    0.11127   0.16685   0.20479   0.32911   0.48521
 Alpha virt. eigenvalues --    0.52966   0.59478   0.63839   0.72011   0.72053
 Alpha virt. eigenvalues --    0.74128   0.78742   0.78809   0.83865   0.84277

 Mulliken charges:
               1
     1  O   -0.591289
     2  H    0.297711
     3  H    0.216867
     4  O   -0.397166
     5  H    0.235597
     6  H    0.238280
 Sum of Mulliken charges =  -0.00000

 Dipole moment (field-independent basis, Debye):
    X=             -2.4475    Y=              3.9349    Z=              0.0000  Tot=              4.6340
 Quadrupole moment (field-independent basis, Debye-Ang):
   XX=             -9.9685   YY=             -9.3738   ZZ=            -14.6491
   XY=              2.6938   XZ=              0.0000   YZ=              0.0000

 Normal termination of Gaussian 16 at Fri Aug 26 18:33:28 2022.
