 Gaussian 16, Revision A.03,
 Gaussian 16:  ES64L-G16RevA.03 25-Dec-2016

 ------------------
 #p CCSD(T)/cc-pVTZ
 ------------------

 ------------
 H2O_H2O_4846
 ------------
 Symbolic Z-matrix:
 Charge =  0 Multiplicity = 1

                         Standard orientation:
 ---------------------------------------------------------------------
 Center     Atomic      Atomic             Coordinates (Angstroms)
 Number     Number       Type             X           Y           Z
 ---------------------------------------------------------------------
      1          8           0       -0.023157    3.031899    0.000000
      2          1           0       -0.021148    2.049299    0.000000
      3          1           0        0.905683    3.352464    0.000000
      4          8           0       -0.023157   -2.861483    0.000000
      5          1           0       -0.986484   -3.055149    0.000000
      6          1           0        0.472457   -3.709936    0.000000
 ---------------------------------------------------------------------

 SCF Done:  E(RHF) =  -152.108315666     A.U. after   10 cycles
 E2 =    -0.5257994636D+00 EUMP2 =    -0.15263411512931D+03
 CCSD(T)
 CCSD(T)= -0.15266131651D+03

 The electronic state is 1-A'.
 Alpha  occ. eigenvalues --  -20.56125 -20.55072  -1.33428  -1.32379  -0.70833
 Alpha  occ. eigenvalues --   -0.69784  -0.56916  -0.55849  -0.50546  -0.49501
 Alpha virt. eigenvalues --    0.13465   0.14777   0.19638   0.20978   0.53641
 Alpha virt. eigenvalues --    0.54809   0.56713   0.57746   0.67019   0.68499
 Alpha virt. eigenvalues --    0.78337   0.79359   0.79693   0.80626   0.82153

 Mulliken charges:
               1
     1  O   -0.513732
     2  H    0.259207
     3  H    0.254482
     4  O   -0.514240
     5  H    0.257045
     6  H    0.257239
 Sum of Mulliken charges =   0.00000

 Dipole moment (field-independent basis, Debye):
    X=              0.7957    Y=             -2.9826    Z=              0.0000  Tot=              3.0869
 Quadrupole moment (field-independent basis, Debye-Ang):
   XX=             -9.3626   YY=             -6.6127   ZZ=            -14.7145
   XY=              7.4544   XZ=              0.0000   YZ=              0.0000

 07847\MP4DQ=-152.6432403\MP4SDQ=-152.6462872\CCSD=-152.645703\CCSD(T)=
 Normal termination of Gaussian 16 at Sun Aug 28 06:20:25 2022.
