 Gaussian 16, Revision A.03,
 Gaussian 16:  ES64L-G16RevA.03 25-Dec-2016

 ------------------
 #p CCSD(T)/cc-pVTZ
 ------------------

 -----------
 H2O_H2O_275
 -----------
 Symbolic Z-matrix:
 Charge =  0 Multiplicity = 1

                         Standard orientation:
 ---------------------------------------------------------------------
 Center     Atomic      Atomic             Coordinates (Angstroms)
 Number     Number       Type             X           Y           Z
 ---------------------------------------------------------------------
      1          8           0        0.092949   -1.196563    0.000000
      2          1           0        0.092949   -0.213962    0.000000
      3          1           0       -0.836544   -1.515229    0.000000
      4          8           0        0.092949    1.063776    0.000000
      5          1           0        0.092949    2.046377    0.000000
      6          1           0       -0.836544    0.745109    0.000000
 ---------------------------------------------------------------------

 SCF Done:  E(RHF) =  -152.062775244     A.U. after   11 cycles
 E2 =    -0.5366009522D+00 EUMP2 =    -0.15259937619596D+03
 CCSD(T)
 CCSD(T)= -0.15262544768D+03

 The electronic state is 1-A'.
 Alpha  occ. eigenvalues --  -20.60749 -20.49694  -1.41340  -1.28311  -0.81222
 Alpha  occ. eigenvalues --   -0.68628  -0.58538  -0.56485  -0.50468  -0.45209
 Alpha virt. eigenvalues --    0.11032   0.16127   0.21571   0.32035   0.48984
 Alpha virt. eigenvalues --    0.50968   0.59402   0.67118   0.71220   0.72627
 Alpha virt. eigenvalues --    0.75814   0.75966   0.79287   0.82614   0.84763

 Mulliken charges:
               1
     1  O   -0.574396
     2  H    0.268481
     3  H    0.199354
     4  O   -0.352318
     5  H    0.226803
     6  H    0.232076
 Sum of Mulliken charges =  -0.00000

 Dipole moment (field-independent basis, Debye):
    X=             -2.9435    Y=              3.5601    Z=              0.0000  Tot=              4.6193
 Quadrupole moment (field-independent basis, Debye-Ang):
   XX=            -10.8372   YY=             -9.7436   ZZ=            -14.5699
   XY=              1.9520   XZ=              0.0000   YZ=              0.0000

 Normal termination of Gaussian 16 at Fri Aug 26 17:06:07 2022.
