 Gaussian 16, Revision A.03,
 Gaussian 16:  ES64L-G16RevA.03 25-Dec-2016

 ------------------
 #p CCSD(T)/cc-pVTZ
 ------------------

 -----------
 H2O_H2O_872
 -----------
 Symbolic Z-matrix:
 Charge =  0 Multiplicity = 1

                         Standard orientation:
 ---------------------------------------------------------------------
 Center     Atomic      Atomic             Coordinates (Angstroms)
 Number     Number       Type             X           Y           Z
 ---------------------------------------------------------------------
      1          8           0       -0.020016    1.444535    0.000000
      2          1           0       -0.015458    0.461944    0.000000
      3          1           0        0.907989    1.767509    0.000000
      4          8           0       -0.020016   -1.277506    0.000000
      5          1           0       -0.993605   -1.410277    0.000000
      6          1           0        0.421325   -2.155414    0.000000
 ---------------------------------------------------------------------

 SCF Done:  E(RHF) =  -152.110896415     A.U. after   10 cycles
 E2 =    -0.5292873381D+00 EUMP2 =    -0.15264018375280D+03
 CCSD(T)
 CCSD(T)= -0.15266695412D+03

 The electronic state is 1-A'.
 Alpha  occ. eigenvalues --  -20.59046 -20.51340  -1.36768  -1.29150  -0.74328
 Alpha  occ. eigenvalues --   -0.68072  -0.59961  -0.53722  -0.51969  -0.46246
 Alpha virt. eigenvalues --    0.11873   0.18332   0.18912   0.32741   0.48470
 Alpha virt. eigenvalues --    0.54386   0.56659   0.64658   0.68261   0.72398
 Alpha virt. eigenvalues --    0.73747   0.76765   0.81077   0.83079   0.84196

 Mulliken charges:
               1
     1  O   -0.581775
     2  H    0.295042
     3  H    0.246904
     4  O   -0.462753
     5  H    0.261357
     6  H    0.241225
 Sum of Mulliken charges =  -0.00000

 Dipole moment (field-independent basis, Debye):
    X=              0.6680    Y=             -3.6315    Z=              0.0000  Tot=              3.6924
 Quadrupole moment (field-independent basis, Debye-Ang):
   XX=             -9.4288   YY=             -8.9534   ZZ=            -14.7095
   XY=              3.6778   XZ=              0.0000   YZ=              0.0000

 Normal termination of Gaussian 16 at Fri Aug 26 21:03:01 2022.
