 Gaussian 16, Revision A.03,
 Gaussian 16:  ES64L-G16RevA.03 25-Dec-2016

 ------------------
 #p CCSD(T)/cc-pVTZ
 ------------------

 ------------
 H2O_H2O_1117
 ------------
 Symbolic Z-matrix:
 Charge =  0 Multiplicity = 1

                         Standard orientation:
 ---------------------------------------------------------------------
 Center     Atomic      Atomic             Coordinates (Angstroms)
 Number     Number       Type             X           Y           Z
 ---------------------------------------------------------------------
      1          8           0        0.037550    1.550684    0.000000
      2          1           0        0.034326    0.568088    0.000000
      3          1           0       -0.890892    1.872399    0.000000
      4          8           0        0.037550   -1.371807   -0.000000
      5          1           0        0.917389   -1.809290   -0.000000
      6          1           0       -0.661627   -2.062211   -0.000000
 ---------------------------------------------------------------------

 SCF Done:  E(RHF) =  -152.114016996     A.U. after   10 cycles
 E2 =    -0.5281590136D+00 EUMP2 =    -0.15264217600995D+03
 CCSD(T)
 CCSD(T)= -0.15266906575D+03

 The electronic state is 1-A'.
 Alpha  occ. eigenvalues --  -20.58591 -20.51936  -1.36019  -1.29556  -0.73283
 Alpha  occ. eigenvalues --   -0.67939  -0.59673  -0.53103  -0.52660  -0.46685
 Alpha virt. eigenvalues --    0.11940   0.18243   0.18727   0.31387   0.48919
 Alpha virt. eigenvalues --    0.54709   0.56089   0.61420   0.68636   0.71930
 Alpha virt. eigenvalues --    0.72993   0.77319   0.82317   0.82590   0.84827

 Mulliken charges:
               1
     1  O   -0.562806
     2  H    0.291997
     3  H    0.244167
     4  O   -0.496743
     5  H    0.266292
     6  H    0.257093
 Sum of Mulliken charges =  -0.00000

 Dipole moment (field-independent basis, Debye):
    X=             -1.2468    Y=             -3.6971    Z=             -0.0000  Tot=              3.9017
 Quadrupole moment (field-independent basis, Debye-Ang):
   XX=             -9.1549   YY=             -8.6476   ZZ=            -14.7305
   XY=             -3.6118   XZ=             -0.0000   YZ=             -0.0000

 Normal termination of Gaussian 16 at Fri Aug 26 22:34:03 2022.
