 Gaussian 16, Revision A.03,
 Gaussian 16:  ES64L-G16RevA.03 25-Dec-2016

 ------------------
 #p CCSD(T)/cc-pVTZ
 ------------------

 ------------
 H2O_H2O_4635
 ------------
 Symbolic Z-matrix:
 Charge =  0 Multiplicity = 1

                         Standard orientation:
 ---------------------------------------------------------------------
 Center     Atomic      Atomic             Coordinates (Angstroms)
 Number     Number       Type             X           Y           Z
 ---------------------------------------------------------------------
      1          8           0        0.063215    2.954901   -0.000000
      2          1           0        0.062335    1.972300   -0.000000
      3          1           0       -0.865992    3.274399   -0.000000
      4          8           0        0.063215   -2.779363    0.000000
      5          1           0        0.660688   -3.559448    0.000000
      6          1           0       -0.868474   -3.091553    0.000000
 ---------------------------------------------------------------------

 SCF Done:  E(RHF) =  -152.108217721     A.U. after   10 cycles
 E2 =    -0.5258210955D+00 EUMP2 =    -0.15263403881624D+03
 CCSD(T)
 CCSD(T)= -0.15266124072D+03

 The electronic state is 1-A'.
 Alpha  occ. eigenvalues --  -20.56167 -20.55016  -1.33469  -1.32322  -0.70875
 Alpha  occ. eigenvalues --   -0.69722  -0.56953  -0.55788  -0.50586  -0.49443
 Alpha virt. eigenvalues --    0.13377   0.14837   0.19651   0.20992   0.53623
 Alpha virt. eigenvalues --    0.54835   0.56662   0.57766   0.66920   0.68644
 Alpha virt. eigenvalues --    0.78300   0.79417   0.79613   0.80421   0.82491

 Mulliken charges:
               1
     1  O   -0.512774
     2  H    0.259860
     3  H    0.252830
     4  O   -0.513625
     5  H    0.258294
     6  H    0.255415
 Sum of Mulliken charges =  -0.00000

 Dipole moment (field-independent basis, Debye):
    X=             -2.1685    Y=             -3.0780    Z=              0.0000  Tot=              3.7652
 Quadrupole moment (field-independent basis, Debye-Ang):
   XX=             -9.4536   YY=             -6.4219   ZZ=            -14.7141
   XY=             -4.7228   XZ=              0.0000   YZ=             -0.0000

 Normal termination of Gaussian 16 at Sun Aug 28 04:32:19 2022.
