 Gaussian 16, Revision A.03,
 Gaussian 16:  ES64L-G16RevA.03 25-Dec-2016

 ------------------
 #p CCSD(T)/cc-pVTZ
 ------------------

 ------------
 H2O_H2O_1429
 ------------
 Symbolic Z-matrix:
 Charge =  0 Multiplicity = 1

                         Standard orientation:
 ---------------------------------------------------------------------
 Center     Atomic      Atomic             Coordinates (Angstroms)
 Number     Number       Type             X           Y           Z
 ---------------------------------------------------------------------
      1          8           0        0.082816   -1.667062    0.000000
      2          1           0        0.082275   -0.684461    0.000000
      3          1           0       -0.846501   -1.986240    0.000000
      4          8           0        0.082816    1.512571    0.000000
      5          1           0        0.336610    2.461832    0.000000
      6          1           0       -0.897445    1.444793    0.000000
 ---------------------------------------------------------------------

 SCF Done:  E(RHF) =  -152.110996284     A.U. after   10 cycles
 E2 =    -0.5275997864D+00 EUMP2 =    -0.15263859607036D+03
 CCSD(T)
 CCSD(T)= -0.15266563128D+03

 The electronic state is 1-A'.
 Alpha  occ. eigenvalues --  -20.57998 -20.53685  -1.35350  -1.31089  -0.72932
 Alpha  occ. eigenvalues --   -0.68519  -0.58953  -0.54421  -0.52426  -0.48203
 Alpha virt. eigenvalues --    0.11666   0.16649   0.19902   0.28590   0.49517
 Alpha virt. eigenvalues --    0.54919   0.57814   0.58183   0.69044   0.73811
 Alpha virt. eigenvalues --    0.74686   0.77210   0.81081   0.82320   0.83761

 Mulliken charges:
               1
     1  O   -0.530391
     2  H    0.276649
     3  H    0.239520
     4  O   -0.484508
     5  H    0.250246
     6  H    0.248485
 Sum of Mulliken charges =  -0.00000

 Dipole moment (field-independent basis, Debye):
    X=             -2.7640    Y=              3.0421    Z=              0.0000  Tot=              4.1102
 Quadrupole moment (field-independent basis, Debye-Ang):
   XX=            -10.2890   YY=             -8.6824   ZZ=            -14.7195
   XY=              2.7415   XZ=              0.0000   YZ=              0.0000

 Normal termination of Gaussian 16 at Sat Aug 27 00:31:53 2022.
