 Gaussian 16, Revision A.03,
 Gaussian 16:  ES64L-G16RevA.03 25-Dec-2016

 ------------------
 #p CCSD(T)/cc-pVTZ
 ------------------

 ------------
 H2O_H2O_3010
 ------------
 Symbolic Z-matrix:
 Charge =  0 Multiplicity = 1

                         Standard orientation:
 ---------------------------------------------------------------------
 Center     Atomic      Atomic             Coordinates (Angstroms)
 Number     Number       Type             X           Y           Z
 ---------------------------------------------------------------------
      1          8           0        0.063238    2.306709    0.000000
      2          1           0        0.062101    1.324108    0.000000
      3          1           0       -0.865886    2.626450    0.000000
      4          8           0        0.063238   -2.131204   -0.000000
      5          1           0        0.660506   -2.911446   -0.000000
      6          1           0       -0.868532   -2.443150   -0.000000
 ---------------------------------------------------------------------

 SCF Done:  E(RHF) =  -152.109568949     A.U. after   10 cycles
 E2 =    -0.5259660813D+00 EUMP2 =    -0.15263553503065D+03
 CCSD(T)
 CCSD(T)= -0.15266268270D+03

 The electronic state is 1-A'.
 Alpha  occ. eigenvalues --  -20.56651 -20.54520  -1.33931  -1.31838  -0.71337
 Alpha  occ. eigenvalues --   -0.69226  -0.57461  -0.55317  -0.51057  -0.48969
 Alpha virt. eigenvalues --    0.12394   0.15871   0.19450   0.22625   0.53356
 Alpha virt. eigenvalues --    0.55350   0.56296   0.58560   0.68162   0.69334
 Alpha virt. eigenvalues --    0.77837   0.78973   0.79702   0.79866   0.83156

 Mulliken charges:
               1
     1  O   -0.517334
     2  H    0.264004
     3  H    0.250517
     4  O   -0.512979
     5  H    0.260161
     6  H    0.255632
 Sum of Mulliken charges =  -0.00000

 Dipole moment (field-independent basis, Debye):
    X=             -2.1556    Y=             -3.1597    Z=             -0.0000  Tot=              3.8249
 Quadrupole moment (field-independent basis, Debye-Ang):
   XX=             -9.4581   YY=             -7.3566   ZZ=            -14.7187
   XY=             -4.0526   XZ=             -0.0000   YZ=              0.0000

 Normal termination of Gaussian 16 at Fri Aug 26 19:14:06 2022.
