 Gaussian 16, Revision A.03,
 Gaussian 16:  ES64L-G16RevA.03 25-Dec-2016

 ------------------
 #p CCSD(T)/cc-pVTZ
 ------------------

 ------------
 H2O_H2O_4150
 ------------
 Symbolic Z-matrix:
 Charge =  0 Multiplicity = 1

                         Standard orientation:
 ---------------------------------------------------------------------
 Center     Atomic      Atomic             Coordinates (Angstroms)
 Number     Number       Type             X           Y           Z
 ---------------------------------------------------------------------
      1          8           0        0.092949   -2.742212    0.000000
      2          1           0        0.092949   -1.759611    0.000000
      3          1           0       -0.836544   -3.060879    0.000000
      4          8           0        0.092949    2.609425    0.000000
      5          1           0        0.092949    3.592027    0.000000
      6          1           0       -0.836544    2.290759    0.000000
 ---------------------------------------------------------------------

 SCF Done:  E(RHF) =  -152.107663614     A.U. after   10 cycles
 E2 =    -0.5258960638D+00 EUMP2 =    -0.15263355967818D+03
 CCSD(T)
 CCSD(T)= -0.15266077168D+03

 The electronic state is 1-A'.
 Alpha  occ. eigenvalues --  -20.56282 -20.55319  -1.33583  -1.32620  -0.71000
 Alpha  occ. eigenvalues --   -0.70015  -0.57043  -0.56071  -0.50693  -0.49733
 Alpha virt. eigenvalues --    0.12354   0.14911   0.18820   0.22108   0.53131
 Alpha virt. eigenvalues --    0.54894   0.56510   0.57768   0.66806   0.68604
 Alpha virt. eigenvalues --    0.78203   0.79141   0.79417   0.81533   0.81986

 Mulliken charges:
               1
     1  O   -0.509432
     2  H    0.257561
     3  H    0.251732
     4  O   -0.510503
     5  H    0.258694
     6  H    0.251949
 Sum of Mulliken charges =  -0.00000

 Dipole moment (field-independent basis, Debye):
    X=             -3.1841    Y=              2.3370    Z=              0.0000  Tot=              3.9497
 Quadrupole moment (field-independent basis, Debye-Ang):
   XX=            -10.8468   YY=             -9.2749   ZZ=            -14.7118
   XY=              2.1555   XZ=              0.0000   YZ=              0.0000

 Normal termination of Gaussian 16 at Sun Aug 28 00:09:59 2022.
