 Gaussian 16, Revision A.03,
 Gaussian 16:  ES64L-G16RevA.03 25-Dec-2016

 ------------------
 #p CCSD(T)/cc-pVTZ
 ------------------

 ------------
 H2O_H2O_4416
 ------------
 Symbolic Z-matrix:
 Charge =  0 Multiplicity = 1

                         Standard orientation:
 ---------------------------------------------------------------------
 Center     Atomic      Atomic             Coordinates (Angstroms)
 Number     Number       Type             X           Y           Z
 ---------------------------------------------------------------------
      1          8           0        0.041108    2.867555   -0.000000
      2          1           0        0.039524    1.884955   -0.000000
      3          1           0       -0.887871    3.187719   -0.000000
      4          8           0        0.041108   -2.687601    0.000000
      5          1           0        0.891273   -3.180272    0.000000
      6          1           0       -0.700652   -3.332037    0.000000
 ---------------------------------------------------------------------

 SCF Done:  E(RHF) =  -152.108505435     A.U. after   10 cycles
 E2 =    -0.5258050714D+00 EUMP2 =    -0.15263431050615D+03
 CCSD(T)
 CCSD(T)= -0.15266150528D+03

 The electronic state is 1-A'.
 Alpha  occ. eigenvalues --  -20.56199 -20.54921  -1.33500  -1.32230  -0.70904
 Alpha  occ. eigenvalues --   -0.69631  -0.56997  -0.55703  -0.50620  -0.49354
 Alpha virt. eigenvalues --    0.13327   0.14982   0.19690   0.21091   0.53639
 Alpha virt. eigenvalues --    0.54865   0.56657   0.57806   0.66789   0.68817
 Alpha virt. eigenvalues --    0.78268   0.79500   0.79638   0.80057   0.82731

 Mulliken charges:
               1
     1  O   -0.514343
     2  H    0.260658
     3  H    0.253520
     4  O   -0.515018
     5  H    0.258251
     6  H    0.256932
 Sum of Mulliken charges =  -0.00000

 Dipole moment (field-independent basis, Debye):
    X=             -1.4096    Y=             -3.1614    Z=              0.0000  Tot=              3.4614
 Quadrupole moment (field-independent basis, Debye-Ang):
   XX=             -9.1494   YY=             -6.2954   ZZ=            -14.7151
   XY=             -5.9472   XZ=              0.0000   YZ=              0.0000

 Normal termination of Gaussian 16 at Sun Aug 28 02:42:07 2022.
