 Gaussian 16, Revision A.03,
 Gaussian 16:  ES64L-G16RevA.03 25-Dec-2016

 ------------------
 #p CCSD(T)/cc-pVTZ
 ------------------

 ------------
 H2O_H2O_1572
 ------------
 Symbolic Z-matrix:
 Charge =  0 Multiplicity = 1

                         Standard orientation:
 ---------------------------------------------------------------------
 Center     Atomic      Atomic             Coordinates (Angstroms)
 Number     Number       Type             X           Y           Z
 ---------------------------------------------------------------------
      1          8           0       -0.019950    1.723763    0.000000
      2          1           0       -0.016168    0.741169    0.000000
      3          1           0        0.908310    2.046004    0.000000
      4          8           0       -0.019950   -1.556701    0.000000
      5          1           0       -0.993645   -1.688704    0.000000
      6          1           0        0.420697   -2.434959    0.000000
 ---------------------------------------------------------------------

 SCF Done:  E(RHF) =  -152.113268227     A.U. after   10 cycles
 E2 =    -0.5269497977D+00 EUMP2 =    -0.15264021802463D+03
 CCSD(T)
 CCSD(T)= -0.15266723766D+03

 The electronic state is 1-A'.
 Alpha  occ. eigenvalues --  -20.57791 -20.53323  -1.35094  -1.30742  -0.72531
 Alpha  occ. eigenvalues --   -0.68275  -0.58892  -0.54111  -0.52216  -0.47898
 Alpha virt. eigenvalues --    0.12167   0.17494   0.19094   0.28525   0.51008
 Alpha virt. eigenvalues --    0.54314   0.55854   0.60281   0.68909   0.73626
 Alpha virt. eigenvalues --    0.74517   0.77345   0.81220   0.82967   0.84328

 Mulliken charges:
               1
     1  O   -0.541702
     2  H    0.273714
     3  H    0.252344
     4  O   -0.503526
     5  H    0.263439
     6  H    0.255731
 Sum of Mulliken charges =  -0.00000

 Dipole moment (field-independent basis, Debye):
    X=              0.6781    Y=             -3.2514    Z=              0.0000  Tot=              3.3214
 Quadrupole moment (field-independent basis, Debye-Ang):
   XX=             -9.4473   YY=             -8.3967   ZZ=            -14.7314
   XY=              4.4017   XZ=              0.0000   YZ=              0.0000

 Normal termination of Gaussian 16 at Sat Aug 27 23:23:53 2022.
