 Gaussian 16, Revision A.03,
 Gaussian 16:  ES64L-G16RevA.03 25-Dec-2016

 ------------------
 #p CCSD(T)/cc-pVTZ
 ------------------

 ------------
 H2O_H2O_4009
 ------------
 Symbolic Z-matrix:
 Charge =  0 Multiplicity = 1

                         Standard orientation:
 ---------------------------------------------------------------------
 Center     Atomic      Atomic             Coordinates (Angstroms)
 Number     Number       Type             X           Y           Z
 ---------------------------------------------------------------------
      1          8           0        0.066749    2.704291   -0.000000
      2          1           0        0.065899    1.721689   -0.000000
      3          1           0       -0.862469    3.023760   -0.000000
      4          8           0        0.066749   -2.531168    0.000000
      5          1           0        0.611946   -3.348643    0.000000
      6          1           0       -0.883356   -2.781784    0.000000
 ---------------------------------------------------------------------

 SCF Done:  E(RHF) =  -152.108480279     A.U. after   10 cycles
 E2 =    -0.5258432260D+00 EUMP2 =    -0.15263432350473D+03
 CCSD(T)
 CCSD(T)= -0.15266151443D+03

 The electronic state is 1-A'.
 Alpha  occ. eigenvalues --  -20.56297 -20.54900  -1.33595  -1.32208  -0.71002
 Alpha  occ. eigenvalues --   -0.69604  -0.57088  -0.55677  -0.50713  -0.49330
 Alpha virt. eigenvalues --    0.12971   0.15135   0.19532   0.21344   0.53414
 Alpha virt. eigenvalues --    0.54959   0.56553   0.57851   0.66690   0.69034
 Alpha virt. eigenvalues --    0.78181   0.79120   0.79523   0.80227   0.82791

 Mulliken charges:
               1
     1  O   -0.513548
     2  H    0.261021
     3  H    0.252112
     4  O   -0.514270
     5  H    0.259294
     6  H    0.255390
 Sum of Mulliken charges =  -0.00000

 Dipole moment (field-independent basis, Debye):
    X=             -2.2855    Y=             -3.0552    Z=              0.0000  Tot=              3.8155
 Quadrupole moment (field-independent basis, Debye-Ang):
   XX=             -9.5611   YY=             -6.9103   ZZ=            -14.7150
   XY=             -4.2548   XZ=              0.0000   YZ=             -0.0000

 Normal termination of Gaussian 16 at Sat Aug 27 00:58:23 2022.
