 Gaussian 16, Revision A.03,
 Gaussian 16:  ES64L-G16RevA.03 25-Dec-2016

 ------------------
 #p CCSD(T)/cc-pVTZ
 ------------------

 -----------
 H2O_H2O_739
 -----------
 Symbolic Z-matrix:
 Charge =  0 Multiplicity = 1

                         Standard orientation:
 ---------------------------------------------------------------------
 Center     Atomic      Atomic             Coordinates (Angstroms)
 Number     Number       Type             X           Y           Z
 ---------------------------------------------------------------------
      1          8           0        0.048693    1.401860    0.000000
      2          1           0        0.045823    0.419263    0.000000
      3          1           0       -0.879865    1.723241    0.000000
      4          8           0        0.048693   -1.221591    0.000000
      5          1           0        0.826493   -1.822036    0.000000
      6          1           0       -0.771545   -1.762621    0.000000
 ---------------------------------------------------------------------

 SCF Done:  E(RHF) =  -152.109455092     A.U. after   10 cycles
 E2 =    -0.5300183338D+00 EUMP2 =    -0.15263947342582D+03
 CCSD(T)
 CCSD(T)= -0.15266611870D+03

 The electronic state is 1-A'.
 Alpha  occ. eigenvalues --  -20.59502 -20.50296  -1.37352  -1.28315  -0.74314
 Alpha  occ. eigenvalues --   -0.69227  -0.59434  -0.54266  -0.50936  -0.45357
 Alpha virt. eigenvalues --    0.11559   0.17853   0.19367   0.33080   0.47810
 Alpha virt. eigenvalues --    0.54188   0.59195   0.61940   0.69857   0.72134
 Alpha virt. eigenvalues --    0.72416   0.78020   0.81891   0.82852   0.84482

 Mulliken charges:
               1
     1  O   -0.590619
     2  H    0.310382
     3  H    0.233517
     4  O   -0.470764
     5  H    0.263193
     6  H    0.254292
 Sum of Mulliken charges =  -0.00000

 Dipole moment (field-independent basis, Debye):
    X=             -1.5830    Y=             -4.0281    Z=             -0.0000  Tot=              4.3280
 Quadrupole moment (field-independent basis, Debye-Ang):
   XX=             -9.1738   YY=             -9.0926   ZZ=            -14.7060
   XY=             -3.2087   XZ=             -0.0000   YZ=             -0.0000

 Normal termination of Gaussian 16 at Fri Aug 26 20:12:36 2022.
