 Gaussian 16, Revision A.03,
 Gaussian 16:  ES64L-G16RevA.03 25-Dec-2016

 ------------------
 #p CCSD(T)/cc-pVTZ
 ------------------

 ------------
 H2O_H2O_3252
 ------------
 Symbolic Z-matrix:
 Charge =  0 Multiplicity = 1

                         Standard orientation:
 ---------------------------------------------------------------------
 Center     Atomic      Atomic             Coordinates (Angstroms)
 Number     Number       Type             X           Y           Z
 ---------------------------------------------------------------------
      1          8           0        0.088231   -2.389487    0.000000
      2          1           0        0.088058   -1.406886    0.000000
      3          1           0       -0.841206   -2.708317    0.000000
      4          8           0        0.088231    2.245167    0.000000
      5          1           0        0.216316    3.219385    0.000000
      6          1           0       -0.874870    2.050380    0.000000
 ---------------------------------------------------------------------

 SCF Done:  E(RHF) =  -152.108251502     A.U. after   10 cycles
 E2 =    -0.5259916340D+00 EUMP2 =    -0.15263424313584D+03
 CCSD(T)
 CCSD(T)= -0.15266142767D+03

 The electronic state is 1-A'.
 Alpha  occ. eigenvalues --  -20.56545 -20.55049  -1.33839  -1.32353  -0.71263
 Alpha  occ. eigenvalues --   -0.69738  -0.57315  -0.55810  -0.50951  -0.49469
 Alpha virt. eigenvalues --    0.11854   0.15472   0.19259   0.22675   0.53813
 Alpha virt. eigenvalues --    0.54854   0.56438   0.58123   0.67377   0.69029
 Alpha virt. eigenvalues --    0.77953   0.78544   0.79396   0.81120   0.82614

 Mulliken charges:
               1
     1  O   -0.511379
     2  H    0.260186
     3  H    0.250036
     4  O   -0.510251
     5  H    0.259768
     6  H    0.251640
 Sum of Mulliken charges =  -0.00000

 Dipole moment (field-independent basis, Debye):
    X=             -3.0097    Y=              2.5763    Z=              0.0000  Tot=              3.9618
 Quadrupole moment (field-independent basis, Debye-Ang):
   XX=            -10.5588   YY=             -8.6337   ZZ=            -14.7138
   XY=              2.5939   XZ=              0.0000   YZ=              0.0000

 Normal termination of Gaussian 16 at Fri Aug 26 20:38:53 2022.
