 Gaussian 16, Revision A.03,
 Gaussian 16:  ES64L-G16RevA.03 25-Dec-2016

 ------------------
 #p CCSD(T)/cc-pVTZ
 ------------------

 ------------
 H2O_H2O_2067
 ------------
 Symbolic Z-matrix:
 Charge =  0 Multiplicity = 1

                         Standard orientation:
 ---------------------------------------------------------------------
 Center     Atomic      Atomic             Coordinates (Angstroms)
 Number     Number       Type             X           Y           Z
 ---------------------------------------------------------------------
      1          8           0        0.037490    1.929641    0.000000
      2          1           0        0.034930    0.947043    0.000000
      3          1           0       -0.891170    2.250728   -0.000000
      4          8           0        0.037490   -1.750714    0.000000
      5          1           0        0.917624   -2.187601    0.000000
      6          1           0       -0.661221   -2.441590   -0.000000
 ---------------------------------------------------------------------

 SCF Done:  E(RHF) =  -152.112233683     A.U. after   10 cycles
 E2 =    -0.5263428924D+00 EUMP2 =    -0.15263857657529D+03
 CCSD(T)
 CCSD(T)= -0.15266564495D+03

 The electronic state is 1-A'.
 Alpha  occ. eigenvalues --  -20.57289 -20.53744  -1.34542  -1.31101  -0.71926
 Alpha  occ. eigenvalues --   -0.68528  -0.58227  -0.54567  -0.51682  -0.48254
 Alpha virt. eigenvalues --    0.12260   0.16959   0.19167   0.25971   0.51991
 Alpha virt. eigenvalues --    0.54995   0.56433   0.58913   0.69082   0.72293
 Alpha virt. eigenvalues --    0.76438   0.77794   0.80655   0.83484   0.84187

 Mulliken charges:
               1
     1  O   -0.529703
     2  H    0.268825
     3  H    0.250397
     4  O   -0.509104
     5  H    0.261768
     6  H    0.257818
 Sum of Mulliken charges =  -0.00000

 Dipole moment (field-independent basis, Debye):
    X=             -1.2696    Y=             -3.3540    Z=             -0.0000  Tot=              3.5862
 Quadrupole moment (field-independent basis, Debye-Ang):
   XX=             -9.1606   YY=             -7.8480   ZZ=            -14.7284
   XY=             -4.3609   XZ=              0.0000   YZ=             -0.0000

 Normal termination of Gaussian 16 at Sun Aug 28 04:05:37 2022.
