 Gaussian 16, Revision A.03,
 Gaussian 16:  ES64L-G16RevA.03 25-Dec-2016

 ------------------
 #p CCSD(T)/cc-pVTZ
 ------------------

 ------------
 H2O_H2O_2491
 ------------
 Symbolic Z-matrix:
 Charge =  0 Multiplicity = 1

                         Standard orientation:
 ---------------------------------------------------------------------
 Center     Atomic      Atomic             Coordinates (Angstroms)
 Number     Number       Type             X           Y           Z
 ---------------------------------------------------------------------
      1          8           0        0.041163    2.099692   -0.000000
      2          1           0        0.038975    1.117093   -0.000000
      3          1           0       -0.887618    2.420428   -0.000000
      4          8           0        0.041163   -1.919789    0.000000
      5          1           0        0.891026   -2.412982    0.000000
      6          1           0       -0.700993   -2.563769    0.000000
 ---------------------------------------------------------------------

 SCF Done:  E(RHF) =  -152.111015092     A.U. after   10 cycles
 E2 =    -0.5260900144D+00 EUMP2 =    -0.15263710510636D+03
 CCSD(T)
 CCSD(T)= -0.15266421013D+03

 The electronic state is 1-A'.
 Alpha  occ. eigenvalues --  -20.56950 -20.54110  -1.34211  -1.31444  -0.71605
 Alpha  occ. eigenvalues --   -0.68843  -0.57813  -0.54932  -0.51348  -0.48589
 Alpha virt. eigenvalues --    0.12354   0.16470   0.19312   0.24203   0.52697
 Alpha virt. eigenvalues --    0.55536   0.56382   0.58937   0.69053   0.70755
 Alpha virt. eigenvalues --    0.77357   0.78669   0.80253   0.80985   0.83705

 Mulliken charges:
               1
     1  O   -0.523967
     2  H    0.266645
     3  H    0.251097
     4  O   -0.511514
     5  H    0.260599
     6  H    0.257140
 Sum of Mulliken charges =  -0.00000

 Dipole moment (field-independent basis, Debye):
    X=             -1.3989    Y=             -3.3003    Z=              0.0000  Tot=              3.5846
 Quadrupole moment (field-independent basis, Debye-Ang):
   XX=             -9.1498   YY=             -7.5326   ZZ=            -14.7235
   XY=             -4.5696   XZ=              0.0000   YZ=             -0.0000

 Normal termination of Gaussian 16 at Sun Aug 28 07:42:18 2022.
