 Gaussian 16, Revision A.03,
 Gaussian 16:  ES64L-G16RevA.03 25-Dec-2016

 ------------------
 #p CCSD(T)/cc-pVTZ
 ------------------

 ------------
 H2O_H2O_4694
 ------------
 Symbolic Z-matrix:
 Charge =  0 Multiplicity = 1

                         Standard orientation:
 ---------------------------------------------------------------------
 Center     Atomic      Atomic             Coordinates (Angstroms)
 Number     Number       Type             X           Y           Z
 ---------------------------------------------------------------------
      1          8           0        0.030143    2.974903    0.000000
      2          1           0        0.028298    1.992303    0.000000
      3          1           0       -0.898750    3.295314    0.000000
      4          8           0        0.030143   -2.799264   -0.000000
      5          1           0        0.960004   -3.116858   -0.000000
      6          1           0       -0.571847   -3.575868   -0.000000
 ---------------------------------------------------------------------

 SCF Done:  E(RHF) =  -152.108388791     A.U. after   10 cycles
 E2 =    -0.5257996539D+00 EUMP2 =    -0.15263418844483D+03
 CCSD(T)
 CCSD(T)= -0.15266138754D+03

 The electronic state is 1-A'.
 Alpha  occ. eigenvalues --  -20.56149 -20.55009  -1.33451  -1.32316  -0.70855
 Alpha  occ. eigenvalues --   -0.69720  -0.56943  -0.55788  -0.50570  -0.49439
 Alpha virt. eigenvalues --    0.13432   0.14853   0.19677   0.21005   0.53646
 Alpha virt. eigenvalues --    0.54840   0.56697   0.57781   0.66937   0.68614
 Alpha virt. eigenvalues --    0.78314   0.79418   0.79652   0.80454   0.82435

 Mulliken charges:
               1
     1  O   -0.513998
     2  H    0.259798
     3  H    0.254127
     4  O   -0.514585
     5  H    0.257511
     6  H    0.257147
 Sum of Mulliken charges =   0.00000

 Dipole moment (field-independent basis, Debye):
    X=             -1.0348    Y=             -3.0777    Z=             -0.0000  Tot=              3.2470
 Quadrupole moment (field-independent basis, Debye-Ang):
   XX=             -9.2306   YY=             -6.3717   ZZ=            -14.7147
   XY=             -6.8379   XZ=             -0.0000   YZ=              0.0000

 Normal termination of Gaussian 16 at Sun Aug 28 05:07:40 2022.
