 Gaussian 16, Revision A.03,
 Gaussian 16:  ES64L-G16RevA.03 25-Dec-2016

 ------------------
 #p CCSD(T)/cc-pVTZ
 ------------------

 ------------
 H2O_H2O_1591
 ------------
 Symbolic Z-matrix:
 Charge =  0 Multiplicity = 1

                         Standard orientation:
 ---------------------------------------------------------------------
 Center     Atomic      Atomic             Coordinates (Angstroms)
 Number     Number       Type             X           Y           Z
 ---------------------------------------------------------------------
      1          8           0        0.041207    1.740684   -0.000000
      2          1           0        0.038543    0.758086   -0.000000
      3          1           0       -0.887419    2.061869   -0.000000
      4          8           0        0.041207   -1.560820    0.000000
      5          1           0        0.890830   -2.054426    0.000000
      6          1           0       -0.701260   -2.204441    0.000000
 ---------------------------------------------------------------------

 SCF Done:  E(RHF) =  -152.113733122     A.U. after   10 cycles
 E2 =    -0.5269452386D+00 EUMP2 =    -0.15264067836106D+03
 CCSD(T)
 CCSD(T)= -0.15266768952D+03

 The electronic state is 1-A'.
 Alpha  occ. eigenvalues --  -20.57827 -20.53077  -1.35098  -1.30501  -0.72449
 Alpha  occ. eigenvalues --   -0.68086  -0.58910  -0.53876  -0.52234  -0.47655
 Alpha virt. eigenvalues --    0.12123   0.17550   0.18977   0.28505   0.50428
 Alpha virt. eigenvalues --    0.54495   0.56147   0.59587   0.68965   0.72164
 Alpha virt. eigenvalues --    0.74688   0.76915   0.81370   0.83124   0.84758

 Mulliken charges:
               1
     1  O   -0.540002
     2  H    0.275658
     3  H    0.247651
     4  O   -0.507143
     5  H    0.264748
     6  H    0.259087
 Sum of Mulliken charges =  -0.00000

 Dipole moment (field-independent basis, Debye):
    X=             -1.3849    Y=             -3.4965    Z=              0.0000  Tot=              3.7608
 Quadrupole moment (field-independent basis, Debye-Ang):
   XX=             -9.1522   YY=             -8.1969   ZZ=            -14.7348
   XY=             -3.9174   XZ=              0.0000   YZ=             -0.0000

 Normal termination of Gaussian 16 at Sat Aug 27 23:31:58 2022.
