 Gaussian 16, Revision A.03,
 Gaussian 16:  ES64L-G16RevA.03 25-Dec-2016

 ------------------
 #p CCSD(T)/cc-pVTZ
 ------------------

 ------------
 H2O_H2O_2992
 ------------
 Symbolic Z-matrix:
 Charge =  0 Multiplicity = 1

                         Standard orientation:
 ---------------------------------------------------------------------
 Center     Atomic      Atomic             Coordinates (Angstroms)
 Number     Number       Type             X           Y           Z
 ---------------------------------------------------------------------
      1          8           0        0.037451    2.298618    0.000000
      2          1           0        0.035318    1.316019    0.000000
      3          1           0       -0.891348    2.619301    0.000000
      4          8           0        0.037451   -2.119657   -0.000000
      5          1           0        0.917774   -2.556163   -0.000000
      6          1           0       -0.660959   -2.810837   -0.000000
 ---------------------------------------------------------------------

 SCF Done:  E(RHF) =  -152.109987946     A.U. after   10 cycles
 E2 =    -0.5259294459D+00 EUMP2 =    -0.15263591739224D+03
 CCSD(T)
 CCSD(T)= -0.15266305697D+03

 The electronic state is 1-A'.
 Alpha  occ. eigenvalues --  -20.56651 -20.54431  -1.33929  -1.31753  -0.71328
 Alpha  occ. eigenvalues --   -0.69150  -0.57479  -0.55243  -0.51059  -0.48890
 Alpha virt. eigenvalues --    0.12507   0.15972   0.19433   0.22757   0.53211
 Alpha virt. eigenvalues --    0.55488   0.56400   0.58520   0.68328   0.69332
 Alpha virt. eigenvalues --    0.77831   0.79040   0.79540   0.79937   0.83268

 Mulliken charges:
               1
     1  O   -0.519945
     2  H    0.264436
     3  H    0.252468
     4  O   -0.514639
     5  H    0.259953
     6  H    0.257726
 Sum of Mulliken charges =  -0.00000

 Dipole moment (field-independent basis, Debye):
    X=             -1.2773    Y=             -3.2244    Z=             -0.0000  Tot=              3.4682
 Quadrupole moment (field-independent basis, Debye-Ang):
   XX=             -9.1589   YY=             -7.2376   ZZ=            -14.7202
   XY=             -5.0723   XZ=             -0.0000   YZ=              0.0000

 Normal termination of Gaussian 16 at Fri Aug 26 19:06:00 2022.
