 Gaussian 16, Revision A.03,
 Gaussian 16:  ES64L-G16RevA.03 25-Dec-2016

 ------------------
 #p CCSD(T)/cc-pVTZ
 ------------------

 ------------
 H2O_H2O_4917
 ------------
 Symbolic Z-matrix:
 Charge =  0 Multiplicity = 1

                         Standard orientation:
 ---------------------------------------------------------------------
 Center     Atomic      Atomic             Coordinates (Angstroms)
 Number     Number       Type             X           Y           Z
 ---------------------------------------------------------------------
      1          8           0        0.037401    3.066476   -0.000000
      2          1           0        0.035818    2.083876   -0.000000
      3          1           0       -0.891578    3.386639   -0.000000
      4          8           0        0.037401   -2.887474    0.000000
      5          1           0        0.917969   -3.323486    0.000000
      6          1           0       -0.660622   -3.579045    0.000000
 ---------------------------------------------------------------------

 SCF Done:  E(RHF) =  -152.108287214     A.U. after   10 cycles
 E2 =    -0.5258029888D+00 EUMP2 =    -0.15263409020279D+03
 CCSD(T)
 CCSD(T)= -0.15266129201D+03

 The electronic state is 1-A'.
 Alpha  occ. eigenvalues --  -20.56117 -20.55030  -1.33419  -1.32337  -0.70823
 Alpha  occ. eigenvalues --   -0.69740  -0.56907  -0.55806  -0.50537  -0.49459
 Alpha virt. eigenvalues --    0.13530   0.14781   0.19738   0.20906   0.53719
 Alpha virt. eigenvalues --    0.54804   0.56721   0.57767   0.67051   0.68515
 Alpha virt. eigenvalues --    0.78346   0.79401   0.79746   0.80512   0.82228

 Mulliken charges:
               1
     1  O   -0.513464
     2  H    0.259542
     3  H    0.253883
     4  O   -0.514044
     5  H    0.257476
     6  H    0.256606
 Sum of Mulliken charges =  -0.00000

 Dipole moment (field-independent basis, Debye):
    X=             -1.2842    Y=             -3.1322    Z=              0.0000  Tot=              3.3852
 Quadrupole moment (field-independent basis, Debye-Ang):
   XX=             -9.1599   YY=             -6.0289   ZZ=            -14.7144
   XY=             -6.5460   XZ=              0.0000   YZ=             -0.0000

 Normal termination of Gaussian 16 at Sun Aug 28 06:52:31 2022.
