 Gaussian 16, Revision A.03,
 Gaussian 16:  ES64L-G16RevA.03 25-Dec-2016

 ------------------
 #p CCSD(T)/cc-pVTZ
 ------------------

 ------------
 H2O_H2O_1623
 ------------
 Symbolic Z-matrix:
 Charge =  0 Multiplicity = 1

                         Standard orientation:
 ---------------------------------------------------------------------
 Center     Atomic      Atomic             Coordinates (Angstroms)
 Number     Number       Type             X           Y           Z
 ---------------------------------------------------------------------
      1          8           0       -0.016713    1.741694    0.000000
      2          1           0       -0.012812    0.759100    0.000000
      3          1           0        0.911507    2.064048    0.000000
      4          8           0       -0.016713   -1.578339    0.000000
      5          1           0       -0.996948   -1.646496    0.000000
      6          1           0        0.365660   -2.483489    0.000000
 ---------------------------------------------------------------------

 SCF Done:  E(RHF) =  -152.112944601     A.U. after   10 cycles
 E2 =    -0.5268660957D+00 EUMP2 =    -0.15263981069620D+03
 CCSD(T)
 CCSD(T)= -0.15266684305D+03

 The electronic state is 1-A'.
 Alpha  occ. eigenvalues --  -20.57711 -20.53496  -1.35014  -1.30901  -0.72473
 Alpha  occ. eigenvalues --   -0.68393  -0.58787  -0.54286  -0.52134  -0.48057
 Alpha virt. eigenvalues --    0.12172   0.17374   0.19169   0.28222   0.51290
 Alpha virt. eigenvalues --    0.54354   0.55810   0.60164   0.68878   0.73859
 Alpha virt. eigenvalues --    0.74701   0.77514   0.81069   0.82978   0.84263

 Mulliken charges:
               1
     1  O   -0.539877
     2  H    0.272109
     3  H    0.253350
     4  O   -0.503836
     5  H    0.262819
     6  H    0.255435
 Sum of Mulliken charges =  -0.00000

 Dipole moment (field-independent basis, Debye):
    X=              0.5718    Y=             -3.1620    Z=              0.0000  Tot=              3.2133
 Quadrupole moment (field-independent basis, Debye-Ang):
   XX=             -9.5441   YY=             -8.4310   ZZ=            -14.7300
   XY=              4.5626   XZ=              0.0000   YZ=              0.0000

 Normal termination of Gaussian 16 at Sat Aug 27 23:58:46 2022.
