 Gaussian 16, Revision A.03,
 Gaussian 16:  ES64L-G16RevA.03 25-Dec-2016

 ------------------
 #p CCSD(T)/cc-pVTZ
 ------------------

 ------------
 H2O_H2O_1093
 ------------
 Symbolic Z-matrix:
 Charge =  0 Multiplicity = 1

                         Standard orientation:
 ---------------------------------------------------------------------
 Center     Atomic      Atomic             Coordinates (Angstroms)
 Number     Number       Type             X           Y           Z
 ---------------------------------------------------------------------
      1          8           0        0.033903    1.539931   -0.000000
      2          1           0        0.030442    0.557336   -0.000000
      3          1           0       -0.894463    1.861868    0.000000
      4          8           0        0.033903   -1.362493   -0.000000
      5          1           0        0.940379   -1.741713   -0.000000
      6          1           0       -0.618799   -2.096992    0.000000
 ---------------------------------------------------------------------

 SCF Done:  E(RHF) =  -152.113859298     A.U. after   10 cycles
 E2 =    -0.5282391235D+00 EUMP2 =    -0.15264209842102D+03
 CCSD(T)
 CCSD(T)= -0.15266897878D+03

 The electronic state is 1-A'.
 Alpha  occ. eigenvalues --  -20.58629 -20.51888  -1.36078  -1.29523  -0.73363
 Alpha  occ. eigenvalues --   -0.67948  -0.59711  -0.53153  -0.52603  -0.46651
 Alpha virt. eigenvalues --    0.11945   0.18343   0.18663   0.31526   0.48914
 Alpha virt. eigenvalues --    0.54692   0.56088   0.61852   0.68506   0.72204
 Alpha virt. eigenvalues --    0.72922   0.77320   0.82266   0.82586   0.84725

 Mulliken charges:
               1
     1  O   -0.564889
     2  H    0.292333
     3  H    0.244917
     4  O   -0.493747
     5  H    0.265905
     6  H    0.255480
 Sum of Mulliken charges =  -0.00000

 Dipole moment (field-independent basis, Debye):
    X=             -1.1261    Y=             -3.6835    Z=              0.0000  Tot=              3.8518
 Quadrupole moment (field-independent basis, Debye-Ang):
   XX=             -9.1801   YY=             -8.6799   ZZ=            -14.7290
   XY=             -3.6433   XZ=             -0.0000   YZ=              0.0000

 Normal termination of Gaussian 16 at Fri Aug 26 22:25:07 2022.
