 Gaussian 16, Revision A.03,
 Gaussian 16:  ES64L-G16RevA.03 25-Dec-2016

 ------------------
 #p CCSD(T)/cc-pVTZ
 ------------------

 ------------
 H2O_H2O_4587
 ------------
 Symbolic Z-matrix:
 Charge =  0 Multiplicity = 1

                         Standard orientation:
 ---------------------------------------------------------------------
 Center     Atomic      Atomic             Coordinates (Angstroms)
 Number     Number       Type             X           Y           Z
 ---------------------------------------------------------------------
      1          8           0        0.055964    2.936806    0.000000
      2          1           0        0.054862    1.954205    0.000000
      3          1           0       -0.873171    3.256514    0.000000
      4          8           0        0.055964   -2.757865   -0.000000
      5          1           0        0.749988   -3.453448   -0.000000
      6          1           0       -0.827103   -3.188795   -0.000000
 ---------------------------------------------------------------------

 SCF Done:  E(RHF) =  -152.108316135     A.U. after   10 cycles
 E2 =    -0.5258142881D+00 EUMP2 =    -0.15263413042287D+03
 CCSD(T)
 CCSD(T)= -0.15266133005D+03

 The electronic state is 1-A'.
 Alpha  occ. eigenvalues --  -20.56173 -20.54976  -1.33474  -1.32283  -0.70879
 Alpha  occ. eigenvalues --   -0.69683  -0.56963  -0.55751  -0.50592  -0.49404
 Alpha virt. eigenvalues --    0.13387   0.14882   0.19690   0.21005   0.53654
 Alpha virt. eigenvalues --    0.54840   0.56667   0.57785   0.66886   0.68697
 Alpha virt. eigenvalues --    0.78294   0.79453   0.79654   0.80266   0.82596

 Mulliken charges:
               1
     1  O   -0.513318
     2  H    0.260187
     3  H    0.253031
     4  O   -0.514119
     5  H    0.258296
     6  H    0.255923
 Sum of Mulliken charges =  -0.00000

 Dipole moment (field-independent basis, Debye):
    X=             -1.9196    Y=             -3.1390    Z=             -0.0000  Tot=              3.6794
 Quadrupole moment (field-independent basis, Debye-Ang):
   XX=             -9.2850   YY=             -6.2477   ZZ=            -14.7145
   XY=             -5.1674   XZ=             -0.0000   YZ=              0.0000

 Normal termination of Gaussian 16 at Sun Aug 28 04:09:47 2022.
