 Gaussian 16, Revision A.03,
 Gaussian 16:  ES64L-G16RevA.03 25-Dec-2016

 ------------------
 #p CCSD(T)/cc-pVTZ
 ------------------

 ------------
 H2O_H2O_3198
 ------------
 Symbolic Z-matrix:
 Charge =  0 Multiplicity = 1

                         Standard orientation:
 ---------------------------------------------------------------------
 Center     Atomic      Atomic             Coordinates (Angstroms)
 Number     Number       Type             X           Y           Z
 ---------------------------------------------------------------------
      1          8           0       -0.016624    2.369940    0.000000
      2          1           0       -0.013794    1.387343    0.000000
      3          1           0        0.911947    2.691282    0.000000
      4          8           0       -0.016624   -2.206549    0.000000
      5          1           0       -0.996933   -2.273638    0.000000
      6          1           0        0.364762   -3.112116    0.000000
 ---------------------------------------------------------------------

 SCF Done:  E(RHF) =  -152.109512081     A.U. after   10 cycles
 E2 =    -0.5258847279D+00 EUMP2 =    -0.15263539680864D+03
 CCSD(T)
 CCSD(T)= -0.15266255377D+03

 The electronic state is 1-A'.
 Alpha  occ. eigenvalues --  -20.56538 -20.54708  -1.33829  -1.32025  -0.71236
 Alpha  occ. eigenvalues --   -0.69432  -0.57358  -0.55513  -0.50954  -0.49159
 Alpha virt. eigenvalues --    0.12369   0.15743   0.19259   0.22696   0.53542
 Alpha virt. eigenvalues --    0.55489   0.56475   0.58126   0.67555   0.69326
 Alpha virt. eigenvalues --    0.77944   0.78687   0.79679   0.80584   0.83045

 Mulliken charges:
               1
     1  O   -0.518760
     2  H    0.262213
     3  H    0.254684
     4  O   -0.515548
     5  H    0.258413
     6  H    0.258997
 Sum of Mulliken charges =   0.00000

 Dipole moment (field-independent basis, Debye):
    X=              0.5709    Y=             -2.9232    Z=              0.0000  Tot=              2.9784
 Quadrupole moment (field-independent basis, Debye-Ang):
   XX=             -9.5429   YY=             -7.7386   ZZ=            -14.7185
   XY=              6.2197   XZ=              0.0000   YZ=              0.0000

 Normal termination of Gaussian 16 at Fri Aug 26 20:20:59 2022.
