 Gaussian 16, Revision A.03,
 Gaussian 16:  ES64L-G16RevA.03 25-Dec-2016

 ------------------
 #p CCSD(T)/cc-pVTZ
 ------------------

 ------------
 H2O_H2O_3102
 ------------
 Symbolic Z-matrix:
 Charge =  0 Multiplicity = 1

                         Standard orientation:
 ---------------------------------------------------------------------
 Center     Atomic      Atomic             Coordinates (Angstroms)
 Number     Number       Type             X           Y           Z
 ---------------------------------------------------------------------
      1          8           0        0.088232   -2.329655    0.000000
      2          1           0        0.088054   -1.347054    0.000000
      3          1           0       -0.841204   -2.648490    0.000000
      4          8           0        0.088232    2.185336    0.000000
      5          1           0        0.216311    3.159555    0.000000
      6          1           0       -0.874869    1.990545    0.000000
 ---------------------------------------------------------------------

 SCF Done:  E(RHF) =  -152.108356666     A.U. after   10 cycles
 E2 =    -0.5260272164D+00 EUMP2 =    -0.15263438388264D+03
 CCSD(T)
 CCSD(T)= -0.15266156258D+03

 The electronic state is 1-A'.
 Alpha  occ. eigenvalues --  -20.56606 -20.55013  -1.33899  -1.32318  -0.71326
 Alpha  occ. eigenvalues --   -0.69700  -0.57378  -0.55774  -0.51011  -0.49434
 Alpha virt. eigenvalues --    0.11780   0.15565   0.19342   0.22869   0.54108
 Alpha virt. eigenvalues --    0.54748   0.56439   0.58170   0.67732   0.69043
 Alpha virt. eigenvalues --    0.77886   0.78530   0.79433   0.81049   0.82662

 Mulliken charges:
               1
     1  O   -0.511764
     2  H    0.260676
     3  H    0.249616
     4  O   -0.509632
     5  H    0.259766
     6  H    0.251337
 Sum of Mulliken charges =  -0.00000

 Dipole moment (field-independent basis, Debye):
    X=             -3.0069    Y=              2.5850    Z=              0.0000  Tot=              3.9653
 Quadrupole moment (field-independent basis, Debye-Ang):
   XX=            -10.5608   YY=             -8.6506   ZZ=            -14.7140
   XY=              2.5834   XZ=              0.0000   YZ=              0.0000

 Normal termination of Gaussian 16 at Fri Aug 26 19:46:46 2022.
