 Gaussian 16, Revision A.03,
 Gaussian 16:  ES64L-G16RevA.03 25-Dec-2016

 ------------------
 #p CCSD(T)/cc-pVTZ
 ------------------

 ------------
 H2O_H2O_1763
 ------------
 Symbolic Z-matrix:
 Charge =  0 Multiplicity = 1

                         Standard orientation:
 ---------------------------------------------------------------------
 Center     Atomic      Atomic             Coordinates (Angstroms)
 Number     Number       Type             X           Y           Z
 ---------------------------------------------------------------------
      1          8           0        0.052343    1.810471    0.000000
      2          1           0        0.050337    0.827872    0.000000
      3          1           0       -0.876498    2.131034    0.000000
      4          8           0        0.052343   -1.630632   -0.000000
      5          1           0        0.789777   -2.280012   -0.000000
      6          1           0       -0.801097   -2.117609   -0.000000
 ---------------------------------------------------------------------

 SCF Done:  E(RHF) =  -152.112984475     A.U. after   10 cycles
 E2 =    -0.5267112724D+00 EUMP2 =    -0.15263969574734D+03
 CCSD(T)
 CCSD(T)= -0.15266673383D+03

 The electronic state is 1-A'.
 Alpha  occ. eigenvalues --  -20.57619 -20.53387  -1.34875  -1.30774  -0.72245
 Alpha  occ. eigenvalues --   -0.68261  -0.58626  -0.54192  -0.52012  -0.47925
 Alpha virt. eigenvalues --    0.12116   0.17218   0.19114   0.27458   0.50706
 Alpha virt. eigenvalues --    0.54898   0.56323   0.59087   0.69087   0.72365
 Alpha virt. eigenvalues --    0.75390   0.77045   0.81058   0.83251   0.84515

 Mulliken charges:
               1
     1  O   -0.533345
     2  H    0.272394
     3  H    0.246792
     4  O   -0.506799
     5  H    0.263503
     6  H    0.257456
 Sum of Mulliken charges =  -0.00000

 Dipole moment (field-independent basis, Debye):
    X=             -1.7629    Y=             -3.4423    Z=             -0.0000  Tot=              3.8675
 Quadrupole moment (field-independent basis, Debye-Ang):
   XX=             -9.2332   YY=             -8.0569   ZZ=            -14.7320
   XY=             -3.8022   XZ=             -0.0000   YZ=             -0.0000

 Normal termination of Gaussian 16 at Sun Aug 28 01:23:33 2022.
