 Gaussian 16, Revision A.03,
 Gaussian 16:  ES64L-G16RevA.03 25-Dec-2016

 ------------------
 #p CCSD(T)/cc-pVTZ
 ------------------

 ------------
 H2O_H2O_2596
 ------------
 Symbolic Z-matrix:
 Charge =  0 Multiplicity = 1

                         Standard orientation:
 ---------------------------------------------------------------------
 Center     Atomic      Atomic             Coordinates (Angstroms)
 Number     Number       Type             X           Y           Z
 ---------------------------------------------------------------------
      1          8           0       -0.023233    2.134407    0.000000
      2          1           0       -0.020345    1.151809    0.000000
      3          1           0        0.905319    2.455804    0.000000
      4          8           0       -0.023233   -1.964033    0.000000
      5          1           0       -0.986386   -2.158561    0.000000
      6          1           0        0.473141   -2.812042    0.000000
 ---------------------------------------------------------------------

 SCF Done:  E(RHF) =  -152.110677031     A.U. after   10 cycles
 E2 =    -0.5260369255D+00 EUMP2 =    -0.15263671395636D+03
 CCSD(T)
 CCSD(T)= -0.15266383025D+03

 The electronic state is 1-A'.
 Alpha  occ. eigenvalues --  -20.56856 -20.54316  -1.34129  -1.31644  -0.71533
 Alpha  occ. eigenvalues --   -0.69050  -0.57710  -0.55136  -0.51262  -0.48789
 Alpha virt. eigenvalues --    0.12299   0.16324   0.19288   0.23982   0.53477
 Alpha virt. eigenvalues --    0.55550   0.56361   0.58587   0.68915   0.70255
 Alpha virt. eigenvalues --    0.77497   0.79101   0.80057   0.80719   0.83519

 Mulliken charges:
               1
     1  O   -0.523676
     2  H    0.265261
     3  H    0.253464
     4  O   -0.512922
     5  H    0.259840
     6  H    0.258033
 Sum of Mulliken charges =  -0.00000

 Dipole moment (field-independent basis, Debye):
    X=              0.7933    Y=             -3.1080    Z=              0.0000  Tot=              3.2077
 Quadrupole moment (field-independent basis, Debye-Ang):
   XX=             -9.3614   YY=             -7.7527   ZZ=            -14.7222
   XY=              5.2941   XZ=              0.0000   YZ=              0.0000

 Normal termination of Gaussian 16 at Fri Aug 26 15:53:01 2022.
