 Gaussian 16, Revision A.03,
 Gaussian 16:  ES64L-G16RevA.03 25-Dec-2016

 ------------------
 #p CCSD(T)/cc-pVTZ
 ------------------

 ------------
 H2O_H2O_2937
 ------------
 Symbolic Z-matrix:
 Charge =  0 Multiplicity = 1

                         Standard orientation:
 ---------------------------------------------------------------------
 Center     Atomic      Atomic             Coordinates (Angstroms)
 Number     Number       Type             X           Y           Z
 ---------------------------------------------------------------------
      1          8           0        0.055994    2.278640    0.000000
      2          1           0        0.054561    1.296039    0.000000
      3          1           0       -0.873033    2.598662    0.000000
      4          8           0        0.055994   -2.099737   -0.000000
      5          1           0        0.749785   -2.795554   -0.000000
      6          1           0       -0.827217   -2.530369   -0.000000
 ---------------------------------------------------------------------

 SCF Done:  E(RHF) =  -152.109862551     A.U. after   10 cycles
 E2 =    -0.5259681148D+00 EUMP2 =    -0.15263583066591D+03
 CCSD(T)
 CCSD(T)= -0.15266297054D+03

 The electronic state is 1-A'.
 Alpha  occ. eigenvalues --  -20.56687 -20.54427  -1.33963  -1.31747  -0.71365
 Alpha  occ. eigenvalues --   -0.69138  -0.57507  -0.55231  -0.51092  -0.48882
 Alpha virt. eigenvalues --    0.12439   0.15976   0.19445   0.22805   0.53186
 Alpha virt. eigenvalues --    0.55458   0.56288   0.58666   0.68477   0.69332
 Alpha virt. eigenvalues --    0.77794   0.79106   0.79451   0.79949   0.83262

 Mulliken charges:
               1
     1  O   -0.518730
     2  H    0.264622
     3  H    0.250840
     4  O   -0.513277
     5  H    0.260228
     6  H    0.256316
 Sum of Mulliken charges =  -0.00000

 Dipole moment (field-independent basis, Debye):
    X=             -1.9080    Y=             -3.2288    Z=             -0.0000  Tot=              3.7504
 Quadrupole moment (field-independent basis, Debye-Ang):
   XX=             -9.2877   YY=             -7.2774   ZZ=            -14.7197
   XY=             -4.3229   XZ=             -0.0000   YZ=              0.0000

 CCSD(T)=-152.6629705\RMSD=6.862e-09\PG=CS [SG(H4O2)]\\@
 Normal termination of Gaussian 16 at Fri Aug 26 18:32:26 2022.
