 Gaussian 16, Revision A.03,
 Gaussian 16:  ES64L-G16RevA.03 25-Dec-2016

 ------------------
 #p CCSD(T)/cc-pVTZ
 ------------------

 ------------
 H2O_H2O_3107
 ------------
 Symbolic Z-matrix:
 Charge =  0 Multiplicity = 1

                         Standard orientation:
 ---------------------------------------------------------------------
 Center     Atomic      Atomic             Coordinates (Angstroms)
 Number     Number       Type             X           Y           Z
 ---------------------------------------------------------------------
      1          8           0        0.073536    2.341944    0.000000
      2          1           0        0.072806    1.359343    0.000000
      3          1           0       -0.855720    2.661300    0.000000
      4          8           0        0.073536   -2.175002    0.000000
      5          1           0        0.507476   -3.056593    0.000000
      6          1           0       -0.901136   -2.299580    0.000000
 ---------------------------------------------------------------------

 SCF Done:  E(RHF) =  -152.109099789     A.U. after   10 cycles
 E2 =    -0.5259707075D+00 EUMP2 =    -0.15263507049695D+03
 CCSD(T)
 CCSD(T)= -0.15266223071D+03

 The electronic state is 1-A'.
 Alpha  occ. eigenvalues --  -20.56605 -20.54691  -1.33891  -1.32004  -0.71304
 Alpha  occ. eigenvalues --   -0.69390  -0.57401  -0.55476  -0.51012  -0.49130
 Alpha virt. eigenvalues --    0.12260   0.15716   0.19426   0.22468   0.53604
 Alpha virt. eigenvalues --    0.55163   0.56341   0.58394   0.67777   0.69297
 Alpha virt. eigenvalues --    0.77889   0.78767   0.79715   0.80253   0.82971

 Mulliken charges:
               1
     1  O   -0.515155
     2  H    0.262804
     3  H    0.250178
     4  O   -0.512219
     5  H    0.260019
     6  H    0.254373
 Sum of Mulliken charges =  -0.00000

 Dipole moment (field-independent basis, Debye):
    X=             -2.5075    Y=             -2.9955    Z=              0.0000  Tot=              3.9064
 Quadrupole moment (field-independent basis, Debye-Ang):
   XX=             -9.8158   YY=             -7.6424   ZZ=            -14.7170
   XY=             -3.5755   XZ=              0.0000   YZ=              0.0000

 Normal termination of Gaussian 16 at Fri Aug 26 19:48:23 2022.
