 Gaussian 16, Revision A.03,
 Gaussian 16:  ES64L-G16RevA.03 25-Dec-2016

 ------------------
 #p CCSD(T)/cc-pVTZ
 ------------------

 ------------
 H2O_H2O_1973
 ------------
 Symbolic Z-matrix:
 Charge =  0 Multiplicity = 1

                         Standard orientation:
 ---------------------------------------------------------------------
 Center     Atomic      Atomic             Coordinates (Angstroms)
 Number     Number       Type             X           Y           Z
 ---------------------------------------------------------------------
      1          8           0       -0.016688    1.881305    0.000000
      2          1           0       -0.013089    0.898710    0.000000
      3          1           0        0.911632    2.203373    0.000000
      4          8           0       -0.016688   -1.717940    0.000000
      5          1           0       -0.996944   -1.785795    0.000000
      6          1           0        0.365406   -2.623208    0.000000
 ---------------------------------------------------------------------

 SCF Done:  E(RHF) =  -152.112042763     A.U. after   10 cycles
 E2 =    -0.5264215021D+00 EUMP2 =    -0.15263846426555D+03
 CCSD(T)
 CCSD(T)= -0.15266553574D+03

 The electronic state is 1-A'.
 Alpha  occ. eigenvalues --  -20.57327 -20.53938  -1.34603  -1.31296  -0.72032
 Alpha  occ. eigenvalues --   -0.68726  -0.58282  -0.54752  -0.51733  -0.48450
 Alpha virt. eigenvalues --    0.12195   0.16948   0.19230   0.26432   0.52651
 Alpha virt. eigenvalues --    0.54545   0.55979   0.59153   0.68805   0.73098
 Alpha virt. eigenvalues --    0.76080   0.78488   0.80547   0.83378   0.83974

 Mulliken charges:
               1
     1  O   -0.531366
     2  H    0.267421
     3  H    0.253901
     4  O   -0.509178
     5  H    0.261127
     6  H    0.258095
 Sum of Mulliken charges =  -0.00000

 Dipole moment (field-independent basis, Debye):
    X=              0.5722    Y=             -3.0739    Z=              0.0000  Tot=              3.1267
 Quadrupole moment (field-independent basis, Debye-Ang):
   XX=             -9.5449   YY=             -8.2551   ZZ=            -14.7273
   XY=              4.9328   XZ=              0.0000   YZ=              0.0000

 Normal termination of Gaussian 16 at Sun Aug 28 03:15:51 2022.
