 Gaussian 16, Revision A.03,
 Gaussian 16:  ES64L-G16RevA.03 25-Dec-2016

 ------------------
 #p CCSD(T)/cc-pVTZ
 ------------------

 ------------
 H2O_H2O_1192
 ------------
 Symbolic Z-matrix:
 Charge =  0 Multiplicity = 1

                         Standard orientation:
 ---------------------------------------------------------------------
 Center     Atomic      Atomic             Coordinates (Angstroms)
 Number     Number       Type             X           Y           Z
 ---------------------------------------------------------------------
      1          8           0        0.037544    1.580602    0.000000
      2          1           0        0.034385    0.598005    0.000000
      3          1           0       -0.890919    1.902255    0.000000
      4          8           0        0.037544   -1.401720   -0.000000
      5          1           0        0.917411   -1.839145   -0.000000
      6          1           0       -0.661587   -2.092171   -0.000000
 ---------------------------------------------------------------------

 SCF Done:  E(RHF) =  -152.114201372     A.U. after   10 cycles
 E2 =    -0.5279042656D+00 EUMP2 =    -0.15264210563718D+03
 CCSD(T)
 CCSD(T)= -0.15266902375D+03

 The electronic state is 1-A'.
 Alpha  occ. eigenvalues --  -20.58448 -20.52171  -1.35833  -1.29744  -0.73121
 Alpha  occ. eigenvalues --   -0.67901  -0.59577  -0.52932  -0.52911  -0.46881
 Alpha virt. eigenvalues --    0.11982   0.18146   0.18756   0.30940   0.49166
 Alpha virt. eigenvalues --    0.54669   0.55947   0.61082   0.68654   0.71946
 Alpha virt. eigenvalues --    0.73200   0.77210   0.82187   0.82660   0.84860

 Mulliken charges:
               1
     1  O   -0.558140
     2  H    0.288718
     3  H    0.245080
     4  O   -0.499622
     5  H    0.266288
     6  H    0.257676
 Sum of Mulliken charges =  -0.00000

 Dipole moment (field-independent basis, Debye):
    X=             -1.2498    Y=             -3.6527    Z=             -0.0000  Tot=              3.8606
 Quadrupole moment (field-independent basis, Debye-Ang):
   XX=             -9.1565   YY=             -8.5706   ZZ=            -14.7326
   XY=             -3.6726   XZ=             -0.0000   YZ=              0.0000

 Normal termination of Gaussian 16 at Fri Aug 26 23:01:03 2022.
