 Gaussian 16, Revision A.03,
 Gaussian 16:  ES64L-G16RevA.03 25-Dec-2016

 ------------------
 #p CCSD(T)/cc-pVTZ
 ------------------

 ------------
 H2O_H2O_2776
 ------------
 Symbolic Z-matrix:
 Charge =  0 Multiplicity = 1

                         Standard orientation:
 ---------------------------------------------------------------------
 Center     Atomic      Atomic             Coordinates (Angstroms)
 Number     Number       Type             X           Y           Z
 ---------------------------------------------------------------------
      1          8           0        0.090685   -2.196972    0.000000
      2          1           0        0.090594   -1.214370    0.000000
      3          1           0       -0.838779   -2.515724    0.000000
      4          8           0        0.090685    2.058265    0.000000
      5          1           0        0.154860    3.038768    0.000000
      6          1           0       -0.857637    1.800984    0.000000
 ---------------------------------------------------------------------

 SCF Done:  E(RHF) =  -152.108420414     A.U. after   10 cycles
 E2 =    -0.5261497182D+00 EUMP2 =    -0.15263457013221D+03
 CCSD(T)
 CCSD(T)= -0.15266173983D+03

 The electronic state is 1-A'.
 Alpha  occ. eigenvalues --  -20.56763 -20.55014  -1.34054  -1.32317  -0.71495
 Alpha  occ. eigenvalues --   -0.69689  -0.57531  -0.55768  -0.51162  -0.49432
 Alpha virt. eigenvalues --    0.11560   0.15723   0.19562   0.23512   0.54191
 Alpha virt. eigenvalues --    0.55003   0.56475   0.58092   0.68451   0.69405
 Alpha virt. eigenvalues --    0.77668   0.78580   0.79461   0.80767   0.82840

 Mulliken charges:
               1
     1  O   -0.512023
     2  H    0.261500
     3  H    0.248468
     4  O   -0.507129
     5  H    0.259580
     6  H    0.249604
 Sum of Mulliken charges =  -0.00000

 Dipole moment (field-independent basis, Debye):
    X=             -3.0827    Y=              2.5051    Z=              0.0000  Tot=              3.9723
 Quadrupole moment (field-independent basis, Debye-Ang):
   XX=            -10.7169   YY=             -8.9326   ZZ=            -14.7138
   XY=              2.3559   XZ=              0.0000   YZ=              0.0000

 Normal termination of Gaussian 16 at Fri Aug 26 17:14:18 2022.
