 Gaussian 16, Revision A.03,
 Gaussian 16:  ES64L-G16RevA.03 25-Dec-2016

 ------------------
 #p CCSD(T)/cc-pVTZ
 ------------------

 ------------
 H2O_H2O_3578
 ------------
 Symbolic Z-matrix:
 Charge =  0 Multiplicity = 1

                         Standard orientation:
 ---------------------------------------------------------------------
 Center     Atomic      Atomic             Coordinates (Angstroms)
 Number     Number       Type             X           Y           Z
 ---------------------------------------------------------------------
      1          8           0        0.085599   -2.521990    0.000000
      2          1           0        0.085344   -1.539389    0.000000
      3          1           0       -0.843811   -2.840898    0.000000
      4          8           0        0.085599    2.372390    0.000000
      5          1           0        0.277046    3.336161    0.000000
      6          1           0       -0.888169    2.240928    0.000000
 ---------------------------------------------------------------------

 SCF Done:  E(RHF) =  -152.108193373     A.U. after   10 cycles
 E2 =    -0.5259250877D+00 EUMP2 =    -0.15263411846049D+03
 CCSD(T)
 CCSD(T)= -0.15266131018D+03

 The electronic state is 1-A'.
 Alpha  occ. eigenvalues --  -20.56428 -20.55055  -1.33725  -1.32360  -0.71143
 Alpha  occ. eigenvalues --   -0.69750  -0.57202  -0.55819  -0.50838  -0.49477
 Alpha virt. eigenvalues --    0.12187   0.15293   0.19184   0.22167   0.53326
 Alpha virt. eigenvalues --    0.55019   0.56452   0.58020   0.66892   0.69032
 Alpha virt. eigenvalues --    0.78066   0.78707   0.79385   0.81077   0.82608

 Mulliken charges:
               1
     1  O   -0.511423
     2  H    0.259858
     3  H    0.250844
     4  O   -0.511645
     5  H    0.259649
     6  H    0.252716
 Sum of Mulliken charges =  -0.00000

 Dipole moment (field-independent basis, Debye):
    X=             -2.9253    Y=              2.6548    Z=              0.0000  Tot=              3.9504
 Quadrupole moment (field-independent basis, Debye-Ang):
   XX=            -10.4023   YY=             -8.3104   ZZ=            -14.7137
   XY=              2.8441   XZ=              0.0000   YZ=              0.0000

 Normal termination of Gaussian 16 at Fri Aug 26 22:29:37 2022.
