 Gaussian 16, Revision A.03,
 Gaussian 16:  ES64L-G16RevA.03 25-Dec-2016

 ------------------
 #p CCSD(T)/cc-pVTZ
 ------------------

 ------------
 H2O_H2O_4242
 ------------
 Symbolic Z-matrix:
 Charge =  0 Multiplicity = 1

                         Standard orientation:
 ---------------------------------------------------------------------
 Center     Atomic      Atomic             Coordinates (Angstroms)
 Number     Number       Type             X           Y           Z
 ---------------------------------------------------------------------
      1          8           0        0.037415    2.797228    0.000000
      2          1           0        0.035675    1.814629    0.000000
      3          1           0       -0.891512    3.117540    0.000000
      4          8           0        0.037415   -2.618238   -0.000000
      5          1           0        0.917913   -3.054391   -0.000000
      6          1           0       -0.660718   -3.309698   -0.000000
 ---------------------------------------------------------------------

 SCF Done:  E(RHF) =  -152.108622574     A.U. after   10 cycles
 E2 =    -0.5258061212D+00 EUMP2 =    -0.15263442869534D+03
 CCSD(T)
 CCSD(T)= -0.15266161963D+03

 The electronic state is 1-A'.
 Alpha  occ. eigenvalues --  -20.56233 -20.54885  -1.33533  -1.32194  -0.70936
 Alpha  occ. eigenvalues --   -0.69596  -0.57035  -0.55669  -0.50654  -0.49320
 Alpha virt. eigenvalues --    0.13226   0.15069   0.19655   0.21193   0.53583
 Alpha virt. eigenvalues --    0.54900   0.56635   0.57815   0.66717   0.68930
 Alpha virt. eigenvalues --    0.78236   0.79494   0.79532   0.79999   0.82798

 Mulliken charges:
               1
     1  O   -0.514864
     2  H    0.260997
     3  H    0.253609
     4  O   -0.515443
     5  H    0.258390
     6  H    0.257311
 Sum of Mulliken charges =  -0.00000

 Dipole moment (field-independent basis, Debye):
    X=             -1.2825    Y=             -3.1499    Z=             -0.0000  Tot=              3.4010
 Quadrupole moment (field-independent basis, Debye-Ang):
   XX=             -9.1594   YY=             -6.4577   ZZ=            -14.7155
   XY=             -6.0296   XZ=             -0.0000   YZ=              0.0000

 Normal termination of Gaussian 16 at Sun Aug 28 01:06:15 2022.
