 Gaussian 16, Revision A.03,
 Gaussian 16:  ES64L-G16RevA.03 25-Dec-2016

 ------------------
 #p CCSD(T)/cc-pVTZ
 ------------------

 -----------
 H2O_H2O_682
 -----------
 Symbolic Z-matrix:
 Charge =  0 Multiplicity = 1

                         Standard orientation:
 ---------------------------------------------------------------------
 Center     Atomic      Atomic             Coordinates (Angstroms)
 Number     Number       Type             X           Y           Z
 ---------------------------------------------------------------------
      1          8           0        0.073582    1.374626    0.000000
      2          1           0        0.072306    0.392025    0.000000
      3          1           0       -0.855496    1.694499    0.000000
      4          8           0        0.073582   -1.207766   -0.000000
      5          1           0        0.507032   -2.089598   -0.000000
      6          1           0       -0.901159   -1.331802   -0.000000
 ---------------------------------------------------------------------

 SCF Done:  E(RHF) =  -152.105289851     A.U. after   11 cycles
 E2 =    -0.5308839000D+00 EUMP2 =    -0.15263617375128D+03
 CCSD(T)
 CCSD(T)= -0.15266280445D+03

 The electronic state is 1-A'.
 Alpha  occ. eigenvalues --  -20.59598 -20.50784  -1.37637  -1.28771  -0.75227
 Alpha  occ. eigenvalues --   -0.68959  -0.59415  -0.54420  -0.51443  -0.45787
 Alpha virt. eigenvalues --    0.11367   0.16961   0.20047   0.32750   0.48180
 Alpha virt. eigenvalues --    0.53711   0.59374   0.61978   0.70447   0.72178
 Alpha virt. eigenvalues --    0.73984   0.77740   0.80240   0.83485   0.84016

 Mulliken charges:
               1
     1  O   -0.578101
     2  H    0.301557
     3  H    0.225463
     4  O   -0.433929
     5  H    0.242085
     6  H    0.242926
 Sum of Mulliken charges =  -0.00000

 Dipole moment (field-independent basis, Debye):
    X=             -2.3798    Y=             -3.7801    Z=             -0.0000  Tot=              4.4668
 Quadrupole moment (field-independent basis, Debye-Ang):
   XX=             -9.8373   YY=             -9.1291   ZZ=            -14.6843
   XY=             -2.8533   XZ=             -0.0000   YZ=             -0.0000

 Normal termination of Gaussian 16 at Fri Aug 26 19:49:20 2022.
