 Gaussian 16, Revision A.03,
 Gaussian 16:  ES64L-G16RevA.03 25-Dec-2016

 ------------------
 #p CCSD(T)/cc-pVTZ
 ------------------

 ------------
 H2O_H2O_2700
 ------------
 Symbolic Z-matrix:
 Charge =  0 Multiplicity = 1

                         Standard orientation:
 ---------------------------------------------------------------------
 Center     Atomic      Atomic             Coordinates (Angstroms)
 Number     Number       Type             X           Y           Z
 ---------------------------------------------------------------------
      1          8           0        0.092949   -2.163840    0.000000
      2          1           0        0.092949   -1.181239    0.000000
      3          1           0       -0.836544   -2.482507    0.000000
      4          8           0        0.092949    2.031053    0.000000
      5          1           0        0.092949    3.013655    0.000000
      6          1           0       -0.836544    1.712387    0.000000
 ---------------------------------------------------------------------

 SCF Done:  E(RHF) =  -152.108244735     A.U. after   10 cycles
 E2 =    -0.5262015836D+00 EUMP2 =    -0.15263444631868D+03
 CCSD(T)
 CCSD(T)= -0.15266161920D+03

 The electronic state is 1-A'.
 Alpha  occ. eigenvalues --  -20.56803 -20.55093  -1.34096  -1.32394  -0.71547
 Alpha  occ. eigenvalues --   -0.69761  -0.57566  -0.55840  -0.51201  -0.49506
 Alpha virt. eigenvalues --    0.11433   0.15722   0.19651   0.23788   0.53980
 Alpha virt. eigenvalues --    0.55271   0.56469   0.57987   0.68380   0.69724
 Alpha virt. eigenvalues --    0.77591   0.78536   0.79407   0.80593   0.82942

 Mulliken charges:
               1
     1  O   -0.511369
     2  H    0.261339
     3  H    0.248140
     4  O   -0.505976
     5  H    0.259568
     6  H    0.248297
 Sum of Mulliken charges =  -0.00000

 Dipole moment (field-independent basis, Debye):
    X=             -3.1572    Y=              2.4022    Z=              0.0000  Tot=              3.9672
 Quadrupole moment (field-independent basis, Debye-Ang):
   XX=            -10.8641   YY=             -9.1972   ZZ=            -14.7129
   XY=              2.1465   XZ=              0.0000   YZ=              0.0000

 Normal termination of Gaussian 16 at Fri Aug 26 16:39:58 2022.
