 Gaussian 16, Revision A.03,
 Gaussian 16:  ES64L-G16RevA.03 25-Dec-2016

 ------------------
 #p CCSD(T)/cc-pVTZ
 ------------------

 ------------
 H2O_H2O_2134
 ------------
 Symbolic Z-matrix:
 Charge =  0 Multiplicity = 1

                         Standard orientation:
 ---------------------------------------------------------------------
 Center     Atomic      Atomic             Coordinates (Angstroms)
 Number     Number       Type             X           Y           Z
 ---------------------------------------------------------------------
      1          8           0        0.066779    1.956373   -0.000000
      2          1           0        0.065590    0.973772   -0.000000
      3          1           0       -0.862328    2.276163   -0.000000
      4          8           0        0.066779   -1.783297    0.000000
      5          1           0        0.611694   -2.600960    0.000000
      6          1           0       -0.883412   -2.033585    0.000000
 ---------------------------------------------------------------------

 SCF Done:  E(RHF) =  -152.111245280     A.U. after   10 cycles
 E2 =    -0.5263800309D+00 EUMP2 =    -0.15263762531059D+03
 CCSD(T)
 CCSD(T)= -0.15266471218D+03

 The electronic state is 1-A'.
 Alpha  occ. eigenvalues --  -20.57233 -20.53999  -1.34493  -1.31341  -0.71900
 Alpha  occ. eigenvalues --   -0.68735  -0.58113  -0.54799  -0.51623  -0.48481
 Alpha virt. eigenvalues --    0.12076   0.16624   0.19351   0.25413   0.52013
 Alpha virt. eigenvalues --    0.55660   0.56052   0.58646   0.68905   0.72111
 Alpha virt. eigenvalues --    0.76624   0.78318   0.80440   0.83463   0.83737

 Mulliken charges:
               1
     1  O   -0.523729
     2  H    0.267794
     3  H    0.247038
     4  O   -0.506551
     5  H    0.260717
     6  H    0.254730
 Sum of Mulliken charges =  -0.00000

 Dipole moment (field-independent basis, Debye):
    X=             -2.2598    Y=             -3.2275    Z=              0.0000  Tot=              3.9400
 Quadrupole moment (field-independent basis, Debye-Ang):
   XX=             -9.5743   YY=             -7.9381   ZZ=            -14.7244
   XY=             -3.5710   XZ=              0.0000   YZ=             -0.0000

 Normal termination of Gaussian 16 at Sun Aug 28 04:36:59 2022.
