 Gaussian 16, Revision A.03,
 Gaussian 16:  ES64L-G16RevA.03 25-Dec-2016

 ------------------
 #p CCSD(T)/cc-pVTZ
 ------------------

 ------------
 H2O_H2O_3443
 ------------
 Symbolic Z-matrix:
 Charge =  0 Multiplicity = 1

                         Standard orientation:
 ---------------------------------------------------------------------
 Center     Atomic      Atomic             Coordinates (Angstroms)
 Number     Number       Type             X           Y           Z
 ---------------------------------------------------------------------
      1          8           0        0.033780    2.477336    0.000000
      2          1           0        0.031678    1.494737    0.000000
      3          1           0       -0.895029    2.797990    0.000000
      4          8           0        0.033780   -2.299805   -0.000000
      5          1           0        0.940779   -2.677771   -0.000000
      6          1           0       -0.617906   -3.035203   -0.000000
 ---------------------------------------------------------------------

 SCF Done:  E(RHF) =  -152.109342675     A.U. after   10 cycles
 E2 =    -0.5258544105D+00 EUMP2 =    -0.15263519708600D+03
 CCSD(T)
 CCSD(T)= -0.15266236068D+03

 The electronic state is 1-A'.
 Alpha  occ. eigenvalues --  -20.56457 -20.54647  -1.33746  -1.31962  -0.71148
 Alpha  occ. eigenvalues --   -0.69363  -0.57272  -0.55448  -0.50872  -0.49095
 Alpha virt. eigenvalues --    0.12712   0.15590   0.19502   0.21959   0.53368
 Alpha virt. eigenvalues --    0.55212   0.56503   0.58048   0.67122   0.69333
 Alpha virt. eigenvalues --    0.78031   0.78890   0.79741   0.79780   0.83057

 Mulliken charges:
               1
     1  O   -0.517570
     2  H    0.262837
     3  H    0.253306
     4  O   -0.515955
     5  H    0.259311
     6  H    0.258071
 Sum of Mulliken charges =  -0.00000

 Dipole moment (field-independent basis, Debye):
    X=             -1.1549    Y=             -3.1627    Z=             -0.0000  Tot=              3.3670
 Quadrupole moment (field-independent basis, Debye-Ang):
   XX=             -9.1860   YY=             -7.0160   ZZ=            -14.7181
   XY=             -5.5858   XZ=             -0.0000   YZ=             -0.0000

 CCSD(T)=-152.6623607\RMSD=6.966e-09\PG=CS [SG(H4O2)]\\@
 Normal termination of Gaussian 16 at Fri Aug 26 21:43:40 2022.
