 Gaussian 16, Revision A.03,
 Gaussian 16:  ES64L-G16RevA.03 25-Dec-2016

 ------------------
 #p CCSD(T)/cc-pVTZ
 ------------------

 ------------
 H2O_H2O_1166
 ------------
 Symbolic Z-matrix:
 Charge =  0 Multiplicity = 1

                         Standard orientation:
 ---------------------------------------------------------------------
 Center     Atomic      Atomic             Coordinates (Angstroms)
 Number     Number       Type             X           Y           Z
 ---------------------------------------------------------------------
      1          8           0        0.041235    1.571149    0.000000
      2          1           0        0.038266    0.588552    0.000000
      3          1           0       -0.887291    1.892622    0.000000
      4          8           0        0.041235   -1.391311   -0.000000
      5          1           0        0.890705   -1.885180   -0.000000
      6          1           0       -0.701433   -2.034701   -0.000000
 ---------------------------------------------------------------------

 SCF Done:  E(RHF) =  -152.114162948     A.U. after   10 cycles
 E2 =    -0.5280015409D+00 EUMP2 =    -0.15264216448865D+03
 CCSD(T)
 CCSD(T)= -0.15266907326D+03

 The electronic state is 1-A'.
 Alpha  occ. eigenvalues --  -20.58504 -20.52077  -1.35899  -1.29666  -0.73163
 Alpha  occ. eigenvalues --   -0.67915  -0.59604  -0.52995  -0.52814  -0.46799
 Alpha virt. eigenvalues --    0.11948   0.18105   0.18802   0.31093   0.48997
 Alpha virt. eigenvalues --    0.54722   0.56066   0.60911   0.68804   0.71723
 Alpha virt. eigenvalues --    0.73132   0.77237   0.82256   0.82648   0.84915

 Mulliken charges:
               1
     1  O   -0.559066
     2  H    0.290310
     3  H    0.243802
     4  O   -0.499699
     5  H    0.266432
     6  H    0.258221
 Sum of Mulliken charges =  -0.00000

 Dipole moment (field-independent basis, Debye):
    X=             -1.3702    Y=             -3.6863    Z=             -0.0000  Tot=              3.9327
 Quadrupole moment (field-independent basis, Debye-Ang):
   XX=             -9.1477   YY=             -8.5910   ZZ=            -14.7322
   XY=             -3.6003   XZ=             -0.0000   YZ=              0.0000

 Normal termination of Gaussian 16 at Fri Aug 26 22:51:40 2022.
