 Gaussian 16, Revision A.03,
 Gaussian 16:  ES64L-G16RevA.03 25-Dec-2016

 ------------------
 #p CCSD(T)/cc-pVTZ
 ------------------

 ------------
 H2O_H2O_4595
 ------------
 Symbolic Z-matrix:
 Charge =  0 Multiplicity = 1

                         Standard orientation:
 ---------------------------------------------------------------------
 Center     Atomic      Atomic             Coordinates (Angstroms)
 Number     Number       Type             X           Y           Z
 ---------------------------------------------------------------------
      1          8           0        0.026612    2.933720    0.000000
      2          1           0        0.024636    1.951121    0.000000
      3          1           0       -0.902238    3.254256    0.000000
      4          8           0        0.026612   -2.760468   -0.000000
      5          1           0        0.975219   -3.016691   -0.000000
      6          1           0       -0.523407   -3.574707   -0.000000
 ---------------------------------------------------------------------

 SCF Done:  E(RHF) =  -152.108431590     A.U. after   10 cycles
 E2 =    -0.5257989210D+00 EUMP2 =    -0.15263423051092D+03
 CCSD(T)
 CCSD(T)= -0.15266142838D+03

 The electronic state is 1-A'.
 Alpha  occ. eigenvalues --  -20.56164 -20.55006  -1.33466  -1.32313  -0.70871
 Alpha  occ. eigenvalues --   -0.69718  -0.56960  -0.55786  -0.50586  -0.49437
 Alpha virt. eigenvalues --    0.13371   0.14887   0.19628   0.21072   0.53593
 Alpha virt. eigenvalues --    0.54865   0.56685   0.57785   0.66886   0.68658
 Alpha virt. eigenvalues --    0.78299   0.79420   0.79585   0.80473   0.82505

 Mulliken charges:
               1
     1  O   -0.514224
     2  H    0.259853
     3  H    0.254276
     4  O   -0.514801
     5  H    0.257483
     6  H    0.257412
 Sum of Mulliken charges =  -0.00000

 Dipole moment (field-independent basis, Debye):
    X=             -0.9136    Y=             -3.0381    Z=             -0.0000  Tot=              3.1725
 Quadrupole moment (field-independent basis, Debye-Ang):
   XX=             -9.2894   YY=             -6.5713   ZZ=            -14.7148
   XY=             -6.9817   XZ=             -0.0000   YZ=              0.0000

 Normal termination of Gaussian 16 at Sun Aug 28 04:12:45 2022.
