 Gaussian 16, Revision A.03,
 Gaussian 16:  ES64L-G16RevA.03 25-Dec-2016

 ------------------
 #p CCSD(T)/cc-pVTZ
 ------------------

 -----------
 H2O_H2O_114
 -----------
 Symbolic Z-matrix:
 Charge =  0 Multiplicity = 1

                         Standard orientation:
 ---------------------------------------------------------------------
 Center     Atomic      Atomic             Coordinates (Angstroms)
 Number     Number       Type             X           Y           Z
 ---------------------------------------------------------------------
      1          8           0        0.048755    1.152530    0.000000
      2          1           0        0.045211    0.169935    0.000000
      3          1           0       -0.879582    1.474547    0.000000
      4          8           0        0.048755   -0.972328    0.000000
      5          1           0        0.826143   -1.573305    0.000000
      6          1           0       -0.771855   -1.512795    0.000000
 ---------------------------------------------------------------------

 SCF Done:  E(RHF) =  -152.052992464     A.U. after   11 cycles
 E2 =    -0.5352775352D+00 EUMP2 =    -0.15258826999902D+03
 CCSD(T)
 CCSD(T)= -0.15261392014D+03

 The electronic state is 1-A'.
 Alpha  occ. eigenvalues --  -20.61862 -20.44646  -1.42976  -1.24726  -0.78070
 Alpha  occ. eigenvalues --   -0.77656  -0.58196  -0.55052  -0.44923  -0.41265
 Alpha virt. eigenvalues --    0.10439   0.16535   0.21056   0.33040   0.47020
 Alpha virt. eigenvalues --    0.52134   0.63266   0.64462   0.70768   0.70976
 Alpha virt. eigenvalues --    0.79049   0.79780   0.81213   0.82175   0.87081

 Mulliken charges:
               1
     1  O   -0.665471
     2  H    0.294228
     3  H    0.204659
     4  O   -0.329067
     5  H    0.252531
     6  H    0.243120
 Sum of Mulliken charges =  -0.00000

 Dipole moment (field-independent basis, Debye):
    X=             -1.4813    Y=             -4.9920    Z=              0.0000  Tot=              5.2071
 Quadrupole moment (field-independent basis, Debye-Ang):
   XX=             -9.1331   YY=            -10.1455   ZZ=            -14.5746
   XY=             -2.7088   XZ=              0.0000   YZ=              0.0000

 602751\MP4DQ=-152.5945\MP4SDQ=-152.5978212\CCSD=-152.5970899\CCSD(T)=-
 Normal termination of Gaussian 16 at Fri Aug 26 15:57:08 2022.
