 Gaussian 16, Revision A.03,
 Gaussian 16:  ES64L-G16RevA.03 25-Dec-2016

 ------------------
 #p CCSD(T)/cc-pVTZ
 ------------------

 -----------
 H2O_H2O_510
 -----------
 Symbolic Z-matrix:
 Charge =  0 Multiplicity = 1

                         Standard orientation:
 ---------------------------------------------------------------------
 Center     Atomic      Atomic             Coordinates (Angstroms)
 Number     Number       Type             X           Y           Z
 ---------------------------------------------------------------------
      1          8           0        0.063321    1.309457    0.000000
      2          1           0        0.061257    0.326858    0.000000
      3          1           0       -0.865501    1.630075    0.000000
      4          8           0        0.063321   -1.134072   -0.000000
      5          1           0        0.659852   -1.914877   -0.000000
      6          1           0       -0.868744   -1.445138   -0.000000
 ---------------------------------------------------------------------

 SCF Done:  E(RHF) =  -152.099485913     A.U. after   11 cycles
 E2 =    -0.5319523644D+00 EUMP2 =    -0.15263143827754D+03
 CCSD(T)
 CCSD(T)= -0.15265782650D+03

 The electronic state is 1-A'.
 Alpha  occ. eigenvalues --  -20.60196 -20.49151  -1.38680  -1.27561  -0.75706
 Alpha  occ. eigenvalues --   -0.70774  -0.58533  -0.55280  -0.49753  -0.44501
 Alpha virt. eigenvalues --    0.11196   0.17125   0.20099   0.33257   0.47984
 Alpha virt. eigenvalues --    0.53476   0.60742   0.62626   0.71581   0.72211
 Alpha virt. eigenvalues --    0.73886   0.78570   0.80295   0.83394   0.84104

 Mulliken charges:
               1
     1  O   -0.604121
     2  H    0.309161
     3  H    0.221651
     4  O   -0.422849
     5  H    0.249664
     6  H    0.246494
 Sum of Mulliken charges =  -0.00000

 Dipole moment (field-independent basis, Debye):
    X=             -2.0194    Y=             -4.1796    Z=             -0.0000  Tot=              4.6419
 Quadrupole moment (field-independent basis, Debye-Ang):
   XX=             -9.4558   YY=             -9.3832   ZZ=            -14.6678
   XY=             -2.9352   XZ=             -0.0000   YZ=             -0.0000

 Normal termination of Gaussian 16 at Fri Aug 26 18:44:30 2022.
