 Gaussian 16, Revision A.03,
 Gaussian 16:  ES64L-G16RevA.03 25-Dec-2016

 ------------------
 #p CCSD(T)/cc-pVTZ
 ------------------

 ------------
 H2O_H2O_1848
 ------------
 Symbolic Z-matrix:
 Charge =  0 Multiplicity = 1

                         Standard orientation:
 ---------------------------------------------------------------------
 Center     Atomic      Atomic             Coordinates (Angstroms)
 Number     Number       Type             X           Y           Z
 ---------------------------------------------------------------------
      1          8           0       -0.016696    1.831444    0.000000
      2          1           0       -0.012995    0.848849    0.000000
      3          1           0        0.911590    2.153609    0.000000
      4          8           0       -0.016696   -1.668082    0.000000
      5          1           0       -0.996944   -1.736040    0.000000
      6          1           0        0.365493   -2.573310    0.000000
 ---------------------------------------------------------------------

 SCF Done:  E(RHF) =  -152.112382616     A.U. after   10 cycles
 E2 =    -0.5265519026D+00 EUMP2 =    -0.15263893451810D+03
 CCSD(T)
 CCSD(T)= -0.15266599377D+03

 The electronic state is 1-A'.
 Alpha  occ. eigenvalues --  -20.57452 -20.53800  -1.34734  -1.31170  -0.72171
 Alpha  occ. eigenvalues --   -0.68614  -0.58445  -0.54608  -0.51862  -0.48326
 Alpha virt. eigenvalues --    0.12190   0.17096   0.19214   0.27028   0.52174
 Alpha virt. eigenvalues --    0.54425   0.55925   0.59457   0.68851   0.73439
 Alpha virt. eigenvalues --    0.75622   0.78148   0.80715   0.83258   0.84174

 Mulliken charges:
               1
     1  O   -0.533880
     2  H    0.268646
     3  H    0.253751
     4  O   -0.507947
     5  H    0.261750
     6  H    0.257680
 Sum of Mulliken charges =  -0.00000

 Dipole moment (field-independent basis, Debye):
    X=              0.5722    Y=             -3.1015    Z=              0.0000  Tot=              3.1538
 Quadrupole moment (field-independent basis, Debye-Ang):
   XX=             -9.5449   YY=             -8.3149   ZZ=            -14.7285
   XY=              4.8008   XZ=              0.0000   YZ=              0.0000

 Normal termination of Gaussian 16 at Sun Aug 28 02:10:40 2022.
