 Gaussian 16, Revision A.03,
 Gaussian 16:  ES64L-G16RevA.03 25-Dec-2016

 ------------------
 #p CCSD(T)/cc-pVTZ
 ------------------

 ------------
 H2O_H2O_3949
 ------------
 Symbolic Z-matrix:
 Charge =  0 Multiplicity = 1

                         Standard orientation:
 ---------------------------------------------------------------------
 Center     Atomic      Atomic             Coordinates (Angstroms)
 Number     Number       Type             X           Y           Z
 ---------------------------------------------------------------------
      1          8           0       -0.013489    2.666859    0.000000
      2          1           0       -0.010884    1.684261    0.000000
      3          1           0        0.915156    2.987989    0.000000
      4          8           0       -0.013489   -2.507588    0.000000
      5          1           0       -0.996087   -2.510193    0.000000
      6          1           0        0.307641   -3.436233    0.000000
 ---------------------------------------------------------------------

 SCF Done:  E(RHF) =  -152.108724392     A.U. after   10 cycles
 E2 =    -0.5258132626D+00 EUMP2 =    -0.15263453765460D+03
 CCSD(T)
 CCSD(T)= -0.15266172494D+03

 The electronic state is 1-A'.
 Alpha  occ. eigenvalues --  -20.56294 -20.54979  -1.33595  -1.32289  -0.71002
 Alpha  occ. eigenvalues --   -0.69696  -0.57097  -0.55767  -0.50715  -0.49416
 Alpha virt. eigenvalues --    0.12775   0.15195   0.19222   0.21831   0.53206
 Alpha virt. eigenvalues --    0.55161   0.56615   0.57844   0.66691   0.68990
 Alpha virt. eigenvalues --    0.78177   0.79025   0.79436   0.80847   0.82727

 Mulliken charges:
               1
     1  O   -0.515566
     2  H    0.260095
     3  H    0.255058
     4  O   -0.515689
     5  H    0.257313
     6  H    0.258788
 Sum of Mulliken charges =  -0.00000

 Dipole moment (field-independent basis, Debye):
    X=              0.4645    Y=             -2.8103    Z=              0.0000  Tot=              2.8484
 Quadrupole moment (field-independent basis, Debye-Ang):
   XX=             -9.6479   YY=             -7.6623   ZZ=            -14.7157
   XY=              7.2212   XZ=              0.0000   YZ=              0.0000

 Normal termination of Gaussian 16 at Sat Aug 27 00:38:14 2022.
