 Gaussian 16, Revision A.03,
 Gaussian 16:  ES64L-G16RevA.03 25-Dec-2016

 ------------------
 #p CCSD(T)/cc-pVTZ
 ------------------

 -----------
 H2O_H2O_454
 -----------
 Symbolic Z-matrix:
 Charge =  0 Multiplicity = 1

                         Standard orientation:
 ---------------------------------------------------------------------
 Center     Atomic      Atomic             Coordinates (Angstroms)
 Number     Number       Type             X           Y           Z
 ---------------------------------------------------------------------
      1          8           0        0.082830   -1.278142    0.000000
      2          1           0        0.082113   -0.295541    0.000000
      3          1           0       -0.846430   -1.597486    0.000000
      4          8           0        0.082830    1.123681    0.000000
      5          1           0        0.336454    2.072987    0.000000
      6          1           0       -0.897419    1.055728    0.000000
 ---------------------------------------------------------------------

 SCF Done:  E(RHF) =  -152.090797745     A.U. after   11 cycles
 E2 =    -0.5333457597D+00 EUMP2 =    -0.15262414350487D+03
 CCSD(T)
 CCSD(T)= -0.15265051599D+03

 The electronic state is 1-A'.
 Alpha  occ. eigenvalues --  -20.60262 -20.49984  -1.39193  -1.28307  -0.77662
 Alpha  occ. eigenvalues --   -0.69372  -0.58819  -0.55460  -0.50665  -0.45242
 Alpha virt. eigenvalues --    0.11102   0.16498   0.20732   0.32696   0.48707
 Alpha virt. eigenvalues --    0.52496   0.59248   0.64521   0.71811   0.72150
 Alpha virt. eigenvalues --    0.74199   0.77985   0.78881   0.83509   0.84441

 Mulliken charges:
               1
     1  O   -0.584313
     2  H    0.291383
     3  H    0.213873
     4  O   -0.386082
     5  H    0.231121
     6  H    0.234018
 Sum of Mulliken charges =  -0.00000

 Dipole moment (field-independent basis, Debye):
    X=             -2.6394    Y=              3.7771    Z=              0.0000  Tot=              4.6079
 Quadrupole moment (field-independent basis, Debye-Ang):
   XX=            -10.2686   YY=             -9.4104   ZZ=            -14.6356
   XY=              2.5032   XZ=              0.0000   YZ=              0.0000

 Normal termination of Gaussian 16 at Fri Aug 26 18:22:32 2022.
