 Gaussian 16, Revision A.03,
 Gaussian 16:  ES64L-G16RevA.03 25-Dec-2016

 ------------------
 #p CCSD(T)/cc-pVTZ
 ------------------

 ------------
 H2O_H2O_4161
 ------------
 Symbolic Z-matrix:
 Charge =  0 Multiplicity = 1

                         Standard orientation:
 ---------------------------------------------------------------------
 Center     Atomic      Atomic             Coordinates (Angstroms)
 Number     Number       Type             X           Y           Z
 ---------------------------------------------------------------------
      1          8           0        0.059623    2.766483   -0.000000
      2          1           0        0.058567    1.783882   -0.000000
      3          1           0       -0.869527    3.086148   -0.000000
      4          8           0        0.059623   -2.589015    0.000000
      5          1           0        0.706705   -3.328470    0.000000
      6          1           0       -0.849719   -2.961309    0.000000
 ---------------------------------------------------------------------

 SCF Done:  E(RHF) =  -152.108497521     A.U. after   10 cycles
 E2 =    -0.5258268187D+00 EUMP2 =    -0.15263432433990D+03
 CCSD(T)
 CCSD(T)= -0.15266151669D+03

 The electronic state is 1-A'.
 Alpha  occ. eigenvalues --  -20.56258 -20.54893  -1.33557  -1.32201  -0.70963
 Alpha  occ. eigenvalues --   -0.69599  -0.57053  -0.55672  -0.50676  -0.49324
 Alpha virt. eigenvalues --    0.13137   0.15076   0.19618   0.21214   0.53533
 Alpha virt. eigenvalues --    0.54903   0.56595   0.57818   0.66703   0.68970
 Alpha virt. eigenvalues --    0.78216   0.79364   0.79529   0.80048   0.82794

 Mulliken charges:
               1
     1  O   -0.513884
     2  H    0.261032
     3  H    0.252547
     4  O   -0.514645
     5  H    0.259010
     6  H    0.255941
 Sum of Mulliken charges =  -0.00000

 Dipole moment (field-independent basis, Debye):
    X=             -2.0426    Y=             -3.1263    Z=              0.0000  Tot=              3.7344
 Quadrupole moment (field-independent basis, Debye-Ang):
   XX=             -9.3620   YY=             -6.5941   ZZ=            -14.7151
   XY=             -4.7403   XZ=              0.0000   YZ=             -0.0000

 Normal termination of Gaussian 16 at Sun Aug 28 00:21:01 2022.
