 Gaussian 16, Revision A.03,
 Gaussian 16:  ES64L-G16RevA.03 25-Dec-2016

 ------------------
 #p CCSD(T)/cc-pVTZ
 ------------------

 ------------
 H2O_H2O_2470
 ------------
 Symbolic Z-matrix:
 Charge =  0 Multiplicity = 1

                         Standard orientation:
 ---------------------------------------------------------------------
 Center     Atomic      Atomic             Coordinates (Angstroms)
 Number     Number       Type             X           Y           Z
 ---------------------------------------------------------------------
      1          8           0        0.026686    2.086086   -0.000000
      2          1           0        0.023872    1.103488   -0.000000
      3          1           0       -0.901891    2.407413   -0.000000
      4          8           0        0.026686   -1.912878    0.000000
      5          1           0        0.975074   -2.169911    0.000000
      6          1           0       -0.524025   -2.726649    0.000000
 ---------------------------------------------------------------------

 SCF Done:  E(RHF) =  -152.111024251     A.U. after   10 cycles
 E2 =    -0.5260885135D+00 EUMP2 =    -0.15263711276441D+03
 CCSD(T)
 CCSD(T)= -0.15266421805D+03

 The electronic state is 1-A'.
 Alpha  occ. eigenvalues --  -20.56946 -20.54188  -1.34213  -1.31521  -0.71613
 Alpha  occ. eigenvalues --   -0.68928  -0.57814  -0.55010  -0.51348  -0.48668
 Alpha virt. eigenvalues --    0.12307   0.16473   0.19276   0.24360   0.53191
 Alpha virt. eigenvalues --    0.55473   0.56384   0.58667   0.68963   0.70845
 Alpha virt. eigenvalues --    0.77324   0.78913   0.80186   0.81293   0.83707

 Mulliken charges:
               1
     1  O   -0.524952
     2  H    0.266072
     3  H    0.252836
     4  O   -0.512033
     5  H    0.260278
     6  H    0.257799
 Sum of Mulliken charges =  -0.00000

 Dipole moment (field-independent basis, Debye):
    X=             -0.9092    Y=             -3.1775    Z=              0.0000  Tot=              3.3050
 Quadrupole moment (field-independent basis, Debye-Ang):
   XX=             -9.2886   YY=             -7.7350   ZZ=            -14.7235
   XY=             -5.0407   XZ=              0.0000   YZ=             -0.0000

 Normal termination of Gaussian 16 at Sun Aug 28 07:34:44 2022.
