 Gaussian 16, Revision A.03,
 Gaussian 16:  ES64L-G16RevA.03 25-Dec-2016

 ------------------
 #p CCSD(T)/cc-pVTZ
 ------------------

 ------------
 H2O_H2O_4936
 ------------
 Symbolic Z-matrix:
 Charge =  0 Multiplicity = 1

                         Standard orientation:
 ---------------------------------------------------------------------
 Center     Atomic      Atomic             Coordinates (Angstroms)
 Number     Number       Type             X           Y           Z
 ---------------------------------------------------------------------
      1          8           0        0.059614    3.075620    0.000000
      2          1           0        0.058667    2.093019    0.000000
      3          1           0       -0.869572    3.395181   -0.000000
      4          8           0        0.059614   -2.898138    0.000000
      5          1           0        0.706776   -3.637521    0.000000
      6          1           0       -0.849687   -3.270533   -0.000000
 ---------------------------------------------------------------------

 SCF Done:  E(RHF) =  -152.108148496     A.U. after   10 cycles
 E2 =    -0.5258169028D+00 EUMP2 =    -0.15263396539864D+03
 CCSD(T)
 CCSD(T)= -0.15266116988D+03

 The electronic state is 1-A'.
 Alpha  occ. eigenvalues --  -20.56120 -20.55055  -1.33422  -1.32361  -0.70828
 Alpha  occ. eigenvalues --   -0.69762  -0.56904  -0.55826  -0.50539  -0.49481
 Alpha virt. eigenvalues --    0.13511   0.14742   0.19711   0.20883   0.53705
 Alpha virt. eigenvalues --    0.54792   0.56706   0.57742   0.67071   0.68495
 Alpha virt. eigenvalues --    0.78345   0.79381   0.79732   0.80551   0.82179

 Mulliken charges:
               1
     1  O   -0.512567
     2  H    0.259390
     3  H    0.253142
     4  O   -0.513288
     5  H    0.257833
     6  H    0.255490
 Sum of Mulliken charges =  -0.00000

 Dipole moment (field-independent basis, Debye):
    X=             -2.0464    Y=             -3.1055    Z=              0.0000  Tot=              3.7191
 Quadrupole moment (field-independent basis, Debye-Ang):
   XX=             -9.3614   YY=             -6.1196   ZZ=            -14.7139
   XY=             -5.0979   XZ=              0.0000   YZ=              0.0000

 0636\MP4DQ=-152.6430899\MP4SDQ=-152.6461385\CCSD=-152.6455537\CCSD(T)=
 Normal termination of Gaussian 16 at Sun Aug 28 07:06:39 2022.
