 Gaussian 16, Revision A.03,
 Gaussian 16:  ES64L-G16RevA.03 25-Dec-2016

 ------------------
 #p CCSD(T)/cc-pVTZ
 ------------------

 ------------
 H2O_H2O_4200
 ------------
 Symbolic Z-matrix:
 Charge =  0 Multiplicity = 1

                         Standard orientation:
 ---------------------------------------------------------------------
 Center     Atomic      Atomic             Coordinates (Angstroms)
 Number     Number       Type             X           Y           Z
 ---------------------------------------------------------------------
      1          8           0        0.092949   -2.762156    0.000000
      2          1           0        0.092949   -1.779555    0.000000
      3          1           0       -0.836544   -3.080823    0.000000
      4          8           0        0.092949    2.629369    0.000000
      5          1           0        0.092949    3.611971    0.000000
      6          1           0       -0.836544    2.310702    0.000000
 ---------------------------------------------------------------------

 SCF Done:  E(RHF) =  -152.107655393     A.U. after   10 cycles
 E2 =    -0.5258929524D+00 EUMP2 =    -0.15263354834554D+03
 CCSD(T)
 CCSD(T)= -0.15266076089D+03

 The electronic state is 1-A'.
 Alpha  occ. eigenvalues --  -20.56271 -20.55325  -1.33572  -1.32626  -0.70989
 Alpha  occ. eigenvalues --   -0.70021  -0.57032  -0.56077  -0.50682  -0.49738
 Alpha virt. eigenvalues --    0.12407   0.14884   0.18820   0.22054   0.53139
 Alpha virt. eigenvalues --    0.54883   0.56514   0.57753   0.66819   0.68580
 Alpha virt. eigenvalues --    0.78213   0.79136   0.79464   0.81544   0.81886

 Mulliken charges:
               1
     1  O   -0.509427
     2  H    0.257504
     3  H    0.251799
     4  O   -0.510501
     5  H    0.258616
     6  H    0.252008
 Sum of Mulliken charges =  -0.00000

 Dipole moment (field-independent basis, Debye):
    X=             -3.1846    Y=              2.3358    Z=              0.0000  Tot=              3.9494
 Quadrupole moment (field-independent basis, Debye-Ang):
   XX=            -10.8466   YY=             -9.2767   ZZ=            -14.7118
   XY=              2.1558   XZ=              0.0000   YZ=              0.0000

 Normal termination of Gaussian 16 at Sun Aug 28 00:46:00 2022.
