 Gaussian 16, Revision A.03,
 Gaussian 16:  ES64L-G16RevA.03 25-Dec-2016

 ------------------
 #p CCSD(T)/cc-pVTZ
 ------------------

 ------------
 H2O_H2O_4436
 ------------
 Symbolic Z-matrix:
 Charge =  0 Multiplicity = 1

                         Standard orientation:
 ---------------------------------------------------------------------
 Center     Atomic      Atomic             Coordinates (Angstroms)
 Number     Number       Type             X           Y           Z
 ---------------------------------------------------------------------
      1          8           0        0.059620    2.876177    0.000000
      2          1           0        0.058605    1.893576    0.000000
      3          1           0       -0.869544    3.195803   -0.000000
      4          8           0        0.059620   -2.698704    0.000000
      5          1           0        0.706732   -3.438130    0.000000
      6          1           0       -0.849706   -3.071036   -0.000000
 ---------------------------------------------------------------------

 SCF Done:  E(RHF) =  -152.108347782     A.U. after   10 cycles
 E2 =    -0.5258196019D+00 EUMP2 =    -0.15263416738413D+03
 CCSD(T)
 CCSD(T)= -0.15266136537D+03

 The electronic state is 1-A'.
 Alpha  occ. eigenvalues --  -20.56201 -20.54958  -1.33502  -1.32265  -0.70908
 Alpha  occ. eigenvalues --   -0.69664  -0.56992  -0.55733  -0.50620  -0.49386
 Alpha virt. eigenvalues --    0.13297   0.14937   0.19652   0.21071   0.53600
 Alpha virt. eigenvalues --    0.54863   0.56640   0.57792   0.66811   0.68784
 Alpha virt. eigenvalues --    0.78268   0.79470   0.79547   0.80219   0.82680

 Mulliken charges:
               1
     1  O   -0.513354
     2  H    0.260413
     3  H    0.252790
     4  O   -0.514202
     5  H    0.258574
     6  H    0.255779
 Sum of Mulliken charges =  -0.00000

 Dipole moment (field-independent basis, Debye):
    X=             -2.0441    Y=             -3.1174    Z=             -0.0000  Tot=              3.7278
 Quadrupole moment (field-independent basis, Debye-Ang):
   XX=             -9.3617   YY=             -6.4269   ZZ=            -14.7146
   XY=             -4.8672   XZ=              0.0000   YZ=             -0.0000

 Normal termination of Gaussian 16 at Sun Aug 28 02:49:55 2022.
