 Gaussian 16, Revision A.03,
 Gaussian 16:  ES64L-G16RevA.03 25-Dec-2016

 ------------------
 #p CCSD(T)/cc-pVTZ
 ------------------

 ------------
 H2O_H2O_1290
 ------------
 Symbolic Z-matrix:
 Charge =  0 Multiplicity = 1

                         Standard orientation:
 ---------------------------------------------------------------------
 Center     Atomic      Atomic             Coordinates (Angstroms)
 Number     Number       Type             X           Y           Z
 ---------------------------------------------------------------------
      1          8           0        0.044937    1.621269    0.000000
      2          1           0        0.042271    0.638672    0.000000
      3          1           0       -0.883688    1.942457    0.000000
      4          8           0        0.044937   -1.440948   -0.000000
      5          1           0        0.860456   -1.989067   -0.000000
      6          1           0       -0.738037   -2.034630   -0.000000
 ---------------------------------------------------------------------

 SCF Done:  E(RHF) =  -152.114226567     A.U. after   10 cycles
 E2 =    -0.5276372394D+00 EUMP2 =    -0.15264186380603D+03
 CCSD(T)
 CCSD(T)= -0.15266881291D+03

 The electronic state is 1-A'.
 Alpha  occ. eigenvalues --  -20.58286 -20.52430  -1.35624  -1.29952  -0.72919
 Alpha  occ. eigenvalues --   -0.67905  -0.59415  -0.53190  -0.52738  -0.47094
 Alpha virt. eigenvalues --    0.11989   0.17885   0.18888   0.30329   0.49303
 Alpha virt. eigenvalues --    0.54696   0.56032   0.60235   0.68965   0.71673
 Alpha virt. eigenvalues --    0.73526   0.77015   0.81979   0.82809   0.84960

 Mulliken charges:
               1
     1  O   -0.551414
     2  H    0.285341
     3  H    0.244351
     4  O   -0.503390
     5  H    0.266165
     6  H    0.258947
 Sum of Mulliken charges =  -0.00000

 Dipole moment (field-independent basis, Debye):
    X=             -1.4983    Y=             -3.6284    Z=             -0.0000  Tot=              3.9256
 Quadrupole moment (field-independent basis, Debye-Ang):
   XX=             -9.1594   YY=             -8.4627   ZZ=            -14.7346
   XY=             -3.6383   XZ=             -0.0000   YZ=              0.0000

 CCSD(T)=-152.6688129\RMSD=6.765e-09\PG=CS [SG(H4O2)]\\@
 Normal termination of Gaussian 16 at Fri Aug 26 23:38:13 2022.
