 Gaussian 16, Revision A.03,
 Gaussian 16:  ES64L-G16RevA.03 25-Dec-2016

 ------------------
 #p CCSD(T)/cc-pVTZ
 ------------------

 -----------
 H2O_H2O_563
 -----------
 Symbolic Z-matrix:
 Charge =  0 Multiplicity = 1

                         Standard orientation:
 ---------------------------------------------------------------------
 Center     Atomic      Atomic             Coordinates (Angstroms)
 Number     Number       Type             X           Y           Z
 ---------------------------------------------------------------------
      1          8           0        0.052413    1.331779    0.000000
      2          1           0        0.049635    0.349181    0.000000
      3          1           0       -0.876175    1.653072    0.000000
      4          8           0        0.052413   -1.152022    0.000000
      5          1           0        0.789337   -1.801982    0.000000
      6          1           0       -0.801409   -1.638327    0.000000
 ---------------------------------------------------------------------

 SCF Done:  E(RHF) =  -152.103163631     A.U. after   11 cycles
 E2 =    -0.5312856244D+00 EUMP2 =    -0.15263444925556D+03
 CCSD(T)
 CCSD(T)= -0.15266089657D+03

 The electronic state is 1-A'.
 Alpha  occ. eigenvalues --  -20.60040 -20.49217  -1.38320  -1.27564  -0.75048
 Alpha  occ. eigenvalues --   -0.70672  -0.58740  -0.55039  -0.49812  -0.44530
 Alpha virt. eigenvalues --    0.11313   0.17526   0.19792   0.33409   0.47602
 Alpha virt. eigenvalues --    0.53731   0.61112   0.62360   0.70593   0.72297
 Alpha virt. eigenvalues --    0.73344   0.78507   0.81316   0.82679   0.84182

 Mulliken charges:
               1
     1  O   -0.606643
     2  H    0.313907
     3  H    0.226779
     4  O   -0.443865
     5  H    0.258983
     6  H    0.250839
 Sum of Mulliken charges =  -0.00000

 Dipole moment (field-independent basis, Debye):
    X=             -1.6805    Y=             -4.2175    Z=             -0.0000  Tot=              4.5399
 Quadrupole moment (field-independent basis, Debye-Ang):
   XX=             -9.2133   YY=             -9.3393   ZZ=            -14.6825
   XY=             -3.0572   XZ=             -0.0000   YZ=             -0.0000

 Normal termination of Gaussian 16 at Fri Aug 26 19:05:41 2022.
