 Gaussian 16, Revision A.03,
 Gaussian 16:  ES64L-G16RevA.03 25-Dec-2016

 ------------------
 #p CCSD(T)/cc-pVTZ
 ------------------

 ------------
 H2O_H2O_1888
 ------------
 Symbolic Z-matrix:
 Charge =  0 Multiplicity = 1

                         Standard orientation:
 ---------------------------------------------------------------------
 Center     Atomic      Atomic             Coordinates (Angstroms)
 Number     Number       Type             X           Y           Z
 ---------------------------------------------------------------------
      1          8           0        0.052337    1.860334    0.000000
      2          1           0        0.050388    0.877734    0.000000
      3          1           0       -0.876522    2.180843   -0.000000
      4          8           0        0.052337   -1.680488    0.000000
      5          1           0        0.789810   -2.329827    0.000000
      6          1           0       -0.801074   -2.167515   -0.000000
 ---------------------------------------------------------------------

 SCF Done:  E(RHF) =  -152.112586723     A.U. after   10 cycles
 E2 =    -0.5265543072D+00 EUMP2 =    -0.15263914103007D+03
 CCSD(T)
 CCSD(T)= -0.15266619388D+03

 The electronic state is 1-A'.
 Alpha  occ. eigenvalues --  -20.57479 -20.53554  -1.34731  -1.30925  -0.72109
 Alpha  occ. eigenvalues --   -0.68374  -0.58448  -0.54365  -0.51870  -0.48075
 Alpha virt. eigenvalues --    0.12154   0.17080   0.19152   0.26788   0.51131
 Alpha virt. eigenvalues --    0.55017   0.56349   0.59004   0.69057   0.72399
 Alpha virt. eigenvalues --    0.75860   0.77309   0.80875   0.83344   0.84376

 Mulliken charges:
               1
     1  O   -0.530774
     2  H    0.270688
     3  H    0.247495
     4  O   -0.507183
     5  H    0.262724
     6  H    0.257049
 Sum of Mulliken charges =  -0.00000

 Dipole moment (field-independent basis, Debye):
    X=             -1.7662    Y=             -3.4103    Z=             -0.0000  Tot=              3.8406
 Quadrupole moment (field-independent basis, Debye-Ang):
   XX=             -9.2324   YY=             -7.9609   ZZ=            -14.7302
   XY=             -3.8739   XZ=             -0.0000   YZ=             -0.0000

 Normal termination of Gaussian 16 at Sun Aug 28 02:26:44 2022.
