 Gaussian 16, Revision A.03,
 Gaussian 16:  ES64L-G16RevA.03 25-Dec-2016

 ------------------
 #p CCSD(T)/cc-pVTZ
 ------------------

 -----------
 H2O_H2O_857
 -----------
 Symbolic Z-matrix:
 Charge =  0 Multiplicity = 1

                         Standard orientation:
 ---------------------------------------------------------------------
 Center     Atomic      Atomic             Coordinates (Angstroms)
 Number     Number       Type             X           Y           Z
 ---------------------------------------------------------------------
      1          8           0        0.073577    1.444434   -0.000000
      2          1           0        0.072366    0.461834   -0.000000
      3          1           0       -0.855523    1.764246   -0.000000
      4          8           0        0.073577   -1.277565    0.000000
      5          1           0        0.507085   -2.159368    0.000000
      6          1           0       -0.901157   -1.401665    0.000000
 ---------------------------------------------------------------------

 SCF Done:  E(RHF) =  -152.109399991     A.U. after   10 cycles
 E2 =    -0.5297229900D+00 EUMP2 =    -0.15263912298074D+03
 CCSD(T)
 CCSD(T)= -0.15266590576D+03

 The electronic state is 1-A'.
 Alpha  occ. eigenvalues --  -20.59130 -20.51640  -1.36847  -1.29402  -0.74389
 Alpha  occ. eigenvalues --   -0.68370  -0.59668  -0.53780  -0.52322  -0.46464
 Alpha virt. eigenvalues --    0.11520   0.17040   0.19835   0.32154   0.48160
 Alpha virt. eigenvalues --    0.54158   0.59120   0.60457   0.69794   0.72341
 Alpha virt. eigenvalues --    0.74159   0.77135   0.81038   0.82888   0.84080

 Mulliken charges:
               1
     1  O   -0.564728
     2  H    0.297723
     3  H    0.230573
     4  O   -0.453814
     5  H    0.244520
     6  H    0.245727
 Sum of Mulliken charges =   0.00000

 Dipole moment (field-independent basis, Debye):
    X=             -2.4049    Y=             -3.6176    Z=              0.0000  Tot=              4.3441
 Quadrupole moment (field-independent basis, Debye-Ang):
   XX=             -9.8427   YY=             -8.9425   ZZ=            -14.7027
   XY=             -2.9209   XZ=              0.0000   YZ=             -0.0000

 Normal termination of Gaussian 16 at Fri Aug 26 20:56:21 2022.
