 Gaussian 16, Revision A.03,
 Gaussian 16:  ES64L-G16RevA.03 25-Dec-2016

 ------------------
 #p CCSD(T)/cc-pVTZ
 ------------------

 ------------
 H2O_H2O_3669
 ------------
 Symbolic Z-matrix:
 Charge =  0 Multiplicity = 1

                         Standard orientation:
 ---------------------------------------------------------------------
 Center     Atomic      Atomic             Coordinates (Angstroms)
 Number     Number       Type             X           Y           Z
 ---------------------------------------------------------------------
      1          8           0        0.030171    2.566045    0.000000
      2          1           0        0.028021    1.583446    0.000000
      3          1           0       -0.898623    2.886744    0.000000
      4          8           0        0.030171   -2.390425    0.000000
      5          1           0        0.959933   -2.708307    0.000000
      6          1           0       -0.572060   -3.166844    0.000000
 ---------------------------------------------------------------------

 SCF Done:  E(RHF) =  -152.109091958     A.U. after   10 cycles
 E2 =    -0.5258308726D+00 EUMP2 =    -0.15263492283015D+03
 CCSD(T)
 CCSD(T)= -0.15266209630D+03

 The electronic state is 1-A'.
 Alpha  occ. eigenvalues --  -20.56379 -20.54746  -1.33673  -1.32059  -0.71076
 Alpha  occ. eigenvalues --   -0.69461  -0.57190  -0.55542  -0.50797  -0.49189
 Alpha virt. eigenvalues --    0.12825   0.15420   0.19507   0.21715   0.53380
 Alpha virt. eigenvalues --    0.55127   0.56552   0.57920   0.66824   0.69250
 Alpha virt. eigenvalues --    0.78102   0.78927   0.79652   0.80003   0.82963

 Mulliken charges:
               1
     1  O   -0.516729
     2  H    0.262082
     3  H    0.253736
     4  O   -0.516157
     5  H    0.258863
     6  H    0.258204
 Sum of Mulliken charges =  -0.00000

 Dipole moment (field-independent basis, Debye):
    X=             -1.0328    Y=             -3.1149    Z=              0.0000  Tot=              3.2817
 Quadrupole moment (field-independent basis, Debye-Ang):
   XX=             -9.2296   YY=             -6.9673   ZZ=            -14.7172
   XY=             -5.9519   XZ=             -0.0000   YZ=              0.0000

 Normal termination of Gaussian 16 at Fri Aug 26 22:59:46 2022.
