 Gaussian 16, Revision A.03,
 Gaussian 16:  ES64L-G16RevA.03 25-Dec-2016

 ------------------
 #p CCSD(T)/cc-pVTZ
 ------------------

 ------------
 H2O_H2O_3189
 ------------
 Symbolic Z-matrix:
 Charge =  0 Multiplicity = 1

                         Standard orientation:
 ---------------------------------------------------------------------
 Center     Atomic      Atomic             Coordinates (Angstroms)
 Number     Number       Type             X           Y           Z
 ---------------------------------------------------------------------
      1          8           0        0.048581    2.379168   -0.000000
      2          1           0        0.046936    1.396568   -0.000000
      3          1           0       -0.880377    2.699390   -0.000000
      4          8           0        0.048581   -2.198778    0.000000
      5          1           0        0.827129   -2.798252    0.000000
      6          1           0       -0.770982   -2.740830    0.000000
 ---------------------------------------------------------------------

 SCF Done:  E(RHF) =  -152.109589403     A.U. after   10 cycles
 E2 =    -0.5259038419D+00 EUMP2 =    -0.15263549324475D+03
 CCSD(T)
 CCSD(T)= -0.15266264536D+03

 The electronic state is 1-A'.
 Alpha  occ. eigenvalues --  -20.56565 -20.54521  -1.33848  -1.31839  -0.71249
 Alpha  occ. eigenvalues --   -0.69233  -0.57382  -0.55324  -0.50975  -0.48972
 Alpha virt. eigenvalues --    0.12595   0.15783   0.19500   0.22290   0.53280
 Alpha virt. eigenvalues --    0.55299   0.56400   0.58341   0.67700   0.69354
 Alpha virt. eigenvalues --    0.77929   0.79087   0.79317   0.79859   0.83169

 Mulliken charges:
               1
     1  O   -0.518006
     2  H    0.263858
     3  H    0.251895
     4  O   -0.514802
     5  H    0.260018
     6  H    0.257037
 Sum of Mulliken charges =  -0.00000

 Dipole moment (field-independent basis, Debye):
    X=             -1.6579    Y=             -3.2333    Z=              0.0000  Tot=              3.6336
 Quadrupole moment (field-independent basis, Debye-Ang):
   XX=             -9.1827   YY=             -7.0620   ZZ=            -14.7189
   XY=             -4.7637   XZ=              0.0000   YZ=             -0.0000

 CCSD(T)=-152.6626454\RMSD=6.917e-09\PG=CS [SG(H4O2)]\\@
 Normal termination of Gaussian 16 at Fri Aug 26 20:18:00 2022.
