 Gaussian 16, Revision A.03,
 Gaussian 16:  ES64L-G16RevA.03 25-Dec-2016

 ------------------
 #p CCSD(T)/cc-pVTZ
 ------------------

 ------------
 H2O_H2O_3257
 ------------
 Symbolic Z-matrix:
 Charge =  0 Multiplicity = 1

                         Standard orientation:
 ---------------------------------------------------------------------
 Center     Atomic      Atomic             Coordinates (Angstroms)
 Number     Number       Type             X           Y           Z
 ---------------------------------------------------------------------
      1          8           0        0.073534    2.401777   -0.000000
      2          1           0        0.072824    1.419176   -0.000000
      3          1           0       -0.855728    2.721115   -0.000000
      4          8           0        0.073534   -2.234833    0.000000
      5          1           0        0.507490   -3.116416    0.000000
      6          1           0       -0.901136   -2.359428    0.000000
 ---------------------------------------------------------------------

 SCF Done:  E(RHF) =  -152.108930242     A.U. after   10 cycles
 E2 =    -0.5259402249D+00 EUMP2 =    -0.15263487046675D+03
 CCSD(T)
 CCSD(T)= -0.15266203800D+03

 The electronic state is 1-A'.
 Alpha  occ. eigenvalues --  -20.56541 -20.54746  -1.33830  -1.32058  -0.71242
 Alpha  occ. eigenvalues --   -0.69446  -0.57334  -0.55529  -0.50950  -0.49183
 Alpha virt. eigenvalues --    0.12340   0.15604   0.19420   0.22218   0.53513
 Alpha virt. eigenvalues --    0.55126   0.56378   0.58266   0.67404   0.69285
 Alpha virt. eigenvalues --    0.77956   0.78706   0.79663   0.80299   0.82924

 Mulliken charges:
               1
     1  O   -0.514552
     2  H    0.262298
     3  H    0.250552
     4  O   -0.512777
     5  H    0.260006
     6  H    0.254473
 Sum of Mulliken charges =  -0.00000

 Dipole moment (field-independent basis, Debye):
    X=             -2.5095    Y=             -2.9846    Z=              0.0000  Tot=              3.8994
 Quadrupole moment (field-independent basis, Debye-Ang):
   XX=             -9.8146   YY=             -7.5753   ZZ=            -14.7165
   XY=             -3.6162   XZ=              0.0000   YZ=             -0.0000

 Normal termination of Gaussian 16 at Fri Aug 26 20:40:34 2022.
