 Gaussian 16, Revision A.03,
 Gaussian 16:  ES64L-G16RevA.03 25-Dec-2016

 ------------------
 #p CCSD(T)/cc-pVTZ
 ------------------

 ------------
 H2O_H2O_4511
 ------------
 Symbolic Z-matrix:
 Charge =  0 Multiplicity = 1

                         Standard orientation:
 ---------------------------------------------------------------------
 Center     Atomic      Atomic             Coordinates (Angstroms)
 Number     Number       Type             X           Y           Z
 ---------------------------------------------------------------------
      1          8           0        0.059619    2.906093   -0.000000
      2          1           0        0.058615    1.923492   -0.000000
      3          1           0       -0.869548    3.225709   -0.000000
      4          8           0        0.059619   -2.728619    0.000000
      5          1           0        0.706738   -3.468039    0.000000
      6          1           0       -0.849704   -3.100961    0.000000
 ---------------------------------------------------------------------

 SCF Done:  E(RHF) =  -152.108312454     A.U. after   10 cycles
 E2 =    -0.5258185526D+00 EUMP2 =    -0.15263413100696D+03
 CCSD(T)
 CCSD(T)= -0.15266133024D+03

 The electronic state is 1-A'.
 Alpha  occ. eigenvalues --  -20.56187 -20.54974  -1.33489  -1.32281  -0.70894
 Alpha  occ. eigenvalues --   -0.69680  -0.56977  -0.55748  -0.50606  -0.49402
 Alpha virt. eigenvalues --    0.13336   0.14903   0.19662   0.21038   0.53618
 Alpha virt. eigenvalues --    0.54852   0.56651   0.57785   0.66850   0.68735
 Alpha virt. eigenvalues --    0.78281   0.79456   0.79586   0.80272   0.82633

 Mulliken charges:
               1
     1  O   -0.513222
     2  H    0.260250
     3  H    0.252850
     4  O   -0.514066
     5  H    0.258455
     6  H    0.255733
 Sum of Mulliken charges =  -0.00000

 Dipole moment (field-independent basis, Debye):
    X=             -2.0445    Y=             -3.1153    Z=              0.0000  Tot=              3.7262
 Quadrupole moment (field-independent basis, Debye-Ang):
   XX=             -9.3617   YY=             -6.3810   ZZ=            -14.7145
   XY=             -4.9018   XZ=              0.0000   YZ=             -0.0000

 Normal termination of Gaussian 16 at Sun Aug 28 03:28:21 2022.
