 Gaussian 16, Revision A.03,
 Gaussian 16:  ES64L-G16RevA.03 25-Dec-2016

 ------------------
 #p CCSD(T)/cc-pVTZ
 ------------------

 ------------
 H2O_H2O_4576
 ------------
 Symbolic Z-matrix:
 Charge =  0 Multiplicity = 1

                         Standard orientation:
 ---------------------------------------------------------------------
 Center     Atomic      Atomic             Coordinates (Angstroms)
 Number     Number       Type             X           Y           Z
 ---------------------------------------------------------------------
      1          8           0        0.090683   -2.914953    0.000000
      2          1           0        0.090616   -1.932352    0.000000
      3          1           0       -0.838788   -3.233684    0.000000
      4          8           0        0.090683    2.776242    0.000000
      5          1           0        0.154881    3.756744    0.000000
      6          1           0       -0.857644    2.518984    0.000000
 ---------------------------------------------------------------------

 SCF Done:  E(RHF) =  -152.107685320     A.U. after   10 cycles
 E2 =    -0.5258692820D+00 EUMP2 =    -0.15263355460222D+03
 CCSD(T)
 CCSD(T)= -0.15266076823D+03

 The electronic state is 1-A'.
 Alpha  occ. eigenvalues --  -20.56196 -20.55312  -1.33497  -1.32613  -0.70911
 Alpha  occ. eigenvalues --   -0.70010  -0.56959  -0.56066  -0.50608  -0.49726
 Alpha virt. eigenvalues --    0.12885   0.14709   0.19001   0.21516   0.53302
 Alpha virt. eigenvalues --    0.54796   0.56566   0.57661   0.66949   0.68433
 Alpha virt. eigenvalues --    0.78282   0.79146   0.79655   0.81191   0.81655

 Mulliken charges:
               1
     1  O   -0.509813
     2  H    0.257521
     3  H    0.252239
     4  O   -0.510791
     5  H    0.258121
     6  H    0.252722
 Sum of Mulliken charges =  -0.00000

 Dipole moment (field-independent basis, Debye):
    X=             -3.1105    Y=              2.4323    Z=              0.0000  Tot=              3.9486
 Quadrupole moment (field-independent basis, Debye-Ang):
   XX=            -10.6996   YY=             -8.8621   ZZ=            -14.7120
   XY=              2.4220   XZ=              0.0000   YZ=              0.0000

 Normal termination of Gaussian 16 at Sun Aug 28 04:05:42 2022.
