 Gaussian 16, Revision A.03,
 Gaussian 16:  ES64L-G16RevA.03 25-Dec-2016

 ------------------
 #p CCSD(T)/cc-pVTZ
 ------------------

 ------------
 H2O_H2O_1818
 ------------
 Symbolic Z-matrix:
 Charge =  0 Multiplicity = 1

                         Standard orientation:
 ---------------------------------------------------------------------
 Center     Atomic      Atomic             Coordinates (Angstroms)
 Number     Number       Type             X           Y           Z
 ---------------------------------------------------------------------
      1          8           0        0.033851    1.829135    0.000000
      2          1           0        0.030965    0.846538    0.000000
      3          1           0       -0.894703    2.150530    0.000000
      4          8           0        0.033851   -1.651658    0.000000
      5          1           0        0.940548   -2.030347    0.000000
      6          1           0       -0.618421   -2.386538    0.000000
 ---------------------------------------------------------------------

 SCF Done:  E(RHF) =  -152.113021181     A.U. after   10 cycles
 E2 =    -0.5265904389D+00 EUMP2 =    -0.15263961162038D+03
 CCSD(T)
 CCSD(T)= -0.15266665414D+03

 The electronic state is 1-A'.
 Alpha  occ. eigenvalues --  -20.57537 -20.53468  -1.34796  -1.30851  -0.72174
 Alpha  occ. eigenvalues --   -0.68328  -0.58549  -0.54284  -0.51935  -0.48008
 Alpha virt. eigenvalues --    0.12208   0.17270   0.19075   0.27217   0.51429
 Alpha virt. eigenvalues --    0.54541   0.56251   0.59230   0.69067   0.72574
 Alpha virt. eigenvalues --    0.75582   0.77362   0.80970   0.83313   0.84536

 Mulliken charges:
               1
     1  O   -0.534665
     2  H    0.271060
     3  H    0.250156
     4  O   -0.508289
     5  H    0.263016
     6  H    0.258720
 Sum of Mulliken charges =  -0.00000

 Dipole moment (field-independent basis, Debye):
    X=             -1.1437    Y=             -3.3831    Z=             -0.0000  Tot=              3.5712
 Quadrupole moment (field-independent basis, Debye-Ang):
   XX=             -9.1878   YY=             -8.0552   ZZ=            -14.7319
   XY=             -4.2542   XZ=             -0.0000   YZ=              0.0000

 Normal termination of Gaussian 16 at Sun Aug 28 01:53:49 2022.
