 Gaussian 16, Revision A.03,
 Gaussian 16:  ES64L-G16RevA.03 25-Dec-2016

 ------------------
 #p CCSD(T)/cc-pVTZ
 ------------------

 ------------
 H2O_H2O_2716
 ------------
 Symbolic Z-matrix:
 Charge =  0 Multiplicity = 1

                         Standard orientation:
 ---------------------------------------------------------------------
 Center     Atomic      Atomic             Coordinates (Angstroms)
 Number     Number       Type             X           Y           Z
 ---------------------------------------------------------------------
      1          8           0        0.041155    2.189443   -0.000000
      2          1           0        0.039060    1.206844   -0.000000
      3          1           0       -0.887657    2.510091   -0.000000
      4          8           0        0.041155   -2.009532    0.000000
      5          1           0        0.891063   -2.502645    0.000000
      6          1           0       -0.700940   -2.653582    0.000000
 ---------------------------------------------------------------------

 SCF Done:  E(RHF) =  -152.110497931     A.U. after   10 cycles
 E2 =    -0.5260059402D+00 EUMP2 =    -0.15263650387109D+03
 CCSD(T)
 CCSD(T)= -0.15266362555D+03

 The electronic state is 1-A'.
 Alpha  occ. eigenvalues --  -20.56804 -20.54264  -1.34073  -1.31591  -0.71470
 Alpha  occ. eigenvalues --   -0.68988  -0.57646  -0.55082  -0.51207  -0.48733
 Alpha virt. eigenvalues --    0.12416   0.16235   0.19376   0.23464   0.52962
 Alpha virt. eigenvalues --    0.55591   0.56349   0.58836   0.69057   0.69704
 Alpha virt. eigenvalues --    0.77624   0.78977   0.79926   0.80096   0.83478

 Mulliken charges:
               1
     1  O   -0.521839
     2  H    0.265647
     3  H    0.251617
     4  O   -0.513031
     5  H    0.260320
     6  H    0.257286
 Sum of Mulliken charges =  -0.00000

 Dipole moment (field-independent basis, Debye):
    X=             -1.4009    Y=             -3.2712    Z=              0.0000  Tot=              3.5586
 Quadrupole moment (field-independent basis, Debye-Ang):
   XX=             -9.1494   YY=             -7.3833   ZZ=            -14.7218
   XY=             -4.7310   XZ=              0.0000   YZ=             -0.0000

 Normal termination of Gaussian 16 at Fri Aug 26 16:46:53 2022.
