 Gaussian 16, Revision A.03,
 Gaussian 16:  ES64L-G16RevA.03 25-Dec-2016

 ------------------
 #p CCSD(T)/cc-pVTZ
 ------------------

 -----------
 H2O_H2O_535
 -----------
 Symbolic Z-matrix:
 Charge =  0 Multiplicity = 1

                         Standard orientation:
 ---------------------------------------------------------------------
 Center     Atomic      Atomic             Coordinates (Angstroms)
 Number     Number       Type             X           Y           Z
 ---------------------------------------------------------------------
      1          8           0        0.063319    1.319430   -0.000000
      2          1           0        0.061272    0.336831   -0.000000
      3          1           0       -0.865508    1.640033   -0.000000
      4          8           0        0.063319   -1.144043    0.000000
      5          1           0        0.659864   -1.924838    0.000000
      6          1           0       -0.868739   -1.455125    0.000000
 ---------------------------------------------------------------------

 SCF Done:  E(RHF) =  -152.100860336     A.U. after   11 cycles
 E2 =    -0.5317402109D+00 EUMP2 =    -0.15263260054708D+03
 CCSD(T)
 CCSD(T)= -0.15265902440D+03

 The electronic state is 1-A'.
 Alpha  occ. eigenvalues --  -20.60110 -20.49338  -1.38506  -1.27688  -0.75555
 Alpha  occ. eigenvalues --   -0.70536  -0.58671  -0.55149  -0.49946  -0.44641
 Alpha virt. eigenvalues --    0.11232   0.17160   0.20046   0.33242   0.47977
 Alpha virt. eigenvalues --    0.53553   0.60676   0.62414   0.71460   0.72229
 Alpha virt. eigenvalues --    0.73687   0.78440   0.80407   0.83394   0.84129

 Mulliken charges:
               1
     1  O   -0.601652
     2  H    0.309416
     3  H    0.222661
     4  O   -0.427510
     5  H    0.250230
     6  H    0.246854
 Sum of Mulliken charges =  -0.00000

 Dipole moment (field-independent basis, Debye):
    X=             -2.0239    Y=             -4.1466    Z=              0.0000  Tot=              4.6141
 Quadrupole moment (field-independent basis, Debye-Ang):
   XX=             -9.4573   YY=             -9.3463   ZZ=            -14.6721
   XY=             -2.9498   XZ=              0.0000   YZ=             -0.0000

 Normal termination of Gaussian 16 at Fri Aug 26 18:54:01 2022.
