 Gaussian 16, Revision A.03,
 Gaussian 16:  ES64L-G16RevA.03 25-Dec-2016

 ------------------
 #p CCSD(T)/cc-pVTZ
 ------------------

 ------------
 H2O_H2O_3400
 ------------
 Symbolic Z-matrix:
 Charge =  0 Multiplicity = 1

                         Standard orientation:
 ---------------------------------------------------------------------
 Center     Atomic      Atomic             Coordinates (Angstroms)
 Number     Number       Type             X           Y           Z
 ---------------------------------------------------------------------
      1          8           0        0.092949   -2.443054    0.000000
      2          1           0        0.092949   -1.460453    0.000000
      3          1           0       -0.836544   -2.761721    0.000000
      4          8           0        0.092949    2.310267    0.000000
      5          1           0        0.092950    3.292870    0.000000
      6          1           0       -0.836544    1.991601    0.000000
 ---------------------------------------------------------------------

 SCF Done:  E(RHF) =  -152.107861890     A.U. after   10 cycles
 E2 =    -0.5259853300D+00 EUMP2 =    -0.15263384722017D+03
 CCSD(T)
 CCSD(T)= -0.15266104522D+03

 The electronic state is 1-A'.
 Alpha  occ. eigenvalues --  -20.56492 -20.55226  -1.33790  -1.32527  -0.71216
 Alpha  occ. eigenvalues --   -0.69913  -0.57253  -0.55977  -0.50898  -0.49639
 Alpha virt. eigenvalues --    0.11689   0.15331   0.19071   0.22896   0.53631
 Alpha virt. eigenvalues --    0.54804   0.56459   0.57987   0.67141   0.68837
 Alpha virt. eigenvalues --    0.78008   0.78606   0.79235   0.81302   0.82457

 Mulliken charges:
               1
     1  O   -0.509779
     2  H    0.258758
     3  H    0.250360
     4  O   -0.509591
     5  H    0.259611
     6  H    0.250641
 Sum of Mulliken charges =  -0.00000

 Dipole moment (field-independent basis, Debye):
    X=             -3.1731    Y=              2.3616    Z=              0.0000  Tot=              3.9554
 Quadrupole moment (field-independent basis, Debye-Ang):
   XX=            -10.8531   YY=             -9.2402   ZZ=            -14.7122
   XY=              2.1515   XZ=              0.0000   YZ=              0.0000

 Normal termination of Gaussian 16 at Fri Aug 26 21:29:23 2022.
