 Gaussian 16, Revision A.03,
 Gaussian 16:  ES64L-G16RevA.03 25-Dec-2016

 ------------------
 #p CCSD(T)/cc-pVTZ
 ------------------

 -----------
 H2O_H2O_308
 -----------
 Symbolic Z-matrix:
 Charge =  0 Multiplicity = 1

                         Standard orientation:
 ---------------------------------------------------------------------
 Center     Atomic      Atomic             Coordinates (Angstroms)
 Number     Number       Type             X           Y           Z
 ---------------------------------------------------------------------
      1          8           0        0.070271    1.226823   -0.000000
      2          1           0        0.068580    0.244223   -0.000000
      3          1           0       -0.858672    1.547088    0.000000
      4          8           0        0.070271   -1.056698   -0.000000
      5          1           0        0.560107   -1.908500   -0.000000
      6          1           0       -0.894350   -1.243811    0.000000
 ---------------------------------------------------------------------

 SCF Done:  E(RHF) =  -152.081542539     A.U. after   11 cycles
 E2 =    -0.5341791033D+00 EUMP2 =    -0.15261572164213D+03
 CCSD(T)
 CCSD(T)= -0.15264178285D+03

 The electronic state is 1-A'.
 Alpha  occ. eigenvalues --  -20.60927 -20.47762  -1.40473  -1.26697  -0.77940
 Alpha  occ. eigenvalues --   -0.72237  -0.57280  -0.56489  -0.48319  -0.43515
 Alpha virt. eigenvalues --    0.10860   0.16592   0.20718   0.32938   0.48559
 Alpha virt. eigenvalues --    0.52629   0.60354   0.64162   0.71886   0.72274
 Alpha virt. eigenvalues --    0.76613   0.78567   0.79966   0.84131   0.84269

 Mulliken charges:
               1
     1  O   -0.617109
     2  H    0.297272
     3  H    0.209920
     4  O   -0.369743
     5  H    0.238513
     6  H    0.241147
 Sum of Mulliken charges =  -0.00000

 Dipole moment (field-independent basis, Debye):
    X=             -2.1977    Y=             -4.3578    Z=              0.0000  Tot=              4.8806
 Quadrupole moment (field-independent basis, Debye-Ang):
   XX=             -9.6749   YY=             -9.6625   ZZ=            -14.6183
   XY=             -2.7336   XZ=             -0.0000   YZ=              0.0000

 Normal termination of Gaussian 16 at Fri Aug 26 17:19:42 2022.
