 Gaussian 16, Revision A.03,
 Gaussian 16:  ES64L-G16RevA.03 25-Dec-2016

 ------------------
 #p CCSD(T)/cc-pVTZ
 ------------------

 ------------
 H2O_H2O_1501
 ------------
 Symbolic Z-matrix:
 Charge =  0 Multiplicity = 1

                         Standard orientation:
 ---------------------------------------------------------------------
 Center     Atomic      Atomic             Coordinates (Angstroms)
 Number     Number       Type             X           Y           Z
 ---------------------------------------------------------------------
      1          8           0        0.090687   -1.688401    0.000000
      2          1           0        0.090568   -0.705799    0.000000
      3          1           0       -0.838767   -2.007179    0.000000
      4          8           0        0.090687    1.549699    0.000000
      5          1           0        0.154834    2.530204    0.000000
      6          1           0       -0.857627    1.292391    0.000000
 ---------------------------------------------------------------------

 SCF Done:  E(RHF) =  -152.109398563     A.U. after   10 cycles
 E2 =    -0.5276048588D+00 EUMP2 =    -0.15263700342199D+03
 CCSD(T)
 CCSD(T)= -0.15266408714D+03

 The electronic state is 1-A'.
 Alpha  occ. eigenvalues --  -20.57865 -20.54289  -1.35225  -1.31650  -0.72942
 Alpha  occ. eigenvalues --   -0.68904  -0.58735  -0.55012  -0.52282  -0.48751
 Alpha virt. eigenvalues --    0.11519   0.16355   0.20350   0.27850   0.49899
 Alpha virt. eigenvalues --    0.54502   0.57663   0.58132   0.68041   0.73847
 Alpha virt. eigenvalues --    0.74462   0.77823   0.80609   0.81957   0.83395

 Mulliken charges:
               1
     1  O   -0.522357
     2  H    0.272904
     3  H    0.239636
     4  O   -0.482846
     5  H    0.249976
     6  H    0.242686
 Sum of Mulliken charges =  -0.00000

 Dipole moment (field-independent basis, Debye):
    X=             -3.0292    Y=              2.7039    Z=              0.0000  Tot=              4.0604
 Quadrupole moment (field-independent basis, Debye-Ang):
   XX=            -10.7508   YY=             -8.9975   ZZ=            -14.7124
   XY=              2.2892   XZ=              0.0000   YZ=              0.0000

 CCSD(T)=-152.6640871\RMSD=7.356e-09\PG=CS [SG(H4O2)]\\@
 Normal termination of Gaussian 16 at Sat Aug 27 00:58:07 2022.
