 Gaussian 16, Revision A.03,
 Gaussian 16:  ES64L-G16RevA.03 25-Dec-2016

 ------------------
 #p CCSD(T)/cc-pVTZ
 ------------------

 ------------
 H2O_H2O_2173
 ------------
 Symbolic Z-matrix:
 Charge =  0 Multiplicity = 1

                         Standard orientation:
 ---------------------------------------------------------------------
 Center     Atomic      Atomic             Coordinates (Angstroms)
 Number     Number       Type             X           Y           Z
 ---------------------------------------------------------------------
      1          8           0       -0.016675    1.961082    0.000000
      2          1           0       -0.013229    0.978487    0.000000
      3          1           0        0.911695    2.283006    0.000000
      4          8           0       -0.016675   -1.797712    0.000000
      5          1           0       -0.996942   -1.865415    0.000000
      6          1           0        0.365278   -2.703040    0.000000
 ---------------------------------------------------------------------

 SCF Done:  E(RHF) =  -152.111507605     A.U. after   10 cycles
 E2 =    -0.5262592625D+00 EUMP2 =    -0.15263776686756D+03
 CCSD(T)
 CCSD(T)= -0.15266485582D+03

 The electronic state is 1-A'.
 Alpha  occ. eigenvalues --  -20.57148 -20.54125  -1.34421  -1.31468  -0.71841
 Alpha  occ. eigenvalues --   -0.68886  -0.58056  -0.54943  -0.51553  -0.48619
 Alpha virt. eigenvalues --    0.12198   0.16721   0.19246   0.25574   0.53304
 Alpha virt. eigenvalues --    0.54846   0.56060   0.58802   0.68738   0.72368
 Alpha virt. eigenvalues --    0.76693   0.78934   0.80316   0.82955   0.83532

 Mulliken charges:
               1
     1  O   -0.528231
     2  H    0.266183
     3  H    0.254084
     4  O   -0.510503
     5  H    0.260279
     6  H    0.258188
 Sum of Mulliken charges =  -0.00000

 Dipole moment (field-independent basis, Debye):
    X=              0.5722    Y=             -3.0366    Z=              0.0000  Tot=              3.0900
 Quadrupole moment (field-independent basis, Debye-Ang):
   XX=             -9.5445   YY=             -8.1640   ZZ=            -14.7251
   XY=              5.1434   XZ=              0.0000   YZ=              0.0000

 Normal termination of Gaussian 16 at Sun Aug 28 05:06:50 2022.
