 Gaussian 16, Revision A.03,
 Gaussian 16:  ES64L-G16RevA.03 25-Dec-2016

 ------------------
 #p CCSD(T)/cc-pVTZ
 ------------------

 ------------
 H2O_H2O_3002
 ------------
 Symbolic Z-matrix:
 Charge =  0 Multiplicity = 1

                         Standard orientation:
 ---------------------------------------------------------------------
 Center     Atomic      Atomic             Coordinates (Angstroms)
 Number     Number       Type             X           Y           Z
 ---------------------------------------------------------------------
      1          8           0        0.088232   -2.289767    0.000000
      2          1           0        0.088051   -1.307166    0.000000
      3          1           0       -0.841203   -2.608604    0.000000
      4          8           0        0.088232    2.145448    0.000000
      5          1           0        0.216309    3.119667    0.000000
      6          1           0       -0.874867    1.950654    0.000000
 ---------------------------------------------------------------------

 SCF Done:  E(RHF) =  -152.108435152     A.U. after   10 cycles
 E2 =    -0.5260550286D+00 EUMP2 =    -0.15263449018030D+03
 CCSD(T)
 CCSD(T)= -0.15266166467D+03

 The electronic state is 1-A'.
 Alpha  occ. eigenvalues --  -20.56651 -20.54987  -1.33943  -1.32292  -0.71372
 Alpha  occ. eigenvalues --   -0.69672  -0.57423  -0.55748  -0.51055  -0.49409
 Alpha virt. eigenvalues --    0.11739   0.15626   0.19401   0.23013   0.54293
 Alpha virt. eigenvalues --    0.54684   0.56443   0.58190   0.68009   0.69066
 Alpha virt. eigenvalues --    0.77832   0.78547   0.79462   0.80986   0.82704

 Mulliken charges:
               1
     1  O   -0.512073
     2  H    0.261050
     3  H    0.249308
     4  O   -0.509129
     5  H    0.259731
     6  H    0.251112
 Sum of Mulliken charges =  -0.00000

 Dipole moment (field-independent basis, Debye):
    X=             -3.0049    Y=              2.5914    Z=              0.0000  Tot=              3.9680
 Quadrupole moment (field-independent basis, Debye-Ang):
   XX=            -10.5622   YY=             -8.6618   ZZ=            -14.7142
   XY=              2.5764   XZ=              0.0000   YZ=              0.0000

 CCSD(T)=-152.6616647\RMSD=7.165e-09\PG=CS [SG(H4O2)]\\@
 Normal termination of Gaussian 16 at Fri Aug 26 19:11:09 2022.
