 Gaussian 16, Revision A.03,
 Gaussian 16:  ES64L-G16RevA.03 25-Dec-2016

 ------------------
 #p CCSD(T)/cc-pVTZ
 ------------------

 ------------
 H2O_H2O_3288
 ------------
 Symbolic Z-matrix:
 Charge =  0 Multiplicity = 1

                         Standard orientation:
 ---------------------------------------------------------------------
 Center     Atomic      Atomic             Coordinates (Angstroms)
 Number     Number       Type             X           Y           Z
 ---------------------------------------------------------------------
      1          8           0        0.052295    2.418786   -0.000000
      2          1           0        0.050813    1.436186   -0.000000
      3          1           0       -0.876717    2.738854   -0.000000
      4          8           0        0.052295   -2.238891    0.000000
      5          1           0        0.790076   -2.887879    0.000000
      6          1           0       -0.800886   -2.726323    0.000000
 ---------------------------------------------------------------------

 SCF Done:  E(RHF) =  -152.109403323     A.U. after   10 cycles
 E2 =    -0.5258929554D+00 EUMP2 =    -0.15263529627884D+03
 CCSD(T)
 CCSD(T)= -0.15266245446D+03

 The electronic state is 1-A'.
 Alpha  occ. eigenvalues --  -20.56525 -20.54575  -1.33810  -1.31891  -0.71212
 Alpha  occ. eigenvalues --   -0.69285  -0.57337  -0.55374  -0.50936  -0.49022
 Alpha virt. eigenvalues --    0.12631   0.15690   0.19518   0.22106   0.53337
 Alpha virt. eigenvalues --    0.55211   0.56416   0.58238   0.67436   0.69356
 Alpha virt. eigenvalues --    0.77970   0.79028   0.79418   0.79812   0.83115

 Mulliken charges:
               1
     1  O   -0.517193
     2  H    0.263485
     3  H    0.251809
     4  O   -0.514851
     5  H    0.259990
     6  H    0.256761
 Sum of Mulliken charges =  -0.00000

 Dipole moment (field-independent basis, Debye):
    X=             -1.7855    Y=             -3.2166    Z=              0.0000  Tot=              3.6789
 Quadrupole moment (field-independent basis, Debye-Ang):
   XX=             -9.2260   YY=             -7.0187   ZZ=            -14.7183
   XY=             -4.6648   XZ=              0.0000   YZ=             -0.0000

 CCSD(T)=-152.6624545\RMSD=6.958e-09\PG=CS [SG(H4O2)]\\@
 Normal termination of Gaussian 16 at Fri Aug 26 20:50:49 2022.
