 Gaussian 16, Revision A.03,
 Gaussian 16:  ES64L-G16RevA.03 25-Dec-2016

 ------------------
 #p CCSD(T)/cc-pVTZ
 ------------------

 ----------
 H2O_H2O_14
 ----------
 Symbolic Z-matrix:
 Charge =  0 Multiplicity = 1

                         Standard orientation:
 ---------------------------------------------------------------------
 Center     Atomic      Atomic             Coordinates (Angstroms)
 Number     Number       Type             X           Y           Z
 ---------------------------------------------------------------------
      1          8           0        0.048768    1.112636    0.000000
      2          1           0        0.045085    0.130041    0.000000
      3          1           0       -0.879524    1.434783    0.000000
      4          8           0        0.048768   -0.932447   -0.000000
      5          1           0        0.826072   -1.533534   -0.000000
      6          1           0       -0.771918   -1.472799   -0.000000
 ---------------------------------------------------------------------

 SCF Done:  E(RHF) =  -152.027330988     A.U. after   11 cycles
 E2 =    -0.5362162407D+00 EUMP2 =    -0.15256354722853D+03
 CCSD(T)
 CCSD(T)= -0.15258900035D+03

 The electronic state is 1-A'.
 Alpha  occ. eigenvalues --  -20.62326 -20.43288  -1.44753  -1.23999  -0.80346
 Alpha  occ. eigenvalues --   -0.78565  -0.59199  -0.53931  -0.43388  -0.40356
 Alpha virt. eigenvalues --    0.10177   0.16188   0.21411   0.32695   0.46973
 Alpha virt. eigenvalues --    0.51666   0.63213   0.64388   0.70127   0.70730
 Alpha virt. eigenvalues --    0.78648   0.79289   0.81865   0.82487   0.89457

 Mulliken charges:
               1
     1  O   -0.683414
     2  H    0.277291
     3  H    0.197271
     4  O   -0.283373
     5  H    0.250674
     6  H    0.241551
 Sum of Mulliken charges =  -0.00000

 Dipole moment (field-independent basis, Debye):
    X=             -1.4568    Y=             -5.2084    Z=             -0.0000  Tot=              5.4083
 Quadrupole moment (field-independent basis, Debye-Ang):
   XX=             -9.1238   YY=            -10.3564   ZZ=            -14.5363
   XY=             -2.6170   XZ=             -0.0000   YZ=              0.0000

 Normal termination of Gaussian 16 at Fri Aug 26 15:16:50 2022.
