 Gaussian 16, Revision A.03,
 Gaussian 16:  ES64L-G16RevA.03 25-Dec-2016

 ------------------
 #p CCSD(T)/cc-pVTZ
 ------------------

 ------------
 H2O_H2O_1484
 ------------
 Symbolic Z-matrix:
 Charge =  0 Multiplicity = 1

                         Standard orientation:
 ---------------------------------------------------------------------
 Center     Atomic      Atomic             Coordinates (Angstroms)
 Number     Number       Type             X           Y           Z
 ---------------------------------------------------------------------
      1          8           0        0.066795    1.697090    0.000000
      2          1           0        0.065415    0.714489    0.000000
      3          1           0       -0.862249    2.017061    0.000000
      4          8           0        0.066795   -1.524040   -0.000000
      5          1           0        0.611551   -2.341809   -0.000000
      6          1           0       -0.883444   -1.774142   -0.000000
 ---------------------------------------------------------------------

 SCF Done:  E(RHF) =  -152.112893234     A.U. after   10 cycles
 E2 =    -0.5272754113D+00 EUMP2 =    -0.15264016864558D+03
 CCSD(T)
 CCSD(T)= -0.15266717726D+03

 The electronic state is 1-A'.
 Alpha  occ. eigenvalues --  -20.57967 -20.53167  -1.35268  -1.30596  -0.72667
 Alpha  occ. eigenvalues --   -0.68186  -0.59006  -0.53934  -0.52382  -0.47732
 Alpha virt. eigenvalues --    0.11900   0.17149   0.19319   0.28806   0.49514
 Alpha virt. eigenvalues --    0.55084   0.56757   0.58920   0.69648   0.73089
 Alpha virt. eigenvalues --    0.74224   0.76711   0.81380   0.82883   0.84417

 Mulliken charges:
               1
     1  O   -0.536579
     2  H    0.277684
     3  H    0.242316
     4  O   -0.499448
     5  H    0.260882
     6  H    0.255144
 Sum of Mulliken charges =  -0.00000

 Dipole moment (field-independent basis, Debye):
    X=             -2.2354    Y=             -3.3947    Z=             -0.0000  Tot=              4.0646
 Quadrupole moment (field-independent basis, Debye-Ang):
   XX=             -9.5832   YY=             -8.3636   ZZ=            -14.7303
   XY=             -3.3267   XZ=             -0.0000   YZ=             -0.0000

 CCSD(T)=-152.6671773\RMSD=6.875e-09\PG=CS [SG(H4O2)]\\@
 Normal termination of Gaussian 16 at Sat Aug 27 00:52:04 2022.
