 Gaussian 16, Revision A.03,
 Gaussian 16:  ES64L-G16RevA.03 25-Dec-2016

 ------------------
 #p CCSD(T)/cc-pVTZ
 ------------------

 -----------
 H2O_H2O_706
 -----------
 Symbolic Z-matrix:
 Charge =  0 Multiplicity = 1

                         Standard orientation:
 ---------------------------------------------------------------------
 Center     Atomic      Atomic             Coordinates (Angstroms)
 Number     Number       Type             X           Y           Z
 ---------------------------------------------------------------------
      1          8           0        0.076796   -1.382576    0.000000
      2          1           0        0.075739   -0.399975    0.000000
      3          1           0       -0.852354   -1.702241    0.000000
      4          8           0        0.076796    1.219437    0.000000
      5          1           0        0.451845    2.127646    0.000000
      6          1           0       -0.903958    1.279675    0.000000
 ---------------------------------------------------------------------

 SCF Done:  E(RHF) =  -152.105325319     A.U. after   10 cycles
 E2 =    -0.5308146457D+00 EUMP2 =    -0.15263613996479D+03
 CCSD(T)
 CCSD(T)= -0.15266280743D+03

 The electronic state is 1-A'.
 Alpha  occ. eigenvalues --  -20.59511 -20.51108  -1.37518  -1.29033  -0.75265
 Alpha  occ. eigenvalues --   -0.68702  -0.59520  -0.54305  -0.51777  -0.46055
 Alpha virt. eigenvalues --    0.11374   0.16866   0.20121   0.32579   0.48212
 Alpha virt. eigenvalues --    0.53629   0.59129   0.62039   0.70189   0.72116
 Alpha virt. eigenvalues --    0.74144   0.77735   0.80087   0.83374   0.83890

 Mulliken charges:
               1
     1  O   -0.572517
     2  H    0.298826
     3  H    0.225511
     4  O   -0.431925
     5  H    0.239167
     6  H    0.240938
 Sum of Mulliken charges =  -0.00000

 Dipole moment (field-independent basis, Debye):
    X=             -2.4882    Y=              3.6738    Z=              0.0000  Tot=              4.4371
 Quadrupole moment (field-independent basis, Debye-Ang):
   XX=             -9.9825   YY=             -9.1075   ZZ=            -14.6838
   XY=              2.7812   XZ=              0.0000   YZ=              0.0000

 Normal termination of Gaussian 16 at Fri Aug 26 19:58:30 2022.
