 Gaussian 16, Revision A.03,
 Gaussian 16:  ES64L-G16RevA.03 25-Dec-2016

 ------------------
 #p CCSD(T)/cc-pVTZ
 ------------------

 ------------
 H2O_H2O_3945
 ------------
 Symbolic Z-matrix:
 Charge =  0 Multiplicity = 1

                         Standard orientation:
 ---------------------------------------------------------------------
 Center     Atomic      Atomic             Coordinates (Angstroms)
 Number     Number       Type             X           Y           Z
 ---------------------------------------------------------------------
      1          8           0        0.026629    2.674445   -0.000000
      2          1           0        0.024455    1.691846   -0.000000
      3          1           0       -0.902156    2.995168   -0.000000
      4          8           0        0.026629   -2.501203    0.000000
      5          1           0        0.975184   -2.757619    0.000000
      6          1           0       -0.523553   -3.315332    0.000000
 ---------------------------------------------------------------------

 SCF Done:  E(RHF) =  -152.108836204     A.U. after   10 cycles
 E2 =    -0.5258124144D+00 EUMP2 =    -0.15263464861800D+03
 CCSD(T)
 CCSD(T)= -0.15266183209D+03

 The electronic state is 1-A'.
 Alpha  occ. eigenvalues --  -20.56299 -20.54851  -1.33598  -1.32162  -0.71001
 Alpha  occ. eigenvalues --   -0.69566  -0.57106  -0.55642  -0.50720  -0.49290
 Alpha virt. eigenvalues --    0.12977   0.15232   0.19508   0.21496   0.53391
 Alpha virt. eigenvalues --    0.55051   0.56600   0.57849   0.66685   0.69086
 Alpha virt. eigenvalues --    0.78174   0.79078   0.79557   0.80235   0.82853

 Mulliken charges:
               1
     1  O   -0.515845
     2  H    0.261243
     3  H    0.254108
     4  O   -0.516005
     5  H    0.258317
     6  H    0.258181
 Sum of Mulliken charges =  -0.00000

 Dipole moment (field-independent basis, Debye):
    X=             -0.9128    Y=             -3.0592    Z=              0.0000  Tot=              3.1924
 Quadrupole moment (field-independent basis, Debye-Ang):
   XX=             -9.2887   YY=             -6.9278   ZZ=            -14.7163
   XY=             -6.3886   XZ=              0.0000   YZ=             -0.0000

 Normal termination of Gaussian 16 at Sat Aug 27 00:36:57 2022.
