 Gaussian 16, Revision A.03,
 Gaussian 16:  ES64L-G16RevA.03 25-Dec-2016

 ------------------
 #p CCSD(T)/cc-pVTZ
 ------------------

 ------------
 H2O_H2O_1056
 ------------
 Symbolic Z-matrix:
 Charge =  0 Multiplicity = 1

                         Standard orientation:
 ---------------------------------------------------------------------
 Center     Atomic      Atomic             Coordinates (Angstroms)
 Number     Number       Type             X           Y           Z
 ---------------------------------------------------------------------
      1          8           0        0.076787    1.522191   -0.000000
      2          1           0        0.075833    0.539590   -0.000000
      3          1           0       -0.852396    1.841759   -0.000000
      4          8           0        0.076787   -1.359037    0.000000
      5          1           0        0.451931   -2.267206    0.000000
      6          1           0       -0.903960   -1.419377    0.000000
 ---------------------------------------------------------------------

 SCF Done:  E(RHF) =  -152.111026407     A.U. after   10 cycles
 E2 =    -0.5287765379D+00 EUMP2 =    -0.15263980294482D+03
 CCSD(T)
 CCSD(T)= -0.15266670890D+03

 The electronic state is 1-A'.
 Alpha  occ. eigenvalues --  -20.58669 -20.52526  -1.36185  -1.30107  -0.73768
 Alpha  occ. eigenvalues --   -0.68149  -0.59578  -0.53233  -0.53199  -0.47199
 Alpha virt. eigenvalues --    0.11616   0.16940   0.19794   0.31043   0.48414
 Alpha virt. eigenvalues --    0.54472   0.58704   0.59294   0.69526   0.72650
 Alpha virt. eigenvalues --    0.74484   0.76802   0.81550   0.82224   0.84014

 Mulliken charges:
               1
     1  O   -0.549606
     2  H    0.289556
     3  H    0.234454
     4  O   -0.465527
     5  H    0.244101
     6  H    0.247022
 Sum of Mulliken charges =   0.00000

 Dipole moment (field-independent basis, Debye):
    X=             -2.5331    Y=             -3.3964    Z=              0.0000  Tot=              4.2370
 Quadrupole moment (field-independent basis, Debye-Ang):
   XX=             -9.9889   YY=             -8.7895   ZZ=            -14.7132
   XY=             -2.8945   XZ=              0.0000   YZ=             -0.0000

 Normal termination of Gaussian 16 at Fri Aug 26 22:11:29 2022.
