 Gaussian 16, Revision A.03,
 Gaussian 16:  ES64L-G16RevA.03 25-Dec-2016

 ------------------
 #p CCSD(T)/cc-pVTZ
 ------------------

 ------------
 H2O_H2O_1641
 ------------
 Symbolic Z-matrix:
 Charge =  0 Multiplicity = 1

                         Standard orientation:
 ---------------------------------------------------------------------
 Center     Atomic      Atomic             Coordinates (Angstroms)
 Number     Number       Type             X           Y           Z
 ---------------------------------------------------------------------
      1          8           0        0.041204    1.760629   -0.000000
      2          1           0        0.038572    0.778031   -0.000000
      3          1           0       -0.887432    2.081784   -0.000000
      4          8           0        0.041204   -1.580762    0.000000
      5          1           0        0.890843   -2.074340    0.000000
      6          1           0       -0.701243   -2.224407    0.000000
 ---------------------------------------------------------------------

 SCF Done:  E(RHF) =  -152.113588281     A.U. after   10 cycles
 E2 =    -0.5268595411D+00 EUMP2 =    -0.15264044782192D+03
 CCSD(T)
 CCSD(T)= -0.15266746652D+03

 The electronic state is 1-A'.
 Alpha  occ. eigenvalues --  -20.57761 -20.53163  -1.35027  -1.30576  -0.72383
 Alpha  occ. eigenvalues --   -0.68130  -0.58828  -0.53966  -0.52164  -0.47731
 Alpha virt. eigenvalues --    0.12138   0.17485   0.18999   0.28213   0.50597
 Alpha virt. eigenvalues --    0.54517   0.56193   0.59474   0.68994   0.72230
 Alpha virt. eigenvalues --    0.74893   0.76944   0.81281   0.83169   0.84719

 Mulliken charges:
               1
     1  O   -0.538496
     2  H    0.274546
     3  H    0.247955
     4  O   -0.507402
     5  H    0.264416
     6  H    0.258981
 Sum of Mulliken charges =  -0.00000

 Dipole moment (field-independent basis, Debye):
    X=             -1.3861    Y=             -3.4802    Z=              0.0000  Tot=              3.7460
 Quadrupole moment (field-independent basis, Debye-Ang):
   XX=             -9.1523   YY=             -8.1555   ZZ=            -14.7344
   XY=             -3.9542   XZ=              0.0000   YZ=             -0.0000

 Normal termination of Gaussian 16 at Sun Aug 28 00:15:44 2022.
