 Gaussian 16, Revision A.03,
 Gaussian 16:  ES64L-G16RevA.03 25-Dec-2016

 ------------------
 #p CCSD(T)/cc-pVTZ
 ------------------

 ------------
 H2O_H2O_4352
 ------------
 Symbolic Z-matrix:
 Charge =  0 Multiplicity = 1

                         Standard orientation:
 ---------------------------------------------------------------------
 Center     Atomic      Atomic             Coordinates (Angstroms)
 Number     Number       Type             X           Y           Z
 ---------------------------------------------------------------------
      1          8           0        0.088229   -2.828255    0.000000
      2          1           0        0.088084   -1.845653    0.000000
      3          1           0       -0.841216   -3.147059    0.000000
      4          8           0        0.088229    2.683930    0.000000
      5          1           0        0.216340    3.658144    0.000000
      6          1           0       -0.874878    2.489169    0.000000
 ---------------------------------------------------------------------

 SCF Done:  E(RHF) =  -152.107805172     A.U. after   10 cycles
 E2 =    -0.5258702370D+00 EUMP2 =    -0.15263367540856D+03
 CCSD(T)
 CCSD(T)= -0.15266088514D+03

 The electronic state is 1-A'.
 Alpha  occ. eigenvalues --  -20.56234 -20.55238  -1.33536  -1.32541  -0.70950
 Alpha  occ. eigenvalues --   -0.69937  -0.57001  -0.55996  -0.50648  -0.49655
 Alpha virt. eigenvalues --    0.12774   0.14833   0.19054   0.21599   0.53229
 Alpha virt. eigenvalues --    0.54885   0.56546   0.57747   0.66842   0.68595
 Alpha virt. eigenvalues --    0.78245   0.79215   0.79484   0.81236   0.82001

 Mulliken charges:
               1
     1  O   -0.510302
     2  H    0.258187
     3  H    0.252005
     4  O   -0.511362
     5  H    0.258546
     6  H    0.252927
 Sum of Mulliken charges =  -0.00000

 Dipole moment (field-independent basis, Debye):
    X=             -3.0243    Y=              2.5357    Z=              0.0000  Tot=              3.9467
 Quadrupole moment (field-independent basis, Debye-Ang):
   XX=            -10.5503   YY=             -8.4985   ZZ=            -14.7124
   XY=              2.6707   XZ=              0.0000   YZ=              0.0000

 Normal termination of Gaussian 16 at Sun Aug 28 02:10:04 2022.
