 Gaussian 16, Revision A.03,
 Gaussian 16:  ES64L-G16RevA.03 25-Dec-2016

 ------------------
 #p CCSD(T)/cc-pVTZ
 ------------------

 ------------
 H2O_H2O_2231
 ------------
 Symbolic Z-matrix:
 Charge =  0 Multiplicity = 1

                         Standard orientation:
 ---------------------------------------------------------------------
 Center     Atomic      Atomic             Coordinates (Angstroms)
 Number     Number       Type             X           Y           Z
 ---------------------------------------------------------------------
      1          8           0        0.076768    1.990890   -0.000000
      2          1           0        0.076048    1.008288   -0.000000
      3          1           0       -0.852492    2.310237   -0.000000
      4          8           0        0.076768   -1.827699    0.000000
      5          1           0        0.452127   -2.735779    0.000000
      6          1           0       -0.903965   -1.888272    0.000000
 ---------------------------------------------------------------------

 SCF Done:  E(RHF) =  -152.110376521     A.U. after   10 cycles
 E2 =    -0.5263605436D+00 EUMP2 =    -0.15263673706472D+03
 CCSD(T)
 CCSD(T)= -0.15266384400D+03

 The electronic state is 1-A'.
 Alpha  occ. eigenvalues --  -20.57139 -20.54300  -1.34410  -1.31627  -0.71838
 Alpha  occ. eigenvalues --   -0.69004  -0.57978  -0.55083  -0.51531  -0.48759
 Alpha virt. eigenvalues --    0.11922   0.16358   0.19519   0.24867   0.52588
 Alpha virt. eigenvalues --    0.55796   0.56127   0.58233   0.68785   0.71955
 Alpha virt. eigenvalues --    0.76853   0.78920   0.80173   0.82435   0.83476

 Mulliken charges:
               1
     1  O   -0.519896
     2  H    0.266281
     3  H    0.246667
     4  O   -0.505596
     5  H    0.259698
     6  H    0.252845
 Sum of Mulliken charges =  -0.00000

 Dipole moment (field-independent basis, Debye):
    X=             -2.5994    Y=             -3.0225    Z=              0.0000  Tot=              3.9865
 Quadrupole moment (field-independent basis, Debye-Ang):
   XX=             -9.9681   YY=             -8.1513   ZZ=            -14.7209
   XY=             -3.1903   XZ=              0.0000   YZ=              0.0000

 532383\MP4DQ=-152.645668\MP4SDQ=-152.6487526\CCSD=-152.648146\CCSD(T)=
 Normal termination of Gaussian 16 at Sun Aug 28 05:34:52 2022.
