 Gaussian 16, Revision A.03,
 Gaussian 16:  ES64L-G16RevA.03 25-Dec-2016

 ------------------
 #p CCSD(T)/cc-pVTZ
 ------------------

 ------------
 H2O_H2O_1564
 ------------
 Symbolic Z-matrix:
 Charge =  0 Multiplicity = 1

                         Standard orientation:
 ---------------------------------------------------------------------
 Center     Atomic      Atomic             Coordinates (Angstroms)
 Number     Number       Type             X           Y           Z
 ---------------------------------------------------------------------
      1          8           0        0.048641    1.730961   -0.000000
      2          1           0        0.046345    0.748363   -0.000000
      3          1           0       -0.880105    2.051798   -0.000000
      4          8           0        0.048641   -1.550635    0.000000
      5          1           0        0.826791   -2.150625    0.000000
      6          1           0       -0.771282   -2.092146    0.000000
 ---------------------------------------------------------------------

 SCF Done:  E(RHF) =  -152.113683803     A.U. after   10 cycles
 E2 =    -0.5270195541D+00 EUMP2 =    -0.15264070335755D+03
 CCSD(T)
 CCSD(T)= -0.15266771177D+03

 The electronic state is 1-A'.
 Alpha  occ. eigenvalues --  -20.57870 -20.53041  -1.35143  -1.30469  -0.72490
 Alpha  occ. eigenvalues --   -0.68070  -0.58948  -0.53835  -0.52277  -0.47620
 Alpha virt. eigenvalues --    0.12075   0.17499   0.19016   0.28635   0.50111
 Alpha virt. eigenvalues --    0.54690   0.56205   0.59428   0.69067   0.72058
 Alpha virt. eigenvalues --    0.74584   0.76813   0.81410   0.83092   0.84772

 Mulliken charges:
               1
     1  O   -0.539517
     2  H    0.276496
     3  H    0.246070
     4  O   -0.506492
     5  H    0.264866
     6  H    0.258577
 Sum of Mulliken charges =  -0.00000

 Dipole moment (field-independent basis, Debye):
    X=             -1.6324    Y=             -3.5138    Z=              0.0000  Tot=              3.8745
 Quadrupole moment (field-independent basis, Debye-Ang):
   XX=             -9.1886   YY=             -8.2130   ZZ=            -14.7346
   XY=             -3.7583   XZ=              0.0000   YZ=             -0.0000

 Normal termination of Gaussian 16 at Sat Aug 27 23:19:39 2022.
