 Gaussian 16, Revision A.03,
 Gaussian 16:  ES64L-G16RevA.03 25-Dec-2016

 ------------------
 #p CCSD(T)/cc-pVTZ
 ------------------

 ------------
 H2O_H2O_2976
 ------------
 Symbolic Z-matrix:
 Charge =  0 Multiplicity = 1

                         Standard orientation:
 ---------------------------------------------------------------------
 Center     Atomic      Atomic             Coordinates (Angstroms)
 Number     Number       Type             X           Y           Z
 ---------------------------------------------------------------------
      1          8           0        0.090685   -2.276747    0.000000
      2          1           0        0.090598   -1.294146    0.000000
      3          1           0       -0.838780   -2.595496    0.000000
      4          8           0        0.090685    2.138040    0.000000
      5          1           0        0.154863    3.118543    0.000000
      6          1           0       -0.857638    1.880763    0.000000
 ---------------------------------------------------------------------

 SCF Done:  E(RHF) =  -152.108265056     A.U. after   10 cycles
 E2 =    -0.5260772353D+00 EUMP2 =    -0.15263434229140D+03
 CCSD(T)
 CCSD(T)= -0.15266152092D+03

 The electronic state is 1-A'.
 Alpha  occ. eigenvalues --  -20.56663 -20.55064  -1.33956  -1.32367  -0.71390
 Alpha  occ. eigenvalues --   -0.69746  -0.57430  -0.55820  -0.51065  -0.49482
 Alpha virt. eigenvalues --    0.11613   0.15606   0.19410   0.23198   0.54454
 Alpha virt. eigenvalues --    0.54544   0.56459   0.58130   0.68078   0.68997
 Alpha virt. eigenvalues --    0.77816   0.78489   0.79397   0.81004   0.82680

 Mulliken charges:
               1
     1  O   -0.511359
     2  H    0.260636
     3  H    0.249179
     4  O   -0.508410
     5  H    0.259712
     6  H    0.250243
 Sum of Mulliken charges =  -0.00000

 Dipole moment (field-independent basis, Debye):
    X=             -3.0875    Y=              2.4910    Z=              0.0000  Tot=              3.9671
 Quadrupole moment (field-independent basis, Debye-Ang):
   XX=            -10.7134   YY=             -8.9275   ZZ=            -14.7135
   XY=              2.3636   XZ=              0.0000   YZ=              0.0000

 Normal termination of Gaussian 16 at Fri Aug 26 18:55:38 2022.
