 Gaussian 16, Revision A.03,
 Gaussian 16:  ES64L-G16RevA.03 25-Dec-2016

 ------------------
 #p CCSD(T)/cc-pVTZ
 ------------------

 ------------
 H2O_H2O_3692
 ------------
 Symbolic Z-matrix:
 Charge =  0 Multiplicity = 1

                         Standard orientation:
 ---------------------------------------------------------------------
 Center     Atomic      Atomic             Coordinates (Angstroms)
 Number     Number       Type             X           Y           Z
 ---------------------------------------------------------------------
      1          8           0        0.037429    2.577840   -0.000000
      2          1           0        0.035536    1.595241   -0.000000
      3          1           0       -0.891448    2.898297   -0.000000
      4          8           0        0.037429   -2.398862    0.000000
      5          1           0        0.917859   -2.835152    0.000000
      6          1           0       -0.660812   -3.090213    0.000000
 ---------------------------------------------------------------------

 SCF Done:  E(RHF) =  -152.109064443     A.U. after   10 cycles
 E2 =    -0.5258327030D+00 EUMP2 =    -0.15263489714634D+03
 CCSD(T)
 CCSD(T)= -0.15266207119D+03

 The electronic state is 1-A'.
 Alpha  occ. eigenvalues --  -20.56375 -20.54724  -1.33669  -1.32037  -0.71071
 Alpha  occ. eigenvalues --   -0.69437  -0.57185  -0.55519  -0.50792  -0.49167
 Alpha virt. eigenvalues --    0.12882   0.15407   0.19569   0.21624   0.53442
 Alpha virt. eigenvalues --    0.55050   0.56544   0.57914   0.66808   0.69259
 Alpha virt. eigenvalues --    0.78107   0.79078   0.79675   0.79733   0.82980

 Mulliken charges:
               1
     1  O   -0.516474
     2  H    0.262316
     3  H    0.253261
     4  O   -0.516023
     5  H    0.259158
     6  H    0.257763
 Sum of Mulliken charges =  -0.00000

 Dipole moment (field-independent basis, Debye):
    X=             -1.2807    Y=             -3.1739    Z=              0.0000  Tot=              3.4226
 Quadrupole moment (field-independent basis, Debye-Ang):
   XX=             -9.1591   YY=             -6.8013   ZZ=            -14.7171
   XY=             -5.6086   XZ=              0.0000   YZ=             -0.0000

 Normal termination of Gaussian 16 at Fri Aug 26 23:08:36 2022.
