 Gaussian 16, Revision A.03,
 Gaussian 16:  ES64L-G16RevA.03 25-Dec-2016

 ------------------
 #p CCSD(T)/cc-pVTZ
 ------------------

 ------------
 H2O_H2O_4118
 ------------
 Symbolic Z-matrix:
 Charge =  0 Multiplicity = 1

                         Standard orientation:
 ---------------------------------------------------------------------
 Center     Atomic      Atomic             Coordinates (Angstroms)
 Number     Number       Type             X           Y           Z
 ---------------------------------------------------------------------
      1          8           0        0.033761    2.746585   -0.000000
      2          1           0        0.031871    1.763985   -0.000000
      3          1           0       -0.895118    3.067038   -0.000000
      4          8           0        0.033761   -2.569039    0.000000
      5          1           0        0.940842   -2.946809    0.000000
      6          1           0       -0.617767   -3.304579    0.000000
 ---------------------------------------------------------------------

 SCF Done:  E(RHF) =  -152.108713395     A.U. after   10 cycles
 E2 =    -0.5258078474D+00 EUMP2 =    -0.15263452124251D+03
 CCSD(T)
 CCSD(T)= -0.15266170909D+03

 The electronic state is 1-A'.
 Alpha  occ. eigenvalues --  -20.56260 -20.54863  -1.33559  -1.32173  -0.70962
 Alpha  occ. eigenvalues --   -0.69576  -0.57063  -0.55650  -0.50680  -0.49300
 Alpha virt. eigenvalues --    0.13140   0.15136   0.19614   0.21290   0.53522
 Alpha virt. eigenvalues --    0.54943   0.56619   0.57825   0.66686   0.69004
 Alpha virt. eigenvalues --    0.78211   0.79334   0.79550   0.80040   0.82831

 Mulliken charges:
               1
     1  O   -0.515272
     2  H    0.261183
     3  H    0.253744
     4  O   -0.515721
     5  H    0.258430
     6  H    0.257636
 Sum of Mulliken charges =  -0.00000

 Dipole moment (field-independent basis, Debye):
    X=             -1.1571    Y=             -3.1288    Z=              0.0000  Tot=              3.3359
 Quadrupole moment (field-independent basis, Debye-Ang):
   XX=             -9.1865   YY=             -6.6092   ZZ=            -14.7158
   XY=             -6.1364   XZ=              0.0000   YZ=             -0.0000

 Normal termination of Gaussian 16 at Sat Aug 27 23:53:35 2022.
