 Gaussian 16, Revision A.03,
 Gaussian 16:  ES64L-G16RevA.03 25-Dec-2016

 ------------------
 #p CCSD(T)/cc-pVTZ
 ------------------

 ------------
 H2O_H2O_1062
 ------------
 Symbolic Z-matrix:
 Charge =  0 Multiplicity = 1

                         Standard orientation:
 ---------------------------------------------------------------------
 Center     Atomic      Atomic             Coordinates (Angstroms)
 Number     Number       Type             X           Y           Z
 ---------------------------------------------------------------------
      1          8           0        0.056062    1.530704    0.000000
      2          1           0        0.053885    0.548105    0.000000
      3          1           0       -0.872723    1.851428    0.000000
      4          8           0        0.056062   -1.351886   -0.000000
      5          1           0        0.749325   -2.048227   -0.000000
      6          1           0       -0.827475   -1.781850   -0.000000
 ---------------------------------------------------------------------

 SCF Done:  E(RHF) =  -152.113341467     A.U. after   10 cycles
 E2 =    -0.5284646058D+00 EUMP2 =    -0.15264180607313D+03
 CCSD(T)
 CCSD(T)= -0.15266867772D+03

 The electronic state is 1-A'.
 Alpha  occ. eigenvalues --  -20.58716 -20.51852  -1.36177  -1.29496  -0.73424
 Alpha  occ. eigenvalues --   -0.68059  -0.59660  -0.53242  -0.52568  -0.46607
 Alpha virt. eigenvalues --    0.11794   0.17712   0.19163   0.31565   0.48442
 Alpha virt. eigenvalues --    0.54712   0.57315   0.60096   0.69742   0.71808
 Alpha virt. eigenvalues --    0.72861   0.77144   0.82365   0.82501   0.84794

 Mulliken charges:
               1
     1  O   -0.561316
     2  H    0.295353
     3  H    0.238659
     4  O   -0.492366
     5  H    0.263133
     6  H    0.256538
 Sum of Mulliken charges =   0.00000

 Dipole moment (field-independent basis, Debye):
    X=             -1.8522    Y=             -3.7247    Z=             -0.0000  Tot=              4.1598
 Quadrupole moment (field-independent basis, Debye-Ang):
   XX=             -9.2946   YY=             -8.6984   ZZ=            -14.7268
   XY=             -3.3375   XZ=             -0.0000   YZ=              0.0000

 CCSD(T)=-152.6686777\RMSD=7.468e-09\PG=CS [SG(H4O2)]\\@
 Normal termination of Gaussian 16 at Fri Aug 26 22:13:42 2022.
