 Gaussian 16, Revision A.03,
 Gaussian 16:  ES64L-G16RevA.03 25-Dec-2016

 ------------------
 #p CCSD(T)/cc-pVTZ
 ------------------

 ------------
 H2O_H2O_1322
 ------------
 Symbolic Z-matrix:
 Charge =  0 Multiplicity = 1

                         Standard orientation:
 ---------------------------------------------------------------------
 Center     Atomic      Atomic             Coordinates (Angstroms)
 Number     Number       Type             X           Y           Z
 ---------------------------------------------------------------------
      1          8           0       -0.019970    1.624039    0.000000
      2          1           0       -0.015944    0.641446    0.000000
      3          1           0        0.908209    1.946512    0.000000
      4          8           0       -0.019970   -1.456988    0.000000
      5          1           0       -0.993632   -1.589234    0.000000
      6          1           0        0.420895   -2.335136    0.000000
 ---------------------------------------------------------------------

 SCF Done:  E(RHF) =  -152.113572240     A.U. after   10 cycles
 E2 =    -0.5275104067D+00 EUMP2 =    -0.15264108264676D+03
 CCSD(T)
 CCSD(T)= -0.15266805270D+03

 The electronic state is 1-A'.
 Alpha  occ. eigenvalues --  -20.58155 -20.52824  -1.35523  -1.30320  -0.72986
 Alpha  occ. eigenvalues --   -0.68035  -0.59349  -0.53574  -0.52621  -0.47468
 Alpha virt. eigenvalues --    0.12107   0.17841   0.18984   0.30050   0.50048
 Alpha virt. eigenvalues --    0.54490   0.55739   0.61390   0.68729   0.73522
 Alpha virt. eigenvalues --    0.73725   0.76946   0.81718   0.82548   0.84374

 Mulliken charges:
               1
     1  O   -0.551970
     2  H    0.280298
     3  H    0.251260
     4  O   -0.494053
     5  H    0.263874
     6  H    0.250591
 Sum of Mulliken charges =   0.00000

 Dipole moment (field-independent basis, Debye):
    X=              0.6760    Y=             -3.3488    Z=              0.0000  Tot=              3.4164
 Quadrupole moment (field-independent basis, Debye-Ang):
   XX=             -9.4443   YY=             -8.5653   ZZ=            -14.7298
   XY=              4.1457   XZ=              0.0000   YZ=              0.0000

 Normal termination of Gaussian 16 at Fri Aug 26 23:50:52 2022.
