 Gaussian 16, Revision A.03,
 Gaussian 16:  ES64L-G16RevA.03 25-Dec-2016

 ------------------
 #p CCSD(T)/cc-pVTZ
 ------------------

 ------------
 H2O_H2O_4777
 ------------
 Symbolic Z-matrix:
 Charge =  0 Multiplicity = 1

                         Standard orientation:
 ---------------------------------------------------------------------
 Center     Atomic      Atomic             Coordinates (Angstroms)
 Number     Number       Type             X           Y           Z
 ---------------------------------------------------------------------
      1          8           0        0.088229   -2.997778    0.000000
      2          1           0        0.088092   -2.015177    0.000000
      3          1           0       -0.841220   -3.316574    0.000000
      4          8           0        0.088229    2.853451    0.000000
      5          1           0        0.216348    3.827665    0.000000
      6          1           0       -0.874880    2.658700    0.000000
 ---------------------------------------------------------------------

 SCF Done:  E(RHF) =  -152.107728001     A.U. after   10 cycles
 E2 =    -0.5258583907D+00 EUMP2 =    -0.15263358639210D+03
 CCSD(T)
 CCSD(T)= -0.15266079960D+03

 The electronic state is 1-A'.
 Alpha  occ. eigenvalues --  -20.56160 -20.55288  -1.33462  -1.32590  -0.70874
 Alpha  occ. eigenvalues --   -0.69988  -0.56925  -0.56044  -0.50574  -0.49704
 Alpha virt. eigenvalues --    0.13128   0.14637   0.19176   0.21237   0.53429
 Alpha virt. eigenvalues --    0.54747   0.56607   0.57625   0.67035   0.68370
 Alpha virt. eigenvalues --    0.78314   0.79168   0.79701   0.80954   0.81712

 Mulliken charges:
               1
     1  O   -0.510137
     2  H    0.257659
     3  H    0.252445
     4  O   -0.511029
     5  H    0.257900
     6  H    0.253162
 Sum of Mulliken charges =  -0.00000

 Dipole moment (field-independent basis, Debye):
    X=             -3.0278    Y=              2.5273    Z=              0.0000  Tot=              3.9439
 Quadrupole moment (field-independent basis, Debye-Ang):
   XX=            -10.5488   YY=             -8.4398   ZZ=            -14.7123
   XY=              2.7005   XZ=              0.0000   YZ=              0.0000

 Normal termination of Gaussian 16 at Sun Aug 28 05:50:01 2022.
