 Gaussian 16, Revision A.03,
 Gaussian 16:  ES64L-G16RevA.03 25-Dec-2016

 ------------------
 #p CCSD(T)/cc-pVTZ
 ------------------

 ------------
 H2O_H2O_1420
 ------------
 Symbolic Z-matrix:
 Charge =  0 Multiplicity = 1

                         Standard orientation:
 ---------------------------------------------------------------------
 Center     Atomic      Atomic             Coordinates (Angstroms)
 Number     Number       Type             X           Y           Z
 ---------------------------------------------------------------------
      1          8           0        0.026751    1.667246    0.000000
      2          1           0        0.023192    0.684651    0.000000
      3          1           0       -0.901581    1.989278    0.000000
      4          8           0        0.026751   -1.494080   -0.000000
      5          1           0        0.974945   -1.751832   -0.000000
      6          1           0       -0.524577   -2.307432   -0.000000
 ---------------------------------------------------------------------

 SCF Done:  E(RHF) =  -152.113891480     A.U. after   10 cycles
 E2 =    -0.5272603630D+00 EUMP2 =    -0.15264115184330D+03
 CCSD(T)
 CCSD(T)= -0.15266813650D+03

 The electronic state is 1-A'.
 Alpha  occ. eigenvalues --  -20.58033 -20.52882  -1.35353  -1.30350  -0.72741
 Alpha  occ. eigenvalues --   -0.68037  -0.59189  -0.53656  -0.52471  -0.47503
 Alpha virt. eigenvalues --    0.12120   0.17796   0.18925   0.29483   0.50248
 Alpha virt. eigenvalues --    0.54345   0.55877   0.60680   0.68795   0.72986
 Alpha virt. eigenvalues --    0.73948   0.77073   0.81613   0.82855   0.84546

 Mulliken charges:
               1
     1  O   -0.547529
     2  H    0.278759
     3  H    0.249867
     4  O   -0.501996
     5  H    0.264706
     6  H    0.256193
 Sum of Mulliken charges =  -0.00000

 Dipole moment (field-independent basis, Debye):
    X=             -0.9005    Y=             -3.4287    Z=             -0.0000  Tot=              3.5450
 Quadrupole moment (field-independent basis, Debye-Ang):
   XX=             -9.2875   YY=             -8.4182   ZZ=            -14.7335
   XY=             -4.0703   XZ=             -0.0000   YZ=              0.0000

 Normal termination of Gaussian 16 at Sat Aug 27 00:28:29 2022.
