 Gaussian 16, Revision A.03,
 Gaussian 16:  ES64L-G16RevA.03 25-Dec-2016

 ------------------
 #p CCSD(T)/cc-pVTZ
 ------------------

 ------------
 H2O_H2O_4583
 ------------
 Symbolic Z-matrix:
 Charge =  0 Multiplicity = 1

                         Standard orientation:
 ---------------------------------------------------------------------
 Center     Atomic      Atomic             Coordinates (Angstroms)
 Number     Number       Type             X           Y           Z
 ---------------------------------------------------------------------
      1          8           0        0.070183    2.932095    0.000000
      2          1           0        0.069505    1.949494    0.000000
      3          1           0       -0.859089    3.251403    0.000000
      4          8           0        0.070183   -2.761825   -0.000000
      5          1           0        0.560897   -3.613122   -0.000000
      6          1           0       -0.894245   -2.949933   -0.000000
 ---------------------------------------------------------------------

 SCF Done:  E(RHF) =  -152.108141736     A.U. after   10 cycles
 E2 =    -0.5258300281D+00 EUMP2 =    -0.15263397176376D+03
 CCSD(T)
 CCSD(T)= -0.15266117502D+03

 The electronic state is 1-A'.
 Alpha  occ. eigenvalues --  -20.56179 -20.55051  -1.33481  -1.32357  -0.70889
 Alpha  occ. eigenvalues --   -0.69755  -0.56962  -0.55821  -0.50597  -0.49476
 Alpha virt. eigenvalues --    0.13299   0.14827   0.19569   0.21042   0.53550
 Alpha virt. eigenvalues --    0.54846   0.56641   0.57754   0.66903   0.68639
 Alpha virt. eigenvalues --    0.78290   0.79385   0.79545   0.80543   0.82446

 Mulliken charges:
               1
     1  O   -0.512297
     2  H    0.259617
     3  H    0.252590
     4  O   -0.513217
     5  H    0.258397
     6  H    0.254911
 Sum of Mulliken charges =  -0.00000

 Dipole moment (field-independent basis, Debye):
    X=             -2.4072    Y=             -2.9867    Z=             -0.0000  Tot=              3.8360
 Quadrupole moment (field-independent basis, Debye-Ang):
   XX=             -9.6790   YY=             -6.7714   ZZ=            -14.7138
   XY=             -4.2220   XZ=             -0.0000   YZ=              0.0000

 Normal termination of Gaussian 16 at Sun Aug 28 04:08:20 2022.
