 Gaussian 16, Revision A.03,
 Gaussian 16:  ES64L-G16RevA.03 25-Dec-2016

 ------------------
 #p CCSD(T)/cc-pVTZ
 ------------------

 -----------
 H2O_H2O_189
 -----------
 Symbolic Z-matrix:
 Charge =  0 Multiplicity = 1

                         Standard orientation:
 ---------------------------------------------------------------------
 Center     Atomic      Atomic             Coordinates (Angstroms)
 Number     Number       Type             X           Y           Z
 ---------------------------------------------------------------------
      1          8           0        0.048746    1.182450    0.000000
      2          1           0        0.045299    0.199855    0.000000
      3          1           0       -0.879623    1.504376   -0.000000
      4          8           0        0.048746   -1.002238    0.000000
      5          1           0        0.826194   -1.603139    0.000000
      6          1           0       -0.771810   -1.542788   -0.000000
 ---------------------------------------------------------------------

 SCF Done:  E(RHF) =  -152.067325145     A.U. after   11 cycles
 E2 =    -0.5345611729D+00 EUMP2 =    -0.15260188631798D+03
 CCSD(T)
 CCSD(T)= -0.15262768740D+03

 The electronic state is 1-A'.
 Alpha  occ. eigenvalues --  -20.61519 -20.45581  -1.41872  -1.25259  -0.77190
 Alpha  occ. eigenvalues --   -0.76376  -0.57523  -0.55838  -0.45951  -0.41906
 Alpha virt. eigenvalues --    0.10621   0.16770   0.20802   0.33243   0.47073
 Alpha virt. eigenvalues --    0.52459   0.63002   0.64588   0.70767   0.71439
 Alpha virt. eigenvalues --    0.78887   0.80119   0.80705   0.82065   0.85287

 Mulliken charges:
               1
     1  O   -0.653693
     2  H    0.301316
     3  H    0.209653
     4  O   -0.355527
     5  H    0.253880
     6  H    0.244371
 Sum of Mulliken charges =  -0.00000

 Dipole moment (field-independent basis, Debye):
    X=             -1.4983    Y=             -4.8396    Z=             -0.0000  Tot=              5.0662
 Quadrupole moment (field-independent basis, Debye-Ang):
   XX=             -9.1397   YY=             -9.9953   ZZ=            -14.5994
   XY=             -2.7753   XZ=              0.0000   YZ=             -0.0000

 Normal termination of Gaussian 16 at Fri Aug 26 16:28:46 2022.
