 Gaussian 16, Revision A.03,
 Gaussian 16:  ES64L-G16RevA.03 25-Dec-2016

 ------------------
 #p CCSD(T)/cc-pVTZ
 ------------------

 ------------
 H2O_H2O_1666
 ------------
 Symbolic Z-matrix:
 Charge =  0 Multiplicity = 1

                         Standard orientation:
 ---------------------------------------------------------------------
 Center     Atomic      Atomic             Coordinates (Angstroms)
 Number     Number       Type             X           Y           Z
 ---------------------------------------------------------------------
      1          8           0        0.041202    1.770601    0.000000
      2          1           0        0.038586    0.788004    0.000000
      3          1           0       -0.887439    2.091742    0.000000
      4          8           0        0.041202   -1.590734   -0.000000
      5          1           0        0.890849   -2.084298   -0.000000
      6          1           0       -0.701234   -2.234390   -0.000000
 ---------------------------------------------------------------------

 SCF Done:  E(RHF) =  -152.113512881     A.U. after   10 cycles
 E2 =    -0.5268191232D+00 EUMP2 =    -0.15264033200418D+03
 CCSD(T)
 CCSD(T)= -0.15266735427D+03

 The electronic state is 1-A'.
 Alpha  occ. eigenvalues --  -20.57730 -20.53204  -1.34993  -1.30612  -0.72352
 Alpha  occ. eigenvalues --   -0.68152  -0.58788  -0.54009  -0.52131  -0.47768
 Alpha virt. eigenvalues --    0.12146   0.17452   0.19010   0.28068   0.50681
 Alpha virt. eigenvalues --    0.54533   0.56215   0.59422   0.69008   0.72261
 Alpha virt. eigenvalues --    0.74995   0.76965   0.81239   0.83190   0.84699

 Mulliken charges:
               1
     1  O   -0.537787
     2  H    0.274035
     3  H    0.248099
     4  O   -0.507510
     5  H    0.264247
     6  H    0.258917
 Sum of Mulliken charges =  -0.00000

 Dipole moment (field-independent basis, Debye):
    X=             -1.3867    Y=             -3.4724    Z=             -0.0000  Tot=              3.7390
 Quadrupole moment (field-independent basis, Debye-Ang):
   XX=             -9.1524   YY=             -8.1350   ZZ=            -14.7341
   XY=             -3.9725   XZ=             -0.0000   YZ=              0.0000

 Normal termination of Gaussian 16 at Sun Aug 28 00:26:41 2022.
