 Gaussian 16, Revision A.03,
 Gaussian 16:  ES64L-G16RevA.03 25-Dec-2016

 ------------------
 #p CCSD(T)/cc-pVTZ
 ------------------

 -----------
 H2O_H2O_101
 -----------
 Symbolic Z-matrix:
 Charge =  0 Multiplicity = 1

                         Standard orientation:
 ---------------------------------------------------------------------
 Center     Atomic      Atomic             Coordinates (Angstroms)
 Number     Number       Type             X           Y           Z
 ---------------------------------------------------------------------
      1          8           0        0.090691   -1.129967    0.000000
      2          1           0        0.090510   -0.147365    0.000000
      3          1           0       -0.838743   -1.448805    0.000000
      4          8           0        0.090691    0.991276    0.000000
      5          1           0        0.154776    1.971786    0.000000
      6          1           0       -0.857606    0.733909    0.000000
 ---------------------------------------------------------------------

 SCF Done:  E(RHF) =  -152.032655654     A.U. after   11 cycles
 E2 =    -0.5388285676D+00 EUMP2 =    -0.15257148422123D+03
 CCSD(T)
 CCSD(T)= -0.15259711944D+03

 The electronic state is 1-A'.
 Alpha  occ. eigenvalues --  -20.61475 -20.47545  -1.43887  -1.26849  -0.83525
 Alpha  occ. eigenvalues --   -0.70535  -0.57927  -0.56751  -0.48218  -0.43654
 Alpha virt. eigenvalues --    0.10716   0.15842   0.21829   0.31602   0.49258
 Alpha virt. eigenvalues --    0.50670   0.59900   0.67111   0.70998   0.72608
 Alpha virt. eigenvalues --    0.75017   0.78464   0.79745   0.85277   0.85782

 Mulliken charges:
               1
     1  O   -0.599176
     2  H    0.257353
     3  H    0.187437
     4  O   -0.309970
     5  H    0.226410
     6  H    0.237946
 Sum of Mulliken charges =  -0.00000

 Dipole moment (field-independent basis, Debye):
    X=             -2.8176    Y=              3.9991    Z=              0.0000  Tot=              4.8920
 Quadrupole moment (field-independent basis, Debye-Ang):
   XX=            -10.6520   YY=             -9.9520   ZZ=            -14.5165
   XY=              2.0291   XZ=              0.0000   YZ=              0.0000

 Normal termination of Gaussian 16 at Fri Aug 26 15:51:53 2022.
