 Gaussian 16, Revision A.03,
 Gaussian 16:  ES64L-G16RevA.03 25-Dec-2016

 ------------------
 #p CCSD(T)/cc-pVTZ
 ------------------

 ------------
 H2O_H2O_3329
 ------------
 Symbolic Z-matrix:
 Charge =  0 Multiplicity = 1

                         Standard orientation:
 ---------------------------------------------------------------------
 Center     Atomic      Atomic             Coordinates (Angstroms)
 Number     Number       Type             X           Y           Z
 ---------------------------------------------------------------------
      1          8           0        0.082803    2.424943    0.000000
      2          1           0        0.082436    1.442342    0.000000
      3          1           0       -0.846571    2.743957   -0.000000
      4          8           0        0.082803   -2.270423    0.000000
      5          1           0        0.336765   -3.219639    0.000000
      6          1           0       -0.897471   -2.202820   -0.000000
 ---------------------------------------------------------------------

 SCF Done:  E(RHF) =  -152.108487761     A.U. after   10 cycles
 E2 =    -0.5259549444D+00 EUMP2 =    -0.15263444270550D+03
 CCSD(T)
 CCSD(T)= -0.15266162247D+03

 The electronic state is 1-A'.
 Alpha  occ. eigenvalues --  -20.56514 -20.54934  -1.33807  -1.32241  -0.71225
 Alpha  occ. eigenvalues --   -0.69628  -0.57293  -0.55704  -0.50922  -0.49361
 Alpha virt. eigenvalues --    0.12120   0.15477   0.19309   0.22324   0.53584
 Alpha virt. eigenvalues --    0.55010   0.56417   0.58159   0.67226   0.69152
 Alpha virt. eigenvalues --    0.77984   0.78606   0.79496   0.80864   0.82727

 Mulliken charges:
               1
     1  O   -0.512516
     2  H    0.260906
     3  H    0.250367
     4  O   -0.511583
     5  H    0.259847
     6  H    0.252980
 Sum of Mulliken charges =  -0.00000

 Dipole moment (field-independent basis, Debye):
    X=             -2.8262    Y=             -2.7558    Z=             -0.0000  Tot=              3.9474
 Quadrupole moment (field-independent basis, Debye-Ang):
   XX=            -10.2514   YY=             -8.1180   ZZ=            -14.7148
   XY=             -3.0313   XZ=             -0.0000   YZ=             -0.0000

 Normal termination of Gaussian 16 at Fri Aug 26 21:05:58 2022.
