 Gaussian 16, Revision A.03,
 Gaussian 16:  ES64L-G16RevA.03 25-Dec-2016

 ------------------
 #p CCSD(T)/cc-pVTZ
 ------------------

 ------------
 H2O_H2O_4662
 ------------
 Symbolic Z-matrix:
 Charge =  0 Multiplicity = 1

                         Standard orientation:
 ---------------------------------------------------------------------
 Center     Atomic      Atomic             Coordinates (Angstroms)
 Number     Number       Type             X           Y           Z
 ---------------------------------------------------------------------
      1          8           0        0.055963    2.966722   -0.000000
      2          1           0        0.054872    1.984121   -0.000000
      3          1           0       -0.873176    3.286420    0.000000
      4          8           0        0.055963   -2.787780   -0.000000
      5          1           0        0.749996   -3.483355   -0.000000
      6          1           0       -0.827099   -3.218720    0.000000
 ---------------------------------------------------------------------

 SCF Done:  E(RHF) =  -152.108283700     A.U. after   10 cycles
 E2 =    -0.5258138849D+00 EUMP2 =    -0.15263409758513D+03
 CCSD(T)
 CCSD(T)= -0.15266129827D+03

 The electronic state is 1-A'.
 Alpha  occ. eigenvalues --  -20.56160 -20.54991  -1.33462  -1.32298  -0.70867
 Alpha  occ. eigenvalues --   -0.69698  -0.56949  -0.55766  -0.50579  -0.49419
 Alpha virt. eigenvalues --    0.13420   0.14851   0.19698   0.20976   0.53669
 Alpha virt. eigenvalues --    0.54831   0.56677   0.57779   0.66926   0.68651
 Alpha virt. eigenvalues --    0.78306   0.79439   0.79677   0.80328   0.82523

 Mulliken charges:
               1
     1  O   -0.513190
     2  H    0.260027
     3  H    0.253081
     4  O   -0.513974
     5  H    0.258184
     6  H    0.255872
 Sum of Mulliken charges =  -0.00000

 Dipole moment (field-independent basis, Debye):
    X=             -1.9199    Y=             -3.1371    Z=             -0.0000  Tot=              3.6780
 Quadrupole moment (field-independent basis, Debye-Ang):
   XX=             -9.2850   YY=             -6.2001   ZZ=            -14.7144
   XY=             -5.2058   XZ=             -0.0000   YZ=              0.0000

 Normal termination of Gaussian 16 at Sun Aug 28 04:43:19 2022.
