 Gaussian 16, Revision A.03,
 Gaussian 16:  ES64L-G16RevA.03 25-Dec-2016

 ------------------
 #p CCSD(T)/cc-pVTZ
 ------------------

 -----------
 H2O_H2O_301
 -----------
 Symbolic Z-matrix:
 Charge =  0 Multiplicity = 1

                         Standard orientation:
 ---------------------------------------------------------------------
 Center     Atomic      Atomic             Coordinates (Angstroms)
 Number     Number       Type             X           Y           Z
 ---------------------------------------------------------------------
      1          8           0        0.090691   -1.209743    0.000000
      2          1           0        0.090522   -0.227142    0.000000
      3          1           0       -0.838748   -1.528569    0.000000
      4          8           0        0.090691    1.071050    0.000000
      5          1           0        0.154787    2.051559    0.000000
      6          1           0       -0.857611    0.813695    0.000000
 ---------------------------------------------------------------------

 SCF Done:  E(RHF) =  -152.069463465     A.U. after   11 cycles
 E2 =    -0.5359017093D+00 EUMP2 =    -0.15260536517386D+03
 CCSD(T)
 CCSD(T)= -0.15263148986D+03

 The electronic state is 1-A'.
 Alpha  occ. eigenvalues --  -20.60708 -20.49604  -1.40906  -1.28191  -0.80473
 Alpha  occ. eigenvalues --   -0.68974  -0.58466  -0.56336  -0.50359  -0.45087
 Alpha virt. eigenvalues --    0.11005   0.16175   0.21382   0.32199   0.49076
 Alpha virt. eigenvalues --    0.51233   0.59439   0.66426   0.71378   0.72718
 Alpha virt. eigenvalues --    0.75663   0.76158   0.79250   0.82833   0.84912

 Mulliken charges:
               1
     1  O   -0.579311
     2  H    0.273450
     3  H    0.202242
     4  O   -0.355121
     5  H    0.226973
     6  H    0.231768
 Sum of Mulliken charges =  -0.00000

 Dipole moment (field-independent basis, Debye):
    X=             -2.8702    Y=              3.6509    Z=              0.0000  Tot=              4.6441
 Quadrupole moment (field-independent basis, Debye-Ang):
   XX=            -10.7010   YY=             -9.6660   ZZ=            -14.5835
   XY=              2.0987   XZ=              0.0000   YZ=              0.0000

 Normal termination of Gaussian 16 at Fri Aug 26 17:16:49 2022.
