 Gaussian 16, Revision A.03,
 Gaussian 16:  ES64L-G16RevA.03 25-Dec-2016

 ------------------
 #p CCSD(T)/cc-pVTZ
 ------------------

 ------------
 H2O_H2O_3811
 ------------
 Symbolic Z-matrix:
 Charge =  0 Multiplicity = 1

                         Standard orientation:
 ---------------------------------------------------------------------
 Center     Atomic      Atomic             Coordinates (Angstroms)
 Number     Number       Type             X           Y           Z
 ---------------------------------------------------------------------
      1          8           0        0.059629    2.626873    0.000000
      2          1           0        0.058515    1.644272    0.000000
      3          1           0       -0.869502    2.946593    0.000000
      4          8           0        0.059629   -2.449411   -0.000000
      5          1           0        0.706665   -3.188905   -0.000000
      6          1           0       -0.849736   -2.821652   -0.000000
 ---------------------------------------------------------------------

 SCF Done:  E(RHF) =  -152.108745060     A.U. after   10 cycles
 E2 =    -0.5258457171D+00 EUMP2 =    -0.15263459077686D+03
 CCSD(T)
 CCSD(T)= -0.15266177310D+03

 The electronic state is 1-A'.
 Alpha  occ. eigenvalues --  -20.56347 -20.54796  -1.33643  -1.32107  -0.71048
 Alpha  occ. eigenvalues --   -0.69503  -0.57146  -0.55581  -0.50763  -0.49232
 Alpha virt. eigenvalues --    0.12906   0.15285   0.19573   0.21465   0.53453
 Alpha virt. eigenvalues --    0.54971   0.56529   0.57893   0.66727   0.69186
 Alpha virt. eigenvalues --    0.78135   0.79093   0.79615   0.79878   0.82902

 Mulliken charges:
               1
     1  O   -0.514694
     2  H    0.261849
     3  H    0.252163
     4  O   -0.514932
     5  H    0.259521
     6  H    0.256093
 Sum of Mulliken charges =  -0.00000

 Dipole moment (field-independent basis, Debye):
    X=             -2.0403    Y=             -3.1411    Z=             -0.0000  Tot=              3.7455
 Quadrupole moment (field-independent basis, Debye-Ang):
   XX=             -9.3626   YY=             -6.8049   ZZ=            -14.7160
   XY=             -4.5787   XZ=             -0.0000   YZ=              0.0000

 CCSD(T)=-152.6617731\RMSD=7.097e-09\PG=CS [SG(H4O2)]\\@
 Normal termination of Gaussian 16 at Fri Aug 26 23:48:45 2022.
