 Gaussian 16, Revision A.03,
 Gaussian 16:  ES64L-G16RevA.03 25-Dec-2016

 ------------------
 #p CCSD(T)/cc-pVTZ
 ------------------

 -----------
 H2O_H2O_251
 -----------
 Symbolic Z-matrix:
 Charge =  0 Multiplicity = 1

                         Standard orientation:
 ---------------------------------------------------------------------
 Center     Atomic      Atomic             Coordinates (Angstroms)
 Number     Number       Type             X           Y           Z
 ---------------------------------------------------------------------
      1          8           0        0.090691   -1.189799    0.000000
      2          1           0        0.090519   -0.207198    0.000000
      3          1           0       -0.838747   -1.508628    0.000000
      4          8           0        0.090691    1.051107    0.000000
      5          1           0        0.154785    2.031615    0.000000
      6          1           0       -0.857609    0.793748    0.000000
 ---------------------------------------------------------------------

 SCF Done:  E(RHF) =  -152.062289119     A.U. after   11 cycles
 E2 =    -0.5365909999D+00 EUMP2 =    -0.15259888011895D+03
 CCSD(T)
 CCSD(T)= -0.15262489279D+03

 The electronic state is 1-A'.
 Alpha  occ. eigenvalues --  -20.60896 -20.49140  -1.41538  -1.27881  -0.81168
 Alpha  occ. eigenvalues --   -0.69296  -0.58101  -0.56695  -0.49887  -0.44757
 Alpha virt. eigenvalues --    0.10941   0.16108   0.21481   0.32095   0.49167
 Alpha virt. eigenvalues --    0.51084   0.59545   0.66636   0.71364   0.72778
 Alpha virt. eigenvalues --    0.75823   0.76522   0.79382   0.83103   0.85196

 Mulliken charges:
               1
     1  O   -0.583535
     2  H    0.269955
     3  H    0.198883
     4  O   -0.344997
     5  H    0.226673
     6  H    0.233022
 Sum of Mulliken charges =  -0.00000

 Dipole moment (field-independent basis, Debye):
    X=             -2.8581    Y=              3.7317    Z=              0.0000  Tot=              4.7004
 Quadrupole moment (field-independent basis, Debye-Ang):
   XX=            -10.6907   YY=             -9.7306   ZZ=            -14.5689
   XY=              2.0829   XZ=              0.0000   YZ=              0.0000

 Normal termination of Gaussian 16 at Fri Aug 26 16:55:09 2022.
