 Gaussian 16, Revision A.03,
 Gaussian 16:  ES64L-G16RevA.03 25-Dec-2016

 ------------------
 #p CCSD(T)/cc-pVTZ
 ------------------

 -----------
 H2O_H2O_900
 -----------
 Symbolic Z-matrix:
 Charge =  0 Multiplicity = 1

                         Standard orientation:
 ---------------------------------------------------------------------
 Center     Atomic      Atomic             Coordinates (Angstroms)
 Number     Number       Type             X           Y           Z
 ---------------------------------------------------------------------
      1          8           0        0.092949   -1.445861    0.000000
      2          1           0        0.092949   -0.463260    0.000000
      3          1           0       -0.836544   -1.764528    0.000000
      4          8           0        0.092949    1.313074    0.000000
      5          1           0        0.092950    2.295676    0.000000
      6          1           0       -0.836544    0.994408    0.000000
 ---------------------------------------------------------------------

 SCF Done:  E(RHF) =  -152.103871776     A.U. after   10 cycles
 E2 =    -0.5302726592D+00 EUMP2 =    -0.15263414443561D+03
 CCSD(T)
 CCSD(T)= -0.15266106595D+03

 The electronic state is 1-A'.
 Alpha  occ. eigenvalues --  -20.58902 -20.53302  -1.36734  -1.30885  -0.75294
 Alpha  occ. eigenvalues --   -0.68045  -0.59667  -0.54019  -0.53527  -0.47923
 Alpha virt. eigenvalues --    0.11432   0.16387   0.20853   0.30994   0.48145
 Alpha virt. eigenvalues --    0.52687   0.58424   0.61633   0.68381   0.71315
 Alpha virt. eigenvalues --    0.73776   0.78410   0.79553   0.81990   0.82821

 Mulliken charges:
               1
     1  O   -0.537305
     2  H    0.284460
     3  H    0.227875
     4  O   -0.439285
     5  H    0.235931
     6  H    0.228324
 Sum of Mulliken charges =  -0.00000

 Dipole moment (field-independent basis, Debye):
    X=             -3.0485    Y=              2.8678    Z=              0.0000  Tot=              4.1855
 Quadrupole moment (field-independent basis, Debye-Ang):
   XX=            -10.9023   YY=             -9.2661   ZZ=            -14.6805
   XY=              2.0707   XZ=              0.0000   YZ=              0.0000

 Normal termination of Gaussian 16 at Fri Aug 26 21:13:30 2022.
