 Gaussian 16, Revision A.03,
 Gaussian 16:  ES64L-G16RevA.03 25-Dec-2016

 ------------------
 #p CCSD(T)/cc-pVTZ
 ------------------

 ------------
 H2O_H2O_1609
 ------------
 Symbolic Z-matrix:
 Charge =  0 Multiplicity = 1

                         Standard orientation:
 ---------------------------------------------------------------------
 Center     Atomic      Atomic             Coordinates (Angstroms)
 Number     Number       Type             X           Y           Z
 ---------------------------------------------------------------------
      1          8           0        0.066792    1.746953    0.000000
      2          1           0        0.065453    0.764352    0.000000
      3          1           0       -0.862266    2.066885    0.000000
      4          8           0        0.066792   -1.573897    0.000000
      5          1           0        0.611582   -2.391643    0.000000
      6          1           0       -0.883437   -1.824039    0.000000
 ---------------------------------------------------------------------

 SCF Done:  E(RHF) =  -152.112643438     A.U. after   10 cycles
 E2 =    -0.5270259810D+00 EUMP2 =    -0.15263966941921D+03
 CCSD(T)
 CCSD(T)= -0.15266669846D+03

 The electronic state is 1-A'.
 Alpha  occ. eigenvalues --  -20.57796 -20.53378  -1.35078  -1.30779  -0.72480
 Alpha  occ. eigenvalues --   -0.68289  -0.58804  -0.54157  -0.52199  -0.47918
 Alpha virt. eigenvalues --    0.11940   0.17064   0.19315   0.28069   0.49962
 Alpha virt. eigenvalues --    0.55172   0.56540   0.58813   0.69478   0.73025
 Alpha virt. eigenvalues --    0.74740   0.76986   0.81155   0.83032   0.84297

 Mulliken charges:
               1
     1  O   -0.532881
     2  H    0.274478
     3  H    0.243521
     4  O   -0.501928
     5  H    0.261615
     6  H    0.255195
 Sum of Mulliken charges =  -0.00000

 Dipole moment (field-independent basis, Debye):
    X=             -2.2416    Y=             -3.3524    Z=              0.0000  Tot=              4.0328
 Quadrupole moment (field-independent basis, Debye-Ang):
   XX=             -9.5818   YY=             -8.2736   ZZ=            -14.7300
   XY=             -3.3748   XZ=              0.0000   YZ=              0.0000

 Normal termination of Gaussian 16 at Sat Aug 27 23:52:25 2022.
