 Gaussian 16, Revision A.03,
 Gaussian 16:  ES64L-G16RevA.03 25-Dec-2016

 ------------------
 #p CCSD(T)/cc-pVTZ
 ------------------

 ------------
 H2O_H2O_1826
 ------------
 Symbolic Z-matrix:
 Charge =  0 Multiplicity = 1

                         Standard orientation:
 ---------------------------------------------------------------------
 Center     Atomic      Atomic             Coordinates (Angstroms)
 Number     Number       Type             X           Y           Z
 ---------------------------------------------------------------------
      1          8           0        0.090686   -1.818037    0.000000
      2          1           0        0.090576   -0.835435    0.000000
      3          1           0       -0.838771   -2.136807    0.000000
      4          8           0        0.090686    1.679333    0.000000
      5          1           0        0.154842    2.659838    0.000000
      6          1           0       -0.857630    1.422034    0.000000
 ---------------------------------------------------------------------

 SCF Done:  E(RHF) =  -152.109375888     A.U. after   10 cycles
 E2 =    -0.5269485586D+00 EUMP2 =    -0.15263632444662D+03
 CCSD(T)
 CCSD(T)= -0.15266343826D+03

 The electronic state is 1-A'.
 Alpha  occ. eigenvalues --  -20.57480 -20.54593  -1.34787  -1.31918  -0.72358
 Alpha  occ. eigenvalues --   -0.69218  -0.58303  -0.55328  -0.51875  -0.49029
 Alpha virt. eigenvalues --    0.11521   0.16236   0.20194   0.26270   0.51271
 Alpha virt. eigenvalues --    0.55232   0.57328   0.57445   0.68136   0.74235
 Alpha virt. eigenvalues --    0.75373   0.78180   0.80166   0.82658   0.83263

 Mulliken charges:
               1
     1  O   -0.517807
     2  H    0.267990
     3  H    0.243019
     4  O   -0.495293
     5  H    0.256550
     6  H    0.245541
 Sum of Mulliken charges =  -0.00000

 Dipole moment (field-independent basis, Debye):
    X=             -3.0487    Y=              2.6239    Z=              0.0000  Tot=              4.0224
 Quadrupole moment (field-independent basis, Debye-Ang):
   XX=            -10.7413   YY=             -8.9651   ZZ=            -14.7153
   XY=              2.3109   XZ=              0.0000   YZ=              0.0000

 Normal termination of Gaussian 16 at Sun Aug 28 01:56:46 2022.
