 Gaussian 16, Revision A.03,
 Gaussian 16:  ES64L-G16RevA.03 25-Dec-2016

 ------------------
 #p CCSD(T)/cc-pVTZ
 ------------------

 ------------
 H2O_H2O_3424
 ------------
 Symbolic Z-matrix:
 Charge =  0 Multiplicity = 1

                         Standard orientation:
 ---------------------------------------------------------------------
 Center     Atomic      Atomic             Coordinates (Angstroms)
 Number     Number       Type             X           Y           Z
 ---------------------------------------------------------------------
      1          8           0       -0.013508    2.457447    0.000000
      2          1           0       -0.010673    1.474849    0.000000
      3          1           0        0.915062    2.778793    0.000000
      4          8           0       -0.013508   -2.298181    0.000000
      5          1           0       -0.996106   -2.301015    0.000000
      6          1           0        0.307839   -3.226751    0.000000
 ---------------------------------------------------------------------

 SCF Done:  E(RHF) =  -152.109182256     A.U. after   10 cycles
 E2 =    -0.5258544216D+00 EUMP2 =    -0.15263503667738D+03
 CCSD(T)
 CCSD(T)= -0.15266220601D+03

 The electronic state is 1-A'.
 Alpha  occ. eigenvalues --  -20.56449 -20.54835  -1.33745  -1.32149  -0.71154
 Alpha  occ. eigenvalues --   -0.69557  -0.57262  -0.55634  -0.50868  -0.49280
 Alpha virt. eigenvalues --    0.12411   0.15554   0.19191   0.22461   0.53381
 Alpha virt. eigenvalues --    0.55410   0.56529   0.57977   0.67084   0.69253
 Alpha virt. eigenvalues --    0.78032   0.78658   0.79563   0.80801   0.82923

 Mulliken charges:
               1
     1  O   -0.517430
     2  H    0.261178
     3  H    0.255055
     4  O   -0.515804
     5  H    0.257820
     6  H    0.259181
 Sum of Mulliken charges =   0.00000

 Dipole moment (field-independent basis, Debye):
    X=              0.4653    Y=             -2.8343    Z=              0.0000  Tot=              2.8723
 Quadrupole moment (field-independent basis, Debye-Ang):
   XX=             -9.6478   YY=             -7.8414   ZZ=            -14.7173
   XY=              6.6479   XZ=              0.0000   YZ=              0.0000

 Normal termination of Gaussian 16 at Fri Aug 26 21:37:22 2022.
