 Gaussian 16, Revision A.03,
 Gaussian 16:  ES64L-G16RevA.03 25-Dec-2016

 ------------------
 #p CCSD(T)/cc-pVTZ
 ------------------

 ------------
 H2O_H2O_4968
 ------------
 Symbolic Z-matrix:
 Charge =  0 Multiplicity = 1

                         Standard orientation:
 ---------------------------------------------------------------------
 Center     Atomic      Atomic             Coordinates (Angstroms)
 Number     Number       Type             X           Y           Z
 ---------------------------------------------------------------------
      1          8           0        0.033741    3.085637    0.000000
      2          1           0        0.032066    2.103037    0.000000
      3          1           0       -0.895207    3.405888   -0.000000
      4          8           0        0.033741   -2.908077    0.000000
      5          1           0        0.940905   -3.285649    0.000000
      6          1           0       -0.617626   -3.643759   -0.000000
 ---------------------------------------------------------------------

 SCF Done:  E(RHF) =  -152.108275214     A.U. after   10 cycles
 E2 =    -0.5258022057D+00 EUMP2 =    -0.15263407741933D+03
 CCSD(T)
 CCSD(T)= -0.15266127967D+03

 The electronic state is 1-A'.
 Alpha  occ. eigenvalues --  -20.56109 -20.55048  -1.33412  -1.32354  -0.70816
 Alpha  occ. eigenvalues --   -0.69758  -0.56899  -0.55823  -0.50530  -0.49476
 Alpha virt. eigenvalues --    0.13541   0.14761   0.19734   0.20894   0.53719
 Alpha virt. eigenvalues --    0.54794   0.56728   0.57756   0.67075   0.68483
 Alpha virt. eigenvalues --    0.78353   0.79384   0.79749   0.80565   0.82150

 Mulliken charges:
               1
     1  O   -0.513446
     2  H    0.259371
     3  H    0.254043
     4  O   -0.513988
     5  H    0.257313
     6  H    0.256707
 Sum of Mulliken charges =  -0.00000

 Dipole moment (field-independent basis, Debye):
    X=             -1.1588    Y=             -3.1058    Z=             -0.0000  Tot=              3.3149
 Quadrupole moment (field-independent basis, Debye-Ang):
   XX=             -9.1872   YY=             -6.0873   ZZ=            -14.7144
   XY=             -6.8292   XZ=              0.0000   YZ=             -0.0000

 Normal termination of Gaussian 16 at Sun Aug 28 07:17:54 2022.
