 Gaussian 16, Revision A.03,
 Gaussian 16:  ES64L-G16RevA.03 25-Dec-2016

 ------------------
 #p CCSD(T)/cc-pVTZ
 ------------------

 -----------
 H2O_H2O_766
 -----------
 Symbolic Z-matrix:
 Charge =  0 Multiplicity = 1

                         Standard orientation:
 ---------------------------------------------------------------------
 Center     Atomic      Atomic             Coordinates (Angstroms)
 Number     Number       Type             X           Y           Z
 ---------------------------------------------------------------------
      1          8           0        0.041267    1.411584    0.000000
      2          1           0        0.037940    0.428988    0.000000
      3          1           0       -0.887141    1.733396    0.000000
      4          8           0        0.041267   -1.231776   -0.000000
      5          1           0        0.890557   -1.725955   -0.000000
      6          1           0       -0.701635   -1.874895   -0.000000
 ---------------------------------------------------------------------

 SCF Done:  E(RHF) =  -152.110173547     A.U. after   10 cycles
 E2 =    -0.5298108085D+00 EUMP2 =    -0.15263998435533D+03
 CCSD(T)
 CCSD(T)= -0.15266665266D+03

 The electronic state is 1-A'.
 Alpha  occ. eigenvalues --  -20.59417 -20.50411  -1.37226  -1.28396  -0.74243
 Alpha  occ. eigenvalues --   -0.69005  -0.59549  -0.54160  -0.51049  -0.45452
 Alpha virt. eigenvalues --    0.11632   0.18083   0.19179   0.33069   0.47859
 Alpha virt. eigenvalues --    0.54280   0.58372   0.62929   0.69153   0.72185
 Alpha virt. eigenvalues --    0.72438   0.77992   0.81832   0.82990   0.84465

 Mulliken charges:
               1
     1  O   -0.590398
     2  H    0.308409
     3  H    0.236569
     4  O   -0.473425
     5  H    0.264604
     6  H    0.254241
 Sum of Mulliken charges =  -0.00000

 Dipole moment (field-independent basis, Debye):
    X=             -1.3460    Y=             -3.9951    Z=             -0.0000  Tot=              4.2157
 Quadrupole moment (field-independent basis, Debye-Ang):
   XX=             -9.1350   YY=             -9.0598   ZZ=            -14.7089
   XY=             -3.2877   XZ=             -0.0000   YZ=              0.0000

 Normal termination of Gaussian 16 at Fri Aug 26 20:22:42 2022.
