 Gaussian 16, Revision A.03,
 Gaussian 16:  ES64L-G16RevA.03 25-Dec-2016

 ------------------
 #p CCSD(T)/cc-pVTZ
 ------------------

 ------------
 H2O_H2O_4711
 ------------
 Symbolic Z-matrix:
 Charge =  0 Multiplicity = 1

                         Standard orientation:
 ---------------------------------------------------------------------
 Center     Atomic      Atomic             Coordinates (Angstroms)
 Number     Number       Type             X           Y           Z
 ---------------------------------------------------------------------
      1          8           0        0.059616    2.985871   -0.000000
      2          1           0        0.058640    2.003270   -0.000000
      3          1           0       -0.869560    3.305460   -0.000000
      4          8           0        0.059616   -2.808393    0.000000
      5          1           0        0.706757   -3.547794    0.000000
      6          1           0       -0.849695   -3.180760    0.000000
 ---------------------------------------------------------------------

 SCF Done:  E(RHF) =  -152.108228415     A.U. after   10 cycles
 E2 =    -0.5258169488D+00 EUMP2 =    -0.15263404536420D+03
 CCSD(T)
 CCSD(T)= -0.15266124740D+03

 The electronic state is 1-A'.
 Alpha  occ. eigenvalues --  -20.56154 -20.55014  -1.33455  -1.32320  -0.70861
 Alpha  occ. eigenvalues --   -0.69720  -0.56940  -0.55787  -0.50573  -0.49441
 Alpha virt. eigenvalues --    0.13428   0.14821   0.19686   0.20959   0.53662
 Alpha virt. eigenvalues --    0.54824   0.56678   0.57767   0.66957   0.68612
 Alpha virt. eigenvalues --    0.78313   0.79419   0.79668   0.80412   0.82442

 Mulliken charges:
               1
     1  O   -0.512895
     2  H    0.259830
     3  H    0.252996
     4  O   -0.513695
     5  H    0.258151
     6  H    0.255613
 Sum of Mulliken charges =  -0.00000

 Dipole moment (field-independent basis, Debye):
    X=             -2.0454    Y=             -3.1103    Z=              0.0000  Tot=              3.7226
 Quadrupole moment (field-independent basis, Debye-Ang):
   XX=             -9.3615   YY=             -6.2583   ZZ=            -14.7142
   XY=             -4.9941   XZ=              0.0000   YZ=             -0.0000

 Normal termination of Gaussian 16 at Sun Aug 28 05:17:54 2022.
