 Gaussian 16, Revision A.03,
 Gaussian 16:  ES64L-G16RevA.03 25-Dec-2016

 ------------------
 #p CCSD(T)/cc-pVTZ
 ------------------

 ------------
 H2O_H2O_2781
 ------------
 Symbolic Z-matrix:
 Charge =  0 Multiplicity = 1

                         Standard orientation:
 ---------------------------------------------------------------------
 Center     Atomic      Atomic             Coordinates (Angstroms)
 Number     Number       Type             X           Y           Z
 ---------------------------------------------------------------------
      1          8           0        0.076761    2.210278    0.000000
      2          1           0        0.076116    1.227677    0.000000
      3          1           0       -0.852522    2.529555   -0.000000
      4          8           0        0.076761   -2.047076    0.000000
      5          1           0        0.452191   -2.955127    0.000000
      6          1           0       -0.903967   -2.107723   -0.000000
 ---------------------------------------------------------------------

 SCF Done:  E(RHF) =  -152.109390856     A.U. after   10 cycles
 E2 =    -0.5260743812D+00 EUMP2 =    -0.15263546523678D+03
 CCSD(T)
 CCSD(T)= -0.15266261043D+03

 The electronic state is 1-A'.
 Alpha  occ. eigenvalues --  -20.56768 -20.54612  -1.34048  -1.31927  -0.71466
 Alpha  occ. eigenvalues --   -0.69307  -0.57567  -0.55396  -0.51169  -0.49053
 Alpha virt. eigenvalues --    0.12050   0.15933   0.19454   0.23178   0.53784
 Alpha virt. eigenvalues --    0.55249   0.56293   0.58524   0.68646   0.69488
 Alpha virt. eigenvalues --    0.77679   0.78983   0.79802   0.80421   0.83034

 Mulliken charges:
               1
     1  O   -0.516167
     2  H    0.263792
     3  H    0.249018
     4  O   -0.509933
     5  H    0.259772
     6  H    0.253518
 Sum of Mulliken charges =  -0.00000

 Dipole moment (field-independent basis, Debye):
    X=             -2.6117    Y=             -2.9552    Z=             -0.0000  Tot=              3.9439
 Quadrupole moment (field-independent basis, Debye-Ang):
   XX=             -9.9593   YY=             -7.9268   ZZ=            -14.7177
   XY=             -3.3162   XZ=              0.0000   YZ=             -0.0000

 CCSD(T)=-152.6626104\RMSD=6.966e-09\PG=CS [SG(H4O2)]\\@
 Normal termination of Gaussian 16 at Fri Aug 26 17:16:26 2022.
