 Gaussian 16, Revision A.03,
 Gaussian 16:  ES64L-G16RevA.03 25-Dec-2016

 ------------------
 #p CCSD(T)/cc-pVTZ
 ------------------

 -----------
 H2O_H2O_385
 -----------
 Symbolic Z-matrix:
 Charge =  0 Multiplicity = 1

                         Standard orientation:
 ---------------------------------------------------------------------
 Center     Atomic      Atomic             Coordinates (Angstroms)
 Number     Number       Type             X           Y           Z
 ---------------------------------------------------------------------
      1          8           0        0.063329    1.259592    0.000000
      2          1           0        0.061177    0.276993    0.000000
      3          1           0       -0.865464    1.580293    0.000000
      4          8           0        0.063329   -1.084218   -0.000000
      5          1           0        0.659790   -1.865076   -0.000000
      6          1           0       -0.868764   -1.395202   -0.000000
 ---------------------------------------------------------------------

 SCF Done:  E(RHF) =  -152.090538256     A.U. after   11 cycles
 E2 =    -0.5330919867D+00 EUMP2 =    -0.15262363024263D+03
 CCSD(T)
 CCSD(T)= -0.15264981838D+03

 The electronic state is 1-A'.
 Alpha  occ. eigenvalues --  -20.60658 -20.48112  -1.39689  -1.26873  -0.76598
 Alpha  occ. eigenvalues --   -0.72127  -0.57708  -0.56013  -0.48672  -0.43734
 Alpha virt. eigenvalues --    0.10997   0.16918   0.20396   0.33225   0.48042
 Alpha virt. eigenvalues --    0.53064   0.61072   0.63484   0.71876   0.72070
 Alpha virt. eigenvalues --    0.75554   0.79364   0.79719   0.83351   0.84046

 Mulliken charges:
               1
     1  O   -0.616926
     2  H    0.306052
     3  H    0.215977
     4  O   -0.396744
     5  H    0.246763
     6  H    0.244877
 Sum of Mulliken charges =  -0.00000

 Dipole moment (field-independent basis, Debye):
    X=             -1.9950    Y=             -4.3611    Z=             -0.0000  Tot=              4.7957
 Quadrupole moment (field-independent basis, Debye-Ang):
   XX=             -9.4474   YY=             -9.5787   ZZ=            -14.6432
   XY=             -2.8589   XZ=             -0.0000   YZ=              0.0000

 Normal termination of Gaussian 16 at Fri Aug 26 17:51:47 2022.
