 Gaussian 16, Revision A.03,
 Gaussian 16:  ES64L-G16RevA.03 25-Dec-2016

 ------------------
 #p CCSD(T)/cc-pVTZ
 ------------------

 ------------
 H2O_H2O_4938
 ------------
 Symbolic Z-matrix:
 Charge =  0 Multiplicity = 1

                         Standard orientation:
 ---------------------------------------------------------------------
 Center     Atomic      Atomic             Coordinates (Angstroms)
 Number     Number       Type             X           Y           Z
 ---------------------------------------------------------------------
      1          8           0        0.052265    3.076950    0.000000
      2          1           0        0.051109    2.094349    0.000000
      3          1           0       -0.876853    3.396709   -0.000000
      4          8           0        0.052265   -2.897020    0.000000
      5          1           0        0.790262   -3.545763    0.000000
      6          1           0       -0.800754   -3.384736   -0.000000
 ---------------------------------------------------------------------

 SCF Done:  E(RHF) =  -152.108207948     A.U. after   10 cycles
 E2 =    -0.5258111800D+00 EUMP2 =    -0.15263401912809D+03
 CCSD(T)
 CCSD(T)= -0.15266122243D+03

 The electronic state is 1-A'.
 Alpha  occ. eigenvalues --  -20.56118 -20.55035  -1.33420  -1.32341  -0.70824
 Alpha  occ. eigenvalues --   -0.69742  -0.56904  -0.55807  -0.50537  -0.49461
 Alpha virt. eigenvalues --    0.13530   0.14763   0.19738   0.20888   0.53724
 Alpha virt. eigenvalues --    0.54799   0.56714   0.57758   0.67066   0.68509
 Alpha virt. eigenvalues --    0.78346   0.79399   0.79752   0.80510   0.82217

 Mulliken charges:
               1
     1  O   -0.512933
     2  H    0.259531
     3  H    0.253366
     4  O   -0.513605
     5  H    0.257749
     6  H    0.255892
 Sum of Mulliken charges =  -0.00000

 Dipole moment (field-independent basis, Debye):
    X=             -1.7942    Y=             -3.1483    Z=             -0.0000  Tot=              3.6237
 Quadrupole moment (field-independent basis, Debye-Ang):
   XX=             -9.2249   YY=             -5.9611   ZZ=            -14.7141
   XY=             -5.5924   XZ=              0.0000   YZ=             -0.0000

 Normal termination of Gaussian 16 at Sun Aug 28 07:07:25 2022.
