 Gaussian 16, Revision A.03,
 Gaussian 16:  ES64L-G16RevA.03 25-Dec-2016

 ------------------
 #p CCSD(T)/cc-pVTZ
 ------------------

 ------------
 H2O_H2O_2396
 ------------
 Symbolic Z-matrix:
 Charge =  0 Multiplicity = 1

                         Standard orientation:
 ---------------------------------------------------------------------
 Center     Atomic      Atomic             Coordinates (Angstroms)
 Number     Number       Type             X           Y           Z
 ---------------------------------------------------------------------
      1          8           0       -0.023243    2.054629    0.000000
      2          1           0       -0.020238    1.072032    0.000000
      3          1           0        0.905271    2.376137    0.000000
      4          8           0       -0.023243   -1.884261    0.000000
      5          1           0       -0.986373   -2.078903    0.000000
      6          1           0        0.473231   -2.732210    0.000000
 ---------------------------------------------------------------------

 SCF Done:  E(RHF) =  -152.111145751     A.U. after   10 cycles
 E2 =    -0.5261235884D+00 EUMP2 =    -0.15263726933919D+03
 CCSD(T)
 CCSD(T)= -0.15266437053D+03

 The electronic state is 1-A'.
 Alpha  occ. eigenvalues --  -20.56992 -20.54178  -1.34260  -1.31514  -0.71664
 Alpha  occ. eigenvalues --   -0.68924  -0.57868  -0.55001  -0.51395  -0.48662
 Alpha virt. eigenvalues --    0.12271   0.16534   0.19257   0.24654   0.53302
 Alpha virt. eigenvalues --    0.55366   0.56311   0.58625   0.68896   0.71217
 Alpha virt. eigenvalues --    0.77198   0.78939   0.80207   0.81732   0.83671

 Mulliken charges:
               1
     1  O   -0.525771
     2  H    0.266071
     3  H    0.253220
     4  O   -0.511666
     5  H    0.260235
     6  H    0.257912
 Sum of Mulliken charges =  -0.00000

 Dipole moment (field-independent basis, Debye):
    X=              0.7929    Y=             -3.1345    Z=              0.0000  Tot=              3.2332
 Quadrupole moment (field-independent basis, Debye-Ang):
   XX=             -9.3618   YY=             -7.8583   ZZ=            -14.7238
   XY=              5.1017   XZ=              0.0000   YZ=              0.0000

 Normal termination of Gaussian 16 at Sun Aug 28 06:56:19 2022.
