 Gaussian 16, Revision A.03,
 Gaussian 16:  ES64L-G16RevA.03 25-Dec-2016

 ------------------
 #p CCSD(T)/cc-pVTZ
 ------------------

 ------------
 H2O_H2O_1632
 ------------
 Symbolic Z-matrix:
 Charge =  0 Multiplicity = 1

                         Standard orientation:
 ---------------------------------------------------------------------
 Center     Atomic      Atomic             Coordinates (Angstroms)
 Number     Number       Type             X           Y           Z
 ---------------------------------------------------------------------
      1          8           0        0.073558    1.753581    0.000000
      2          1           0        0.072571    0.770980    0.000000
      3          1           0       -0.855615    2.073180    0.000000
      4          8           0        0.073558   -1.586678   -0.000000
      5          1           0        0.507267   -2.468382   -0.000000
      6          1           0       -0.901147   -1.711000   -0.000000
 ---------------------------------------------------------------------

 SCF Done:  E(RHF) =  -152.111999569     A.U. after   10 cycles
 E2 =    -0.5270359735D+00 EUMP2 =    -0.15263903554226D+03
 CCSD(T)
 CCSD(T)= -0.15266607800D+03

 The electronic state is 1-A'.
 Alpha  occ. eigenvalues --  -20.57752 -20.53601  -1.35042  -1.30987  -0.72484
 Alpha  occ. eigenvalues --   -0.68447  -0.58724  -0.54370  -0.52155  -0.48120
 Alpha virt. eigenvalues --    0.11860   0.16858   0.19493   0.27752   0.50079
 Alpha virt. eigenvalues --    0.55278   0.56748   0.58519   0.69443   0.73603
 Alpha virt. eigenvalues --    0.74799   0.77277   0.80989   0.82967   0.84029

 Mulliken charges:
               1
     1  O   -0.529741
     2  H    0.273329
     3  H    0.242838
     4  O   -0.499182
     5  H    0.259287
     6  H    0.253469
 Sum of Mulliken charges =  -0.00000

 Dipole moment (field-independent basis, Debye):
    X=             -2.4689    Y=             -3.2233    Z=             -0.0000  Tot=              4.0601
 Quadrupole moment (field-independent basis, Debye-Ang):
   XX=             -9.8380   YY=             -8.3589   ZZ=            -14.7270
   XY=             -3.1690   XZ=             -0.0000   YZ=             -0.0000

 Normal termination of Gaussian 16 at Sun Aug 28 00:06:33 2022.
