 Gaussian 16, Revision A.03,
 Gaussian 16:  ES64L-G16RevA.03 25-Dec-2016

 ------------------
 #p CCSD(T)/cc-pVTZ
 ------------------

 ------------
 H2O_H2O_4738
 ------------
 Symbolic Z-matrix:
 Charge =  0 Multiplicity = 1

                         Standard orientation:
 ---------------------------------------------------------------------
 Center     Atomic      Atomic             Coordinates (Angstroms)
 Number     Number       Type             X           Y           Z
 ---------------------------------------------------------------------
      1          8           0        0.052268    2.997173   -0.000000
      2          1           0        0.051081    2.014572   -0.000000
      3          1           0       -0.876840    3.316962   -0.000000
      4          8           0        0.052268   -2.817247    0.000000
      5          1           0        0.790243   -3.466012    0.000000
      6          1           0       -0.800766   -3.304934    0.000000
 ---------------------------------------------------------------------

 SCF Done:  E(RHF) =  -152.108283477     A.U. after   10 cycles
 E2 =    -0.5258106507D+00 EUMP2 =    -0.15263409412774D+03
 CCSD(T)
 CCSD(T)= -0.15266129519D+03

 The electronic state is 1-A'.
 Alpha  occ. eigenvalues --  -20.56147 -20.54997  -1.33449  -1.32303  -0.70853
 Alpha  occ. eigenvalues --   -0.69705  -0.56936  -0.55772  -0.50567  -0.49425
 Alpha virt. eigenvalues --    0.13461   0.14832   0.19719   0.20951   0.53693
 Alpha virt. eigenvalues --    0.54823   0.56691   0.57778   0.66964   0.68614
 Alpha virt. eigenvalues --    0.78318   0.79434   0.79716   0.80357   0.82455

 Mulliken charges:
               1
     1  O   -0.513254
     2  H    0.259933
     3  H    0.253255
     4  O   -0.513989
     5  H    0.258021
     6  H    0.256034
 Sum of Mulliken charges =  -0.00000

 Dipole moment (field-independent basis, Debye):
    X=             -1.7935    Y=             -3.1525    Z=              0.0000  Tot=              3.6270
 Quadrupole moment (field-independent basis, Debye-Ang):
   XX=             -9.2249   YY=             -6.0915   ZZ=            -14.7144
   XY=             -5.4801   XZ=              0.0000   YZ=             -0.0000

 Normal termination of Gaussian 16 at Sun Aug 28 05:29:45 2022.
