 Gaussian 16, Revision A.03,
 Gaussian 16:  ES64L-G16RevA.03 25-Dec-2016

 ------------------
 #p CCSD(T)/cc-pVTZ
 ------------------

 -----------
 H2O_H2O_480
 -----------
 Symbolic Z-matrix:
 Charge =  0 Multiplicity = 1

                         Standard orientation:
 ---------------------------------------------------------------------
 Center     Atomic      Atomic             Coordinates (Angstroms)
 Number     Number       Type             X           Y           Z
 ---------------------------------------------------------------------
      1          8           0        0.079886   -1.290576    0.000000
      2          1           0        0.078969   -0.307975    0.000000
      3          1           0       -0.849309   -1.610110    0.000000
      4          8           0        0.079886    1.131584    0.000000
      5          1           0        0.394864    2.062333    0.000000
      6          1           0       -0.902708    1.127687    0.000000
 ---------------------------------------------------------------------

 SCF Done:  E(RHF) =  -152.093881661     A.U. after   11 cycles
 E2 =    -0.5329039817D+00 EUMP2 =    -0.15262678564262D+03
 CCSD(T)
 CCSD(T)= -0.15265318414D+03

 The electronic state is 1-A'.
 Alpha  occ. eigenvalues --  -20.60198 -20.49922  -1.38956  -1.28226  -0.77128
 Alpha  occ. eigenvalues --   -0.69566  -0.58819  -0.55340  -0.50584  -0.45168
 Alpha virt. eigenvalues --    0.11126   0.16600   0.20578   0.32807   0.48595
 Alpha virt. eigenvalues --    0.52787   0.59310   0.64099   0.71926   0.71997
 Alpha virt. eigenvalues --    0.74123   0.78471   0.78765   0.83710   0.84327

 Mulliken charges:
               1
     1  O   -0.586871
     2  H    0.294944
     3  H    0.215967
     4  O   -0.393430
     5  H    0.233254
     6  H    0.236136
 Sum of Mulliken charges =  -0.00000

 Dipole moment (field-independent basis, Debye):
    X=             -2.5480    Y=              3.8432    Z=              0.0000  Tot=              4.6112
 Quadrupole moment (field-independent basis, Debye-Ang):
   XX=            -10.1179   YY=             -9.3729   ZZ=            -14.6449
   XY=              2.6091   XZ=              0.0000   YZ=              0.0000

 Normal termination of Gaussian 16 at Fri Aug 26 18:33:04 2022.
