 Gaussian 16, Revision A.03,
 Gaussian 16:  ES64L-G16RevA.03 25-Dec-2016

 ------------------
 #p CCSD(T)/cc-pVTZ
 ------------------

 ------------
 H2O_H2O_2143
 ------------
 Symbolic Z-matrix:
 Charge =  0 Multiplicity = 1

                         Standard orientation:
 ---------------------------------------------------------------------
 Center     Atomic      Atomic             Coordinates (Angstroms)
 Number     Number       Type             X           Y           Z
 ---------------------------------------------------------------------
      1          8           0        0.033833    1.958777    0.000000
      2          1           0        0.031147    0.976179    0.000000
      3          1           0       -0.894786    2.279982    0.000000
      4          8           0        0.033833   -1.781286   -0.000000
      5          1           0        0.940607   -2.159791   -0.000000
      6          1           0       -0.618291   -2.516298   -0.000000
 ---------------------------------------------------------------------

 SCF Done:  E(RHF) =  -152.111990383     A.U. after   10 cycles
 E2 =    -0.5262794098D+00 EUMP2 =    -0.15263826979312D+03
 CCSD(T)
 CCSD(T)= -0.15266534571D+03

 The electronic state is 1-A'.
 Alpha  occ. eigenvalues --  -20.57214 -20.53843  -1.34470  -1.31194  -0.71860
 Alpha  occ. eigenvalues --   -0.68615  -0.58136  -0.54668  -0.51610  -0.48347
 Alpha virt. eigenvalues --    0.12276   0.16866   0.19193   0.25628   0.52309
 Alpha virt. eigenvalues --    0.55077   0.56421   0.58837   0.69057   0.72142
 Alpha virt. eigenvalues --    0.76648   0.78077   0.80550   0.83532   0.83843

 Mulliken charges:
               1
     1  O   -0.528779
     2  H    0.268118
     3  H    0.251162
     4  O   -0.509707
     5  H    0.261395
     6  H    0.257811
 Sum of Mulliken charges =  -0.00000

 Dipole moment (field-independent basis, Debye):
    X=             -1.1474    Y=             -3.3117    Z=             -0.0000  Tot=              3.5048
 Quadrupole moment (field-independent basis, Debye-Ang):
   XX=             -9.1871   YY=             -7.8268   ZZ=            -14.7273
   XY=             -4.5227   XZ=             -0.0000   YZ=              0.0000

 528\MP4DQ=-152.6471911\MP4SDQ=-152.6502633\CCSD=-152.6496596\CCSD(T)=-
 Normal termination of Gaussian 16 at Sun Aug 28 04:41:32 2022.
