 Gaussian 16, Revision A.03,
 Gaussian 16:  ES64L-G16RevA.03 25-Dec-2016

 ------------------
 #p CCSD(T)/cc-pVTZ
 ------------------

 ------------
 H2O_H2O_4707
 ------------
 Symbolic Z-matrix:
 Charge =  0 Multiplicity = 1

                         Standard orientation:
 ---------------------------------------------------------------------
 Center     Atomic      Atomic             Coordinates (Angstroms)
 Number     Number       Type             X           Y           Z
 ---------------------------------------------------------------------
      1          8           0        0.073522    2.980159   -0.000000
      2          1           0        0.072953    1.997558   -0.000000
      3          1           0       -0.855786    3.299364   -0.000000
      4          8           0        0.073522   -2.813194    0.000000
      5          1           0        0.507606   -3.694714    0.000000
      6          1           0       -0.901130   -2.937930    0.000000
 ---------------------------------------------------------------------

 SCF Done:  E(RHF) =  -152.108047081     A.U. after   10 cycles
 E2 =    -0.5258331501D+00 EUMP2 =    -0.15263388023149D+03
 CCSD(T)
 CCSD(T)= -0.15266108609D+03

 The electronic state is 1-A'.
 Alpha  occ. eigenvalues --  -20.56160 -20.55101  -1.33462  -1.32405  -0.70871
 Alpha  occ. eigenvalues --   -0.69804  -0.56939  -0.55867  -0.50577  -0.49523
 Alpha virt. eigenvalues --    0.13333   0.14758   0.19542   0.21007   0.53559
 Alpha virt. eigenvalues --    0.54816   0.56650   0.57723   0.66974   0.68546
 Alpha virt. eigenvalues --    0.78309   0.79340   0.79611   0.80649   0.82230

 Mulliken charges:
               1
     1  O   -0.511849
     2  H    0.259175
     3  H    0.252614
     4  O   -0.512747
     5  H    0.258200
     6  H    0.254607
 Sum of Mulliken charges =  -0.00000

 Dipole moment (field-independent basis, Debye):
    X=             -2.5225    Y=             -2.9259    Z=             -0.0000  Tot=              3.8631
 Quadrupole moment (field-independent basis, Debye-Ang):
   XX=             -9.8086   YY=             -6.9183   ZZ=            -14.7135
   XY=             -4.0095   XZ=              0.0000   YZ=             -0.0000

 Normal termination of Gaussian 16 at Sun Aug 28 05:14:52 2022.
