 Gaussian 16, Revision A.03,
 Gaussian 16:  ES64L-G16RevA.03 25-Dec-2016

 ------------------
 #p CCSD(T)/cc-pVTZ
 ------------------

 ------------
 H2O_H2O_4672
 ------------
 Symbolic Z-matrix:
 Charge =  0 Multiplicity = 1

                         Standard orientation:
 ---------------------------------------------------------------------
 Center     Atomic      Atomic             Coordinates (Angstroms)
 Number     Number       Type             X           Y           Z
 ---------------------------------------------------------------------
      1          8           0       -0.019811    2.960310    0.000000
      2          1           0       -0.017655    1.977711    0.000000
      3          1           0        0.908980    3.281015    0.000000
      4          8           0       -0.019811   -2.793183    0.000000
      5          1           0       -0.993724   -2.923575    0.000000
      6          1           0        0.419381   -3.672168    0.000000
 ---------------------------------------------------------------------

 SCF Done:  E(RHF) =  -152.108374688     A.U. after   10 cycles
 E2 =    -0.5257988234D+00 EUMP2 =    -0.15263417351176D+03
 CCSD(T)
 CCSD(T)= -0.15266137320D+03

 The electronic state is 1-A'.
 Alpha  occ. eigenvalues --  -20.56151 -20.55064  -1.33454  -1.32371  -0.70859
 Alpha  occ. eigenvalues --   -0.69777  -0.56944  -0.55843  -0.50572  -0.49494
 Alpha virt. eigenvalues --    0.13362   0.14835   0.19549   0.21101   0.53555
 Alpha virt. eigenvalues --    0.54853   0.56692   0.57760   0.66932   0.68574
 Alpha virt. eigenvalues --    0.78312   0.79364   0.79613   0.80647   0.82282

 Mulliken charges:
               1
     1  O   -0.514036
     2  H    0.259327
     3  H    0.254639
     4  O   -0.514556
     5  H    0.257050
     6  H    0.257576
 Sum of Mulliken charges =  -0.00000

 Dipole moment (field-independent basis, Debye):
    X=              0.6809    Y=             -2.9283    Z=              0.0000  Tot=              3.0064
 Quadrupole moment (field-independent basis, Debye-Ang):
   XX=             -9.4477   YY=             -6.9070   ZZ=            -14.7146
   XY=              7.5257   XZ=              0.0000   YZ=              0.0000

 Normal termination of Gaussian 16 at Sun Aug 28 04:56:12 2022.
