 Gaussian 16, Revision A.03,
 Gaussian 16:  ES64L-G16RevA.03 25-Dec-2016

 ------------------
 #p CCSD(T)/cc-pVTZ
 ------------------

 ------------
 H2O_H2O_1830
 ------------
 Symbolic Z-matrix:
 Charge =  0 Multiplicity = 1

                         Standard orientation:
 ---------------------------------------------------------------------
 Center     Atomic      Atomic             Coordinates (Angstroms)
 Number     Number       Type             X           Y           Z
 ---------------------------------------------------------------------
      1          8           0        0.079864   -1.829083    0.000000
      2          1           0        0.079228   -0.846481    0.000000
      3          1           0       -0.849423   -2.148350    0.000000
      4          8           0        0.079864    1.670045    0.000000
      5          1           0        0.395109    2.600705    0.000000
      6          1           0       -0.902732    1.666430    0.000000
 ---------------------------------------------------------------------

 SCF Done:  E(RHF) =  -152.110936356     A.U. after   10 cycles
 E2 =    -0.5267880871D+00 EUMP2 =    -0.15263772444273D+03
 CCSD(T)
 CCSD(T)= -0.15266480246D+03

 The electronic state is 1-A'.
 Alpha  occ. eigenvalues --  -20.57507 -20.54061  -1.34791  -1.31410  -0.72258
 Alpha  occ. eigenvalues --   -0.68792  -0.58399  -0.54827  -0.51901  -0.48538
 Alpha virt. eigenvalues --    0.11793   0.16559   0.19672   0.26530   0.50983
 Alpha virt. eigenvalues --    0.55515   0.56667   0.58078   0.69010   0.73667
 Alpha virt. eigenvalues --    0.75561   0.78129   0.80543   0.83089   0.83574

 Mulliken charges:
               1
     1  O   -0.523298
     2  H    0.269331
     3  H    0.243847
     4  O   -0.500345
     5  H    0.258803
     6  H    0.251662
 Sum of Mulliken charges =  -0.00000

 Dipole moment (field-independent basis, Debye):
    X=             -2.6889    Y=              3.0176    Z=              0.0000  Tot=              4.0418
 Quadrupole moment (field-independent basis, Debye-Ang):
   XX=            -10.1256   YY=             -8.4235   ZZ=            -14.7229
   XY=              2.9572   XZ=              0.0000   YZ=              0.0000

 Normal termination of Gaussian 16 at Sun Aug 28 01:58:15 2022.
