 Gaussian 16, Revision A.03,
 Gaussian 16:  ES64L-G16RevA.03 25-Dec-2016

 ------------------
 #p CCSD(T)/cc-pVTZ
 ------------------

 ------------
 H2O_H2O_4613
 ------------
 Symbolic Z-matrix:
 Charge =  0 Multiplicity = 1

                         Standard orientation:
 ---------------------------------------------------------------------
 Center     Atomic      Atomic             Coordinates (Angstroms)
 Number     Number       Type             X           Y           Z
 ---------------------------------------------------------------------
      1          8           0        0.052269    2.947312   -0.000000
      2          1           0        0.051062    1.964712   -0.000000
      3          1           0       -0.876831    3.267121   -0.000000
      4          8           0        0.052269   -2.767388    0.000000
      5          1           0        0.790232   -3.416170    0.000000
      6          1           0       -0.800774   -3.255059    0.000000
 ---------------------------------------------------------------------

 SCF Done:  E(RHF) =  -152.108336839     A.U. after   10 cycles
 E2 =    -0.5258110301D+00 EUMP2 =    -0.15263414786904D+03
 CCSD(T)
 CCSD(T)= -0.15266134723D+03

 The electronic state is 1-A'.
 Alpha  occ. eigenvalues --  -20.56167 -20.54972  -1.33469  -1.32279  -0.70873
 Alpha  occ. eigenvalues --   -0.69679  -0.56959  -0.55748  -0.50587  -0.49401
 Alpha virt. eigenvalues --    0.13409   0.14880   0.19706   0.20996   0.53672
 Alpha virt. eigenvalues --    0.54837   0.56674   0.57788   0.66897   0.68688
 Alpha virt. eigenvalues --    0.78299   0.79457   0.79689   0.80245   0.82589

 Mulliken charges:
               1
     1  O   -0.513473
     2  H    0.260199
     3  H    0.253179
     4  O   -0.514237
     5  H    0.258204
     6  H    0.256128
 Sum of Mulliken charges =  -0.00000

 Dipole moment (field-independent basis, Debye):
    X=             -1.7930    Y=             -3.1555    Z=              0.0000  Tot=              3.6294
 Quadrupole moment (field-independent basis, Debye-Ang):
   XX=             -9.2250   YY=             -6.1727   ZZ=            -14.7146
   XY=             -5.4098   XZ=              0.0000   YZ=             -0.0000

 Normal termination of Gaussian 16 at Sun Aug 28 04:21:23 2022.
