 Gaussian 16, Revision A.03,
 Gaussian 16:  ES64L-G16RevA.03 25-Dec-2016

 ------------------
 #p CCSD(T)/cc-pVTZ
 ------------------

 ------------
 H2O_H2O_4523
 ------------
 Symbolic Z-matrix:
 Charge =  0 Multiplicity = 1

                         Standard orientation:
 ---------------------------------------------------------------------
 Center     Atomic      Atomic             Coordinates (Angstroms)
 Number     Number       Type             X           Y           Z
 ---------------------------------------------------------------------
      1          8           0       -0.016580    2.898460    0.000000
      2          1           0       -0.014280    1.915861    0.000000
      3          1           0        0.912165    3.219300    0.000000
      4          8           0       -0.016580   -2.735051    0.000000
      5          1           0       -0.996925   -2.801609    0.000000
      6          1           0        0.364317   -3.640823    0.000000
 ---------------------------------------------------------------------

 SCF Done:  E(RHF) =  -152.108422655     A.U. after   10 cycles
 E2 =    -0.5257994640D+00 EUMP2 =    -0.15263422211879D+03
 CCSD(T)
 CCSD(T)= -0.15266142031D+03

 The electronic state is 1-A'.
 Alpha  occ. eigenvalues --  -20.56175 -20.55064  -1.33478  -1.32372  -0.70884
 Alpha  occ. eigenvalues --   -0.69778  -0.56970  -0.55845  -0.50597  -0.49496
 Alpha virt. eigenvalues --    0.13244   0.14890   0.19442   0.21250   0.53457
 Alpha virt. eigenvalues --    0.54906   0.56674   0.57771   0.66857   0.68641
 Alpha virt. eigenvalues --    0.78288   0.79362   0.79525   0.80719   0.82377

 Mulliken charges:
               1
     1  O   -0.514281
     2  H    0.259359
     3  H    0.254819
     4  O   -0.514789
     5  H    0.256997
     6  H    0.257894
 Sum of Mulliken charges =  -0.00000

 Dipole moment (field-independent basis, Debye):
    X=              0.5702    Y=             -2.8662    Z=              0.0000  Tot=              2.9224
 Quadrupole moment (field-independent basis, Debye-Ang):
   XX=             -9.5436   YY=             -7.2041   ZZ=            -14.7147
   XY=              7.6104   XZ=              0.0000   YZ=              0.0000

 Normal termination of Gaussian 16 at Sun Aug 28 03:36:59 2022.
