 Gaussian 16, Revision A.03,
 Gaussian 16:  ES64L-G16RevA.03 25-Dec-2016

 ------------------
 #p CCSD(T)/cc-pVTZ
 ------------------

 ------------
 H2O_H2O_2285
 ------------
 Symbolic Z-matrix:
 Charge =  0 Multiplicity = 1

                         Standard orientation:
 ---------------------------------------------------------------------
 Center     Atomic      Atomic             Coordinates (Angstroms)
 Number     Number       Type             X           Y           Z
 ---------------------------------------------------------------------
      1          8           0        0.063253    2.017512    0.000000
      2          1           0        0.061946    1.034912    0.000000
      3          1           0       -0.865815    2.337415    0.000000
      4          8           0        0.063253   -1.842029   -0.000000
      5          1           0        0.660386   -2.622375   -0.000000
      6          1           0       -0.868571   -2.153814   -0.000000
 ---------------------------------------------------------------------

 SCF Done:  E(RHF) =  -152.111023228     A.U. after   10 cycles
 E2 =    -0.5262565152D+00 EUMP2 =    -0.15263727974337D+03
 CCSD(T)
 CCSD(T)= -0.15266437657D+03

 The electronic state is 1-A'.
 Alpha  occ. eigenvalues --  -20.57108 -20.54072  -1.34368  -1.31408  -0.71770
 Alpha  occ. eigenvalues --   -0.68799  -0.57972  -0.54878  -0.51500  -0.48548
 Alpha virt. eigenvalues --    0.12159   0.16534   0.19335   0.24833   0.52408
 Alpha virt. eigenvalues --    0.55688   0.56052   0.58821   0.68903   0.71556
 Alpha virt. eigenvalues --    0.76991   0.78467   0.80334   0.82540   0.83562

 Mulliken charges:
               1
     1  O   -0.522964
     2  H    0.267231
     3  H    0.248088
     4  O   -0.508062
     5  H    0.260501
     6  H    0.255206
 Sum of Mulliken charges =  -0.00000

 Dipole moment (field-independent basis, Debye):
    X=             -2.1443    Y=             -3.2477    Z=             -0.0000  Tot=              3.8917
 Quadrupole moment (field-independent basis, Debye-Ang):
   XX=             -9.4637   YY=             -7.7861   ZZ=            -14.7235
   XY=             -3.7529   XZ=             -0.0000   YZ=              0.0000

 Normal termination of Gaussian 16 at Sun Aug 28 05:59:33 2022.
