 Gaussian 16, Revision A.03,
 Gaussian 16:  ES64L-G16RevA.03 25-Dec-2016

 ------------------
 #p CCSD(T)/cc-pVTZ
 ------------------

 ------------
 H2O_H2O_3994
 ------------
 Symbolic Z-matrix:
 Charge =  0 Multiplicity = 1

                         Standard orientation:
 ---------------------------------------------------------------------
 Center     Atomic      Atomic             Coordinates (Angstroms)
 Number     Number       Type             X           Y           Z
 ---------------------------------------------------------------------
      1          8           0        0.030161    2.695684    0.000000
      2          1           0        0.028118    1.713084    0.000000
      3          1           0       -0.898668    3.016281    0.000000
      4          8           0        0.030161   -2.520057    0.000000
      5          1           0        0.959958   -2.837837    0.000000
      6          1           0       -0.571985   -3.296540    0.000000
 ---------------------------------------------------------------------

 SCF Done:  E(RHF) =  -152.108805520     A.U. after   10 cycles
 E2 =    -0.5258110989D+00 EUMP2 =    -0.15263461661935D+03
 CCSD(T)
 CCSD(T)= -0.15266180118D+03

 The electronic state is 1-A'.
 Alpha  occ. eigenvalues --  -20.56288 -20.54845  -1.33587  -1.32156  -0.70990
 Alpha  occ. eigenvalues --   -0.69559  -0.57094  -0.55634  -0.50708  -0.49283
 Alpha virt. eigenvalues --    0.13039   0.15206   0.19561   0.21411   0.53448
 Alpha virt. eigenvalues --    0.55003   0.56604   0.57840   0.66679   0.69071
 Alpha virt. eigenvalues --    0.78185   0.79169   0.79565   0.80114   0.82857

 Mulliken charges:
               1
     1  O   -0.515676
     2  H    0.261322
     3  H    0.253901
     4  O   -0.515937
     5  H    0.258439
     6  H    0.257951
 Sum of Mulliken charges =  -0.00000

 Dipole moment (field-independent basis, Debye):
    X=             -1.0336    Y=             -3.0996    Z=             -0.0000  Tot=              3.2674
 Quadrupole moment (field-independent basis, Debye-Ang):
   XX=             -9.2299   YY=             -6.7802   ZZ=            -14.7162
   XY=             -6.2329   XZ=             -0.0000   YZ=             -0.0000

 CCSD(T)=-152.6618012\RMSD=7.076e-09\PG=CS [SG(H4O2)]\\@
 Normal termination of Gaussian 16 at Sat Aug 27 00:53:30 2022.
