 Gaussian 16, Revision A.03,
 Gaussian 16:  ES64L-G16RevA.03 25-Dec-2016

 ------------------
 #p CCSD(T)/cc-pVTZ
 ------------------

 ------------
 H2O_H2O_1317
 ------------
 Symbolic Z-matrix:
 Charge =  0 Multiplicity = 1

                         Standard orientation:
 ---------------------------------------------------------------------
 Center     Atomic      Atomic             Coordinates (Angstroms)
 Number     Number       Type             X           Y           Z
 ---------------------------------------------------------------------
      1          8           0        0.037535    1.630465   -0.000000
      2          1           0        0.034478    0.647869   -0.000000
      3          1           0       -0.890962    1.952022    0.000000
      4          8           0        0.037535   -1.451576   -0.000000
      5          1           0        0.917448   -1.888909   -0.000000
      6          1           0       -0.661525   -2.142098    0.000000
 ---------------------------------------------------------------------

 SCF Done:  E(RHF) =  -152.114254709     A.U. after   10 cycles
 E2 =    -0.5275370496D+00 EUMP2 =    -0.15264179175874D+03
 CCSD(T)
 CCSD(T)= -0.15266874765D+03

 The electronic state is 1-A'.
 Alpha  occ. eigenvalues --  -20.58229 -20.52512  -1.35562  -1.30024  -0.72879
 Alpha  occ. eigenvalues --   -0.67912  -0.59381  -0.53275  -0.52679  -0.47170
 Alpha virt. eigenvalues --    0.12040   0.17964   0.18823   0.30172   0.49591
 Alpha virt. eigenvalues --    0.54537   0.55903   0.60577   0.68722   0.72019
 Alpha virt. eigenvalues --    0.73608   0.77061   0.81912   0.82821   0.84863

 Mulliken charges:
               1
     1  O   -0.551389
     2  H    0.283722
     3  H    0.246362
     4  O   -0.503190
     5  H    0.266026
     6  H    0.258469
 Sum of Mulliken charges =  -0.00000

 Dipole moment (field-independent basis, Debye):
    X=             -1.2542    Y=             -3.5880    Z=              0.0000  Tot=              3.8009
 Quadrupole moment (field-independent basis, Debye-Ang):
   XX=             -9.1586   YY=             -8.4494   ZZ=            -14.7347
   XY=             -3.7729   XZ=             -0.0000   YZ=              0.0000

 Normal termination of Gaussian 16 at Fri Aug 26 23:48:43 2022.
