 Gaussian 16, Revision A.03,
 Gaussian 16:  ES64L-G16RevA.03 25-Dec-2016

 ------------------
 #p CCSD(T)/cc-pVTZ
 ------------------

 ------------
 H2O_H2O_1857
 ------------
 Symbolic Z-matrix:
 Charge =  0 Multiplicity = 1

                         Standard orientation:
 ---------------------------------------------------------------------
 Center     Atomic      Atomic             Coordinates (Angstroms)
 Number     Number       Type             X           Y           Z
 ---------------------------------------------------------------------
      1          8           0        0.073553    1.843332   -0.000000
      2          1           0        0.072617    0.860731   -0.000000
      3          1           0       -0.855635    2.162884   -0.000000
      4          8           0        0.073553   -1.676422    0.000000
      5          1           0        0.507308   -2.558104    0.000000
      6          1           0       -0.901145   -1.800794    0.000000
 ---------------------------------------------------------------------

 SCF Done:  E(RHF) =  -152.111493421     A.U. after   10 cycles
 E2 =    -0.5266989758D+00 EUMP2 =    -0.15263819239730D+03
 CCSD(T)
 CCSD(T)= -0.15266526118D+03

 The electronic state is 1-A'.
 Alpha  occ. eigenvalues --  -20.57492 -20.53881  -1.34764  -1.31237  -0.72194
 Alpha  occ. eigenvalues --   -0.68644  -0.58407  -0.54662  -0.51884  -0.48372
 Alpha virt. eigenvalues --    0.11912   0.16709   0.19475   0.26562   0.50991
 Alpha virt. eigenvalues --    0.55509   0.56367   0.58381   0.69131   0.73115
 Alpha virt. eigenvalues --    0.75705   0.77973   0.80656   0.83211   0.83786

 Mulliken charges:
               1
     1  O   -0.525281
     2  H    0.269589
     3  H    0.244672
     4  O   -0.502923
     5  H    0.260398
     6  H    0.253544
 Sum of Mulliken charges =  -0.00000

 Dipole moment (field-independent basis, Debye):
    X=             -2.4789    Y=             -3.1647    Z=              0.0000  Tot=              4.0200
 Quadrupole moment (field-independent basis, Debye-Ang):
   XX=             -9.8338   YY=             -8.2342   ZZ=            -14.7255
   XY=             -3.2332   XZ=              0.0000   YZ=             -0.0000

 Normal termination of Gaussian 16 at Sun Aug 28 02:15:00 2022.
