 Gaussian 16, Revision A.03,
 Gaussian 16:  ES64L-G16RevA.03 25-Dec-2016

 ------------------
 #p CCSD(T)/cc-pVTZ
 ------------------

 ------------
 H2O_H2O_1307
 ------------
 Symbolic Z-matrix:
 Charge =  0 Multiplicity = 1

                         Standard orientation:
 ---------------------------------------------------------------------
 Center     Atomic      Atomic             Coordinates (Angstroms)
 Number     Number       Type             X           Y           Z
 ---------------------------------------------------------------------
      1          8           0        0.073565    1.623940    0.000000
      2          1           0        0.072495    0.641339    0.000000
      3          1           0       -0.855581    1.943618    0.000000
      4          8           0        0.073565   -1.457049   -0.000000
      5          1           0        0.507199   -2.338790   -0.000000
      6          1           0       -0.901151   -1.581289   -0.000000
 ---------------------------------------------------------------------

 SCF Done:  E(RHF) =  -152.112313398     A.U. after   10 cycles
 E2 =    -0.5277958052D+00 EUMP2 =    -0.15264010920343D+03
 CCSD(T)
 CCSD(T)= -0.15266709133D+03

 The electronic state is 1-A'.
 Alpha  occ. eigenvalues --  -20.58221 -20.53029  -1.35585  -1.30498  -0.73054
 Alpha  occ. eigenvalues --   -0.68183  -0.59246  -0.53769  -0.52669  -0.47618
 Alpha virt. eigenvalues --    0.11761   0.17013   0.19556   0.29676   0.48977
 Alpha virt. eigenvalues --    0.54937   0.57675   0.58779   0.69722   0.73484
 Alpha virt. eigenvalues --    0.74093   0.76552   0.81600   0.82444   0.84224

 Mulliken charges:
               1
     1  O   -0.540033
     2  H    0.282220
     3  H    0.239148
     4  O   -0.486987
     5  H    0.253586
     6  H    0.252066
 Sum of Mulliken charges =  -0.00000

 Dipole moment (field-independent basis, Debye):
    X=             -2.4490    Y=             -3.3414    Z=             -0.0000  Tot=              4.1428
 Quadrupole moment (field-independent basis, Debye-Ang):
   XX=             -9.8430   YY=             -8.5665   ZZ=            -14.7248
   XY=             -3.0719   XZ=             -0.0000   YZ=              0.0000

 CCSD(T)=-152.6670913\RMSD=7.140e-09\PG=CS [SG(H4O2)]\\@
 Normal termination of Gaussian 16 at Fri Aug 26 23:44:35 2022.
