 Gaussian 16, Revision A.03,
 Gaussian 16:  ES64L-G16RevA.03 25-Dec-2016

 ------------------
 #p CCSD(T)/cc-pVTZ
 ------------------

 ------------
 H2O_H2O_4187
 ------------
 Symbolic Z-matrix:
 Charge =  0 Multiplicity = 1

                         Standard orientation:
 ---------------------------------------------------------------------
 Center     Atomic      Atomic             Coordinates (Angstroms)
 Number     Number       Type             X           Y           Z
 ---------------------------------------------------------------------
      1          8           0        0.055970    2.777251   -0.000000
      2          1           0        0.054803    1.794650   -0.000000
      3          1           0       -0.873144    3.097022   -0.000000
      4          8           0        0.055970   -2.598318    0.000000
      5          1           0        0.749949   -3.293948    0.000000
      6          1           0       -0.827125   -3.029189    0.000000
 ---------------------------------------------------------------------

 SCF Done:  E(RHF) =  -152.108526528     A.U. after   10 cycles
 E2 =    -0.5258218617D+00 EUMP2 =    -0.15263434838962D+03
 CCSD(T)
 CCSD(T)= -0.15266154042D+03

 The electronic state is 1-A'.
 Alpha  occ. eigenvalues --  -20.56251 -20.54884  -1.33550  -1.32193  -0.70955
 Alpha  occ. eigenvalues --   -0.69591  -0.57047  -0.55664  -0.50669  -0.49316
 Alpha virt. eigenvalues --    0.13174   0.15073   0.19643   0.21193   0.53569
 Alpha virt. eigenvalues --    0.54889   0.56606   0.57815   0.66706   0.68964
 Alpha virt. eigenvalues --    0.78222   0.79455   0.79536   0.79952   0.82803

 Mulliken charges:
               1
     1  O   -0.514098
     2  H    0.261088
     3  H    0.252718
     4  O   -0.514830
     5  H    0.258922
     6  H    0.256200
 Sum of Mulliken charges =   0.00000

 Dipole moment (field-independent basis, Debye):
    X=             -1.9176    Y=             -3.1512    Z=              0.0000  Tot=              3.6888
 Quadrupole moment (field-independent basis, Debye-Ang):
   XX=             -9.2853   YY=             -6.5000   ZZ=            -14.7152
   XY=             -4.9628   XZ=              0.0000   YZ=             -0.0000

 510066\MP4DQ=-152.6434623\MP4SDQ=-152.64651\CCSD=-152.6459246\CCSD(T)=
 Normal termination of Gaussian 16 at Sun Aug 28 00:30:46 2022.
