 Gaussian 16, Revision A.03,
 Gaussian 16:  ES64L-G16RevA.03 25-Dec-2016

 ------------------
 #p CCSD(T)/cc-pVTZ
 ------------------

 ------------
 H2O_H2O_1803
 ------------
 Symbolic Z-matrix:
 Charge =  0 Multiplicity = 1

                         Standard orientation:
 ---------------------------------------------------------------------
 Center     Atomic      Atomic             Coordinates (Angstroms)
 Number     Number       Type             X           Y           Z
 ---------------------------------------------------------------------
      1          8           0        0.085607   -1.813974    0.000000
      2          1           0        0.085249   -0.831373    0.000000
      3          1           0       -0.843769   -2.132980    0.000000
      4          8           0        0.085607    1.664392    0.000000
      5          1           0        0.276952    2.628183    0.000000
      6          1           0       -0.888148    1.532828    0.000000
 ---------------------------------------------------------------------

 SCF Done:  E(RHF) =  -152.110247386     A.U. after   10 cycles
 E2 =    -0.5268960096D+00 EUMP2 =    -0.15263714339548D+03
 CCSD(T)
 CCSD(T)= -0.15266423479D+03

 The electronic state is 1-A'.
 Alpha  occ. eigenvalues --  -20.57520 -20.54286  -1.34818  -1.31626  -0.72335
 Alpha  occ. eigenvalues --   -0.68972  -0.58383  -0.55037  -0.51916  -0.48745
 Alpha virt. eigenvalues --    0.11661   0.16405   0.19921   0.26502   0.51022
 Alpha virt. eigenvalues --    0.55417   0.57046   0.57760   0.68656   0.74199
 Alpha virt. eigenvalues --    0.75385   0.78130   0.80400   0.82885   0.83411

 Mulliken charges:
               1
     1  O   -0.521085
     2  H    0.269078
     3  H    0.243147
     4  O   -0.497244
     5  H    0.257124
     6  H    0.248981
 Sum of Mulliken charges =  -0.00000

 Dipole moment (field-independent basis, Debye):
    X=             -2.8790    Y=              2.8397    Z=              0.0000  Tot=              4.0438
 Quadrupole moment (field-independent basis, Debye-Ang):
   XX=            -10.4353   YY=             -8.6660   ZZ=            -14.7194
   XY=              2.6481   XZ=              0.0000   YZ=              0.0000

 Normal termination of Gaussian 16 at Sun Aug 28 01:48:02 2022.
