 Gaussian 16, Revision A.03,
 Gaussian 16:  ES64L-G16RevA.03 25-Dec-2016

 ------------------
 #p CCSD(T)/cc-pVTZ
 ------------------

 ------------
 H2O_H2O_4125
 ------------
 Symbolic Z-matrix:
 Charge =  0 Multiplicity = 1

                         Standard orientation:
 ---------------------------------------------------------------------
 Center     Atomic      Atomic             Coordinates (Angstroms)
 Number     Number       Type             X           Y           Z
 ---------------------------------------------------------------------
      1          8           0        0.092949   -2.732240    0.000000
      2          1           0        0.092949   -1.749639    0.000000
      3          1           0       -0.836544   -3.050907    0.000000
      4          8           0        0.092949    2.599454    0.000000
      5          1           0        0.092949    3.582055    0.000000
      6          1           0       -0.836544    2.280787    0.000000
 ---------------------------------------------------------------------

 SCF Done:  E(RHF) =  -152.107667875     A.U. after   10 cycles
 E2 =    -0.5258977293D+00 EUMP2 =    -0.15263356560414D+03
 CCSD(T)
 CCSD(T)= -0.15266077732D+03

 The electronic state is 1-A'.
 Alpha  occ. eigenvalues --  -20.56288 -20.55317  -1.33588  -1.32618  -0.71006
 Alpha  occ. eigenvalues --   -0.70012  -0.57048  -0.56069  -0.50698  -0.49730
 Alpha virt. eigenvalues --    0.12329   0.14924   0.18820   0.22135   0.53128
 Alpha virt. eigenvalues --    0.54899   0.56507   0.57775   0.66801   0.68616
 Alpha virt. eigenvalues --    0.78198   0.79144   0.79393   0.81527   0.82032

 Mulliken charges:
               1
     1  O   -0.509435
     2  H    0.257590
     3  H    0.251697
     4  O   -0.510503
     5  H    0.258732
     6  H    0.251919
 Sum of Mulliken charges =  -0.00000

 Dipole moment (field-independent basis, Debye):
    X=             -3.1838    Y=              2.3376    Z=              0.0000  Tot=              3.9498
 Quadrupole moment (field-independent basis, Debye-Ang):
   XX=            -10.8470   YY=             -9.2740   ZZ=            -14.7118
   XY=              2.1554   XZ=              0.0000   YZ=              0.0000

 Normal termination of Gaussian 16 at Sat Aug 27 23:56:45 2022.
