 Gaussian 16, Revision A.03,
 Gaussian 16:  ES64L-G16RevA.03 25-Dec-2016

 ------------------
 #p CCSD(T)/cc-pVTZ
 ------------------

 ------------
 H2O_H2O_3413
 ------------
 Symbolic Z-matrix:
 Charge =  0 Multiplicity = 1

                         Standard orientation:
 ---------------------------------------------------------------------
 Center     Atomic      Atomic             Coordinates (Angstroms)
 Number     Number       Type             X           Y           Z
 ---------------------------------------------------------------------
      1          8           0        0.052292    2.468647    0.000000
      2          1           0        0.050841    1.486047    0.000000
      3          1           0       -0.876730    2.788686    0.000000
      4          8           0        0.052292   -2.288749   -0.000000
      5          1           0        0.790094   -2.937713   -0.000000
      6          1           0       -0.800872   -2.776208   -0.000000
 ---------------------------------------------------------------------

 SCF Done:  E(RHF) =  -152.109247849     A.U. after   10 cycles
 E2 =    -0.5258754511D+00 EUMP2 =    -0.15263512329999D+03
 CCSD(T)
 CCSD(T)= -0.15266228750D+03

 The electronic state is 1-A'.
 Alpha  occ. eigenvalues --  -20.56476 -20.54626  -1.33764  -1.31941  -0.71167
 Alpha  occ. eigenvalues --   -0.69335  -0.57285  -0.55422  -0.50889  -0.49071
 Alpha virt. eigenvalues --    0.12701   0.15591   0.19542   0.21913   0.53384
 Alpha virt. eigenvalues --    0.55129   0.56450   0.58115   0.67175   0.69346
 Alpha virt. eigenvalues --    0.78017   0.79038   0.79471   0.79766   0.83068

 Mulliken charges:
               1
     1  O   -0.516651
     2  H    0.263114
     3  H    0.252008
     4  O   -0.515119
     5  H    0.259876
     6  H    0.256773
 Sum of Mulliken charges =  -0.00000

 Dipole moment (field-independent basis, Debye):
    X=             -1.7864    Y=             -3.2077    Z=             -0.0000  Tot=              3.6716
 Quadrupole moment (field-independent basis, Debye-Ang):
   XX=             -9.2258   YY=             -6.9395   ZZ=            -14.7178
   XY=             -4.7351   XZ=             -0.0000   YZ=              0.0000

 Normal termination of Gaussian 16 at Fri Aug 26 21:33:45 2022.
