 Gaussian 16, Revision A.03,
 Gaussian 16:  ES64L-G16RevA.03 25-Dec-2016

 ------------------
 #p CCSD(T)/cc-pVTZ
 ------------------

 ------------
 H2O_H2O_4976
 ------------
 Symbolic Z-matrix:
 Charge =  0 Multiplicity = 1

                         Standard orientation:
 ---------------------------------------------------------------------
 Center     Atomic      Atomic             Coordinates (Angstroms)
 Number     Number       Type             X           Y           Z
 ---------------------------------------------------------------------
      1          8           0        0.090683   -3.074504    0.000000
      2          1           0        0.090619   -2.091903    0.000000
      3          1           0       -0.838789   -3.393231    0.000000
      4          8           0        0.090683    2.935792    0.000000
      5          1           0        0.154885    3.916294    0.000000
      6          1           0       -0.857645    2.678537    0.000000
 ---------------------------------------------------------------------

 SCF Done:  E(RHF) =  -152.107640232     A.U. after   10 cycles
 E2 =    -0.5258609465D+00 EUMP2 =    -0.15263350117889D+03
 CCSD(T)
 CCSD(T)= -0.15266071678D+03

 The electronic state is 1-A'.
 Alpha  occ. eigenvalues --  -20.56134 -20.55349  -1.33435  -1.32650  -0.70848
 Alpha  occ. eigenvalues --   -0.70049  -0.56894  -0.56102  -0.50547  -0.49763
 Alpha virt. eigenvalues --    0.13203   0.14542   0.19158   0.21158   0.53494
 Alpha virt. eigenvalues --    0.54666   0.56623   0.57551   0.67124   0.68252
 Alpha virt. eigenvalues --    0.78341   0.79111   0.79701   0.80875   0.81682

 Mulliken charges:
               1
     1  O   -0.509740
     2  H    0.257115
     3  H    0.252609
     4  O   -0.510523
     5  H    0.257562
     6  H    0.252976
 Sum of Mulliken charges =   0.00000

 Dipole moment (field-independent basis, Debye):
    X=             -3.1135    Y=              2.4259    Z=              0.0000  Tot=              3.9470
 Quadrupole moment (field-independent basis, Debye-Ang):
   XX=            -10.6984   YY=             -8.8376   ZZ=            -14.7120
   XY=              2.4366   XZ=              0.0000   YZ=              0.0000

 Normal termination of Gaussian 16 at Sun Aug 28 07:20:49 2022.
