 Gaussian 16, Revision A.03,
 Gaussian 16:  ES64L-G16RevA.03 25-Dec-2016

 ------------------
 #p CCSD(T)/cc-pVTZ
 ------------------

 ------------
 H2O_H2O_2336
 ------------
 Symbolic Z-matrix:
 Charge =  0 Multiplicity = 1

                         Standard orientation:
 ---------------------------------------------------------------------
 Center     Atomic      Atomic             Coordinates (Angstroms)
 Number     Number       Type             X           Y           Z
 ---------------------------------------------------------------------
      1          8           0        0.059659    2.038509   -0.000000
      2          1           0        0.058209    1.055909   -0.000000
      3          1           0       -0.869363    2.358547   -0.000000
      4          8           0        0.059659   -1.861088    0.000000
      5          1           0        0.706442   -2.600803    0.000000
      6          1           0       -0.849833   -2.233018    0.000000
 ---------------------------------------------------------------------

 SCF Done:  E(RHF) =  -152.111032277     A.U. after   10 cycles
 E2 =    -0.5262121191D+00 EUMP2 =    -0.15263724439629D+03
 CCSD(T)
 CCSD(T)= -0.15266434305D+03

 The electronic state is 1-A'.
 Alpha  occ. eigenvalues --  -20.57070 -20.54069  -1.34329  -1.31404  -0.71728
 Alpha  occ. eigenvalues --   -0.68797  -0.57933  -0.54879  -0.51462  -0.48546
 Alpha virt. eigenvalues --    0.12213   0.16526   0.19321   0.24670   0.52455
 Alpha virt. eigenvalues --    0.55640   0.56122   0.58924   0.68940   0.71362
 Alpha virt. eigenvalues --    0.77095   0.78468   0.80322   0.82090   0.83598

 Mulliken charges:
               1
     1  O   -0.523156
     2  H    0.267172
     3  H    0.248647
     4  O   -0.508846
     5  H    0.260551
     6  H    0.255632
 Sum of Mulliken charges =  -0.00000

 Dipole moment (field-independent basis, Debye):
    X=             -2.0236    Y=             -3.2764    Z=              0.0000  Tot=              3.8509
 Quadrupole moment (field-independent basis, Debye-Ang):
   XX=             -9.3692   YY=             -7.7033   ZZ=            -14.7235
   XY=             -3.8969   XZ=              0.0000   YZ=              0.0000

 Normal termination of Gaussian 16 at Sun Aug 28 06:24:13 2022.
