 Gaussian 16, Revision A.03,
 Gaussian 16:  ES64L-G16RevA.03 25-Dec-2016

 ------------------
 #p CCSD(T)/cc-pVTZ
 ------------------

 -----------
 H2O_H2O_559
 -----------
 Symbolic Z-matrix:
 Charge =  0 Multiplicity = 1

                         Standard orientation:
 ---------------------------------------------------------------------
 Center     Atomic      Atomic             Coordinates (Angstroms)
 Number     Number       Type             X           Y           Z
 ---------------------------------------------------------------------
      1          8           0        0.066831    1.328101    0.000000
      2          1           0        0.065041    0.345501    0.000000
      3          1           0       -0.862079    1.648460    0.000000
      4          8           0        0.066831   -1.155107   -0.000000
      5          1           0        0.611247   -1.973103   -0.000000
      6          1           0       -0.883513   -1.404813   -0.000000
 ---------------------------------------------------------------------

 SCF Done:  E(RHF) =  -152.101591053     A.U. after   11 cycles
 E2 =    -0.5316425655D+00 EUMP2 =    -0.15263323361805D+03
 CCSD(T)
 CCSD(T)= -0.15265969799D+03

 The electronic state is 1-A'.
 Alpha  occ. eigenvalues --  -20.60014 -20.49663  -1.38348  -1.27932  -0.75590
 Alpha  occ. eigenvalues --   -0.70118  -0.58847  -0.55011  -0.50285  -0.44898
 Alpha virt. eigenvalues --    0.11253   0.17078   0.20072   0.33144   0.48098
 Alpha virt. eigenvalues --    0.53560   0.60207   0.62483   0.71410   0.72214
 Alpha virt. eigenvalues --    0.73672   0.78279   0.80212   0.83615   0.84116

 Mulliken charges:
               1
     1  O   -0.596022
     2  H    0.307138
     3  H    0.222699
     4  O   -0.426387
     5  H    0.247154
     6  H    0.245419
 Sum of Mulliken charges =  -0.00000

 Dipole moment (field-independent basis, Debye):
    X=             -2.1407    Y=             -4.0597    Z=             -0.0000  Tot=              4.5896
 Quadrupole moment (field-independent basis, Debye-Ang):
   XX=             -9.5707   YY=             -9.2986   ZZ=            -14.6732
   XY=             -2.9193   XZ=             -0.0000   YZ=             -0.0000

 Normal termination of Gaussian 16 at Fri Aug 26 19:04:09 2022.
