 Gaussian 16, Revision A.03,
 Gaussian 16:  ES64L-G16RevA.03 25-Dec-2016

 ------------------
 #p CCSD(T)/cc-pVTZ
 ------------------

 ------------
 H2O_H2O_3232
 ------------
 Symbolic Z-matrix:
 Charge =  0 Multiplicity = 1

                         Standard orientation:
 ---------------------------------------------------------------------
 Center     Atomic      Atomic             Coordinates (Angstroms)
 Number     Number       Type             X           Y           Z
 ---------------------------------------------------------------------
      1          8           0        0.073535    2.391805   -0.000000
      2          1           0        0.072821    1.409203   -0.000000
      3          1           0       -0.855727    2.711146   -0.000000
      4          8           0        0.073535   -2.224861    0.000000
      5          1           0        0.507488   -3.106445    0.000000
      6          1           0       -0.901136   -2.349453    0.000000
 ---------------------------------------------------------------------

 SCF Done:  E(RHF) =  -152.108957024     A.U. after   10 cycles
 E2 =    -0.5259448899D+00 EUMP2 =    -0.15263490191433D+03
 CCSD(T)
 CCSD(T)= -0.15266206828D+03

 The electronic state is 1-A'.
 Alpha  occ. eigenvalues --  -20.56551 -20.54737  -1.33840  -1.32050  -0.71252
 Alpha  occ. eigenvalues --   -0.69437  -0.57345  -0.55521  -0.50960  -0.49174
 Alpha virt. eigenvalues --    0.12326   0.15622   0.19421   0.22257   0.53529
 Alpha virt. eigenvalues --    0.55131   0.56372   0.58287   0.67460   0.69288
 Alpha virt. eigenvalues --    0.77945   0.78712   0.79671   0.80291   0.82932

 Mulliken charges:
               1
     1  O   -0.514644
     2  H    0.262377
     3  H    0.250492
     4  O   -0.512695
     5  H    0.260012
     6  H    0.254457
 Sum of Mulliken charges =   0.00000

 Dipole moment (field-independent basis, Debye):
    X=             -2.5092    Y=             -2.9864    Z=              0.0000  Tot=              3.9006
 Quadrupole moment (field-independent basis, Debye-Ang):
   XX=             -9.8148   YY=             -7.5865   ZZ=            -14.7166
   XY=             -3.6094   XZ=              0.0000   YZ=              0.0000

 Normal termination of Gaussian 16 at Fri Aug 26 20:32:16 2022.
