 Gaussian 16, Revision A.03,
 Gaussian 16:  ES64L-G16RevA.03 25-Dec-2016

 ------------------
 #p CCSD(T)/cc-pVTZ
 ------------------

 ------------
 H2O_H2O_4847
 ------------
 Symbolic Z-matrix:
 Charge =  0 Multiplicity = 1

                         Standard orientation:
 ---------------------------------------------------------------------
 Center     Atomic      Atomic             Coordinates (Angstroms)
 Number     Number       Type             X           Y           Z
 ---------------------------------------------------------------------
      1          8           0       -0.019807    3.030114    0.000000
      2          1           0       -0.017702    2.047515    0.000000
      3          1           0        0.909001    3.350771    0.000000
      4          8           0       -0.019807   -2.862985    0.000000
      5          1           0       -0.993725   -2.993327    0.000000
      6          1           0        0.419341   -3.741993    0.000000
 ---------------------------------------------------------------------

 SCF Done:  E(RHF) =  -152.108303644     A.U. after   10 cycles
 E2 =    -0.5257995906D+00 EUMP2 =    -0.15263410323462D+03
 CCSD(T)
 CCSD(T)= -0.15266130499D+03

 The electronic state is 1-A'.
 Alpha  occ. eigenvalues --  -20.56125 -20.55095  -1.33428  -1.32401  -0.70833
 Alpha  occ. eigenvalues --   -0.69807  -0.56915  -0.55872  -0.50546  -0.49524
 Alpha virt. eigenvalues --    0.13445   0.14765   0.19593   0.21006   0.53616
 Alpha virt. eigenvalues --    0.54805   0.56712   0.57734   0.67021   0.68479
 Alpha virt. eigenvalues --    0.78337   0.79337   0.79695   0.80675   0.82087

 Mulliken charges:
               1
     1  O   -0.513705
     2  H    0.259018
     3  H    0.254646
     4  O   -0.514190
     5  H    0.256878
     6  H    0.257354
 Sum of Mulliken charges =   0.00000

 Dipole moment (field-independent basis, Debye):
    X=              0.6809    Y=             -2.9248    Z=              0.0000  Tot=              3.0030
 Quadrupole moment (field-independent basis, Debye-Ang):
   XX=             -9.4480   YY=             -6.8248   ZZ=            -14.7144
   XY=              7.7016   XZ=              0.0000   YZ=              0.0000

 Normal termination of Gaussian 16 at Sun Aug 28 06:20:47 2022.
