 Gaussian 16, Revision A.03,
 Gaussian 16:  ES64L-G16RevA.03 25-Dec-2016

 ------------------
 #p CCSD(T)/cc-pVTZ
 ------------------

 ------------
 H2O_H2O_3680
 ------------
 Symbolic Z-matrix:
 Charge =  0 Multiplicity = 1

                         Standard orientation:
 ---------------------------------------------------------------------
 Center     Atomic      Atomic             Coordinates (Angstroms)
 Number     Number       Type             X           Y           Z
 ---------------------------------------------------------------------
      1          8           0        0.079848    2.567021   -0.000000
      2          1           0        0.079401    1.584420   -0.000000
      3          1           0       -0.849500    2.886110    0.000000
      4          8           0        0.079848   -2.407953   -0.000000
      5          1           0        0.395272   -3.338551   -0.000000
      6          1           0       -0.902748   -2.404526    0.000000
 ---------------------------------------------------------------------

 SCF Done:  E(RHF) =  -152.108358802     A.U. after   10 cycles
 E2 =    -0.5258956690D+00 EUMP2 =    -0.15263425447067D+03
 CCSD(T)
 CCSD(T)= -0.15266144359D+03

 The electronic state is 1-A'.
 Alpha  occ. eigenvalues --  -20.56393 -20.54969  -1.33690  -1.32276  -0.71104
 Alpha  occ. eigenvalues --   -0.69668  -0.57175  -0.55740  -0.50806  -0.49396
 Alpha virt. eigenvalues --    0.12465   0.15270   0.19299   0.21839   0.53269
 Alpha virt. eigenvalues --    0.55056   0.56465   0.57990   0.66803   0.69093
 Alpha virt. eigenvalues --    0.78097   0.78768   0.79461   0.80761   0.82708

 Mulliken charges:
               1
     1  O   -0.512374
     2  H    0.260495
     3  H    0.251185
     4  O   -0.512746
     5  H    0.259653
     6  H    0.253787
 Sum of Mulliken charges =  -0.00000

 Dipole moment (field-independent basis, Debye):
    X=             -2.7303    Y=             -2.8194    Z=              0.0000  Tot=              3.9247
 Quadrupole moment (field-independent basis, Debye-Ang):
   XX=            -10.0975   YY=             -7.7857   ZZ=            -14.7145
   XY=             -3.3038   XZ=             -0.0000   YZ=              0.0000

 Normal termination of Gaussian 16 at Fri Aug 26 23:04:39 2022.
