 Gaussian 16, Revision A.03,
 Gaussian 16:  ES64L-G16RevA.03 25-Dec-2016

 ------------------
 #p CCSD(T)/cc-pVTZ
 ------------------

 ------------
 H2O_H2O_2454
 ------------
 Symbolic Z-matrix:
 Charge =  0 Multiplicity = 1

                         Standard orientation:
 ---------------------------------------------------------------------
 Center     Atomic      Atomic             Coordinates (Angstroms)
 Number     Number       Type             X           Y           Z
 ---------------------------------------------------------------------
      1          8           0        0.082808   -2.075920    0.000000
      2          1           0        0.082377   -1.093319    0.000000
      3          1           0       -0.846546   -2.394994    0.000000
      4          8           0        0.082808    1.921411    0.000000
      5          1           0        0.336707    2.870643    0.000000
      6          1           0       -0.897461    1.853743    0.000000
 ---------------------------------------------------------------------

 SCF Done:  E(RHF) =  -152.109496275     A.U. after   10 cycles
 E2 =    -0.5262536185D+00 EUMP2 =    -0.15263574989337D+03
 CCSD(T)
 CCSD(T)= -0.15266288326D+03

 The electronic state is 1-A'.
 Alpha  occ. eigenvalues --  -20.56965 -20.54611  -1.34245  -1.31926  -0.71681
 Alpha  occ. eigenvalues --   -0.69296  -0.57766  -0.55383  -0.51361  -0.49050
 Alpha virt. eigenvalues --    0.11804   0.16076   0.19601   0.24074   0.53459
 Alpha virt. eigenvalues --    0.55541   0.56384   0.58122   0.68676   0.70965
 Alpha virt. eigenvalues --    0.77285   0.79272   0.79858   0.80737   0.83184

 Mulliken charges:
               1
     1  O   -0.516373
     2  H    0.264441
     3  H    0.247383
     4  O   -0.506278
     5  H    0.259318
     6  H    0.251510
 Sum of Mulliken charges =  -0.00000

 Dipole moment (field-independent basis, Debye):
    X=             -2.8088    Y=              2.8287    Z=              0.0000  Tot=              3.9864
 Quadrupole moment (field-independent basis, Debye-Ang):
   XX=            -10.2641   YY=             -8.3511   ZZ=            -14.7176
   XY=              2.9044   XZ=              0.0000   YZ=              0.0000

 Normal termination of Gaussian 16 at Sun Aug 28 07:26:18 2022.
