 Gaussian 16, Revision A.03,
 Gaussian 16:  ES64L-G16RevA.03 25-Dec-2016

 ------------------
 #p CCSD(T)/cc-pVTZ
 ------------------

 ------------
 H2O_H2O_2827
 ------------
 Symbolic Z-matrix:
 Charge =  0 Multiplicity = 1

                         Standard orientation:
 ---------------------------------------------------------------------
 Center     Atomic      Atomic             Coordinates (Angstroms)
 Number     Number       Type             X           Y           Z
 ---------------------------------------------------------------------
      1          8           0        0.088232   -2.219963    0.000000
      2          1           0        0.088046   -1.237362    0.000000
      3          1           0       -0.841200   -2.538806    0.000000
      4          8           0        0.088232    2.075645    0.000000
      5          1           0        0.216303    3.049866    0.000000
      6          1           0       -0.874866    1.880846    0.000000
 ---------------------------------------------------------------------

 SCF Done:  E(RHF) =  -152.108589625     A.U. after   10 cycles
 E2 =    -0.5261134621D+00 EUMP2 =    -0.15263470308751D+03
 CCSD(T)
 CCSD(T)= -0.15266186937D+03

 The electronic state is 1-A'.
 Alpha  occ. eigenvalues --  -20.56737 -20.54937  -1.34027  -1.32243  -0.71461
 Alpha  occ. eigenvalues --   -0.69619  -0.57511  -0.55698  -0.51138  -0.49360
 Alpha virt. eigenvalues --    0.11683   0.15735   0.19508   0.23302   0.54291
 Alpha virt. eigenvalues --    0.54859   0.56456   0.58182   0.68442   0.69277
 Alpha virt. eigenvalues --    0.77713   0.78639   0.79520   0.80834   0.82808

 Mulliken charges:
               1
     1  O   -0.512709
     2  H    0.261785
     3  H    0.248711
     4  O   -0.508064
     5  H    0.259609
     6  H    0.250668
 Sum of Mulliken charges =  -0.00000

 Dipole moment (field-independent basis, Debye):
    X=             -3.0011    Y=              2.6041    Z=              0.0000  Tot=              3.9734
 Quadrupole moment (field-independent basis, Debye-Ang):
   XX=            -10.5651   YY=             -8.6812   ZZ=            -14.7146
   XY=              2.5639   XZ=              0.0000   YZ=              0.0000

 Normal termination of Gaussian 16 at Fri Aug 26 17:36:06 2022.
