 Gaussian 16, Revision A.03,
 Gaussian 16:  ES64L-G16RevA.03 25-Dec-2016

 ------------------
 #p CCSD(T)/cc-pVTZ
 ------------------

 ------------
 H2O_H2O_1927
 ------------
 Symbolic Z-matrix:
 Charge =  0 Multiplicity = 1

                         Standard orientation:
 ---------------------------------------------------------------------
 Center     Atomic      Atomic             Coordinates (Angstroms)
 Number     Number       Type             X           Y           Z
 ---------------------------------------------------------------------
      1          8           0        0.088235   -1.860970    0.000000
      2          1           0        0.088011   -0.878369    0.000000
      3          1           0       -0.841185   -2.179849    0.000000
      4          8           0        0.088235    1.716659    0.000000
      5          1           0        0.216268    2.690883    0.000000
      6          1           0       -0.874857    1.521822    0.000000
 ---------------------------------------------------------------------

 SCF Done:  E(RHF) =  -152.109690088     A.U. after   10 cycles
 E2 =    -0.5267635740D+00 EUMP2 =    -0.15263645366225D+03
 CCSD(T)
 CCSD(T)= -0.15266356445D+03

 The electronic state is 1-A'.
 Alpha  occ. eigenvalues --  -20.57386 -20.54522  -1.34680  -1.31847  -0.72197
 Alpha  occ. eigenvalues --   -0.69179  -0.58213  -0.55269  -0.51779  -0.48964
 Alpha virt. eigenvalues --    0.11596   0.16264   0.20004   0.25889   0.51612
 Alpha virt. eigenvalues --    0.55529   0.56999   0.57555   0.68419   0.73930
 Alpha virt. eigenvalues --    0.75838   0.78494   0.80154   0.82962   0.82967

 Mulliken charges:
               1
     1  O   -0.518156
     2  H    0.267220
     3  H    0.243968
     4  O   -0.498661
     5  H    0.257822
     6  H    0.247807
 Sum of Mulliken charges =  -0.00000

 Dipole moment (field-independent basis, Debye):
    X=             -2.9722    Y=              2.7127    Z=              0.0000  Tot=              4.0241
 Quadrupole moment (field-independent basis, Debye-Ang):
   XX=            -10.5866   YY=             -8.7884   ZZ=            -14.7173
   XY=              2.4939   XZ=              0.0000   YZ=              0.0000

 652907\MP4DQ=-152.6453032\MP4SDQ=-152.6484177\CCSD=-152.6478\CCSD(T)=-
 Normal termination of Gaussian 16 at Sun Aug 28 02:51:11 2022.
