 Gaussian 16, Revision A.03,
 Gaussian 16:  ES64L-G16RevA.03 25-Dec-2016

 ------------------
 #p CCSD(T)/cc-pVTZ
 ------------------

 ------------
 H2O_H2O_2456
 ------------
 Symbolic Z-matrix:
 Charge =  0 Multiplicity = 1

                         Standard orientation:
 ---------------------------------------------------------------------
 Center     Atomic      Atomic             Coordinates (Angstroms)
 Number     Number       Type             X           Y           Z
 ---------------------------------------------------------------------
      1          8           0        0.076765    2.080639   -0.000000
      2          1           0        0.076077    1.098038   -0.000000
      3          1           0       -0.852505    2.399956   -0.000000
      4          8           0        0.076765   -1.917443    0.000000
      5          1           0        0.452155   -2.825512    0.000000
      6          1           0       -0.903966   -1.978049    0.000000
 ---------------------------------------------------------------------

 SCF Done:  E(RHF) =  -152.109930876     A.U. after   10 cycles
 E2 =    -0.5262180172D+00 EUMP2 =    -0.15263614889326D+03
 CCSD(T)
 CCSD(T)= -0.15266327261D+03

 The electronic state is 1-A'.
 Alpha  occ. eigenvalues --  -20.56970 -20.54444  -1.34244  -1.31765  -0.71667
 Alpha  occ. eigenvalues --   -0.69142  -0.57787  -0.55229  -0.51366  -0.48895
 Alpha virt. eigenvalues --    0.11965   0.16185   0.19493   0.24085   0.53294
 Alpha virt. eigenvalues --    0.55596   0.56201   0.58404   0.68770   0.70849
 Alpha virt. eigenvalues --    0.77296   0.79117   0.79992   0.81079   0.83235

 Mulliken charges:
               1
     1  O   -0.518227
     2  H    0.265251
     3  H    0.247745
     4  O   -0.507432
     5  H    0.259571
     6  H    0.253093
 Sum of Mulliken charges =  -0.00000

 Dipole moment (field-independent basis, Debye):
    X=             -2.6050    Y=             -2.9911    Z=              0.0000  Tot=              3.9665
 Quadrupole moment (field-independent basis, Debye-Ang):
   XX=             -9.9640   YY=             -8.0578   ZZ=            -14.7193
   XY=             -3.2421   XZ=              0.0000   YZ=             -0.0000

 Normal termination of Gaussian 16 at Sun Aug 28 07:27:58 2022.
