 Gaussian 16, Revision A.03,
 Gaussian 16:  ES64L-G16RevA.03 25-Dec-2016

 ------------------
 #p CCSD(T)/cc-pVTZ
 ------------------

 ------------
 H2O_H2O_4225
 ------------
 Symbolic Z-matrix:
 Charge =  0 Multiplicity = 1

                         Standard orientation:
 ---------------------------------------------------------------------
 Center     Atomic      Atomic             Coordinates (Angstroms)
 Number     Number       Type             X           Y           Z
 ---------------------------------------------------------------------
      1          8           0        0.092949   -2.772128    0.000000
      2          1           0        0.092949   -1.789527    0.000000
      3          1           0       -0.836544   -3.090795    0.000000
      4          8           0        0.092949    2.639341    0.000000
      5          1           0        0.092949    3.621943    0.000000
      6          1           0       -0.836544    2.320674    0.000000
 ---------------------------------------------------------------------

 SCF Done:  E(RHF) =  -152.107651503     A.U. after   10 cycles
 E2 =    -0.5258914751D+00 EUMP2 =    -0.15263354297824D+03
 CCSD(T)
 CCSD(T)= -0.15266075578D+03

 The electronic state is 1-A'.
 Alpha  occ. eigenvalues --  -20.56266 -20.55327  -1.33567  -1.32628  -0.70984
 Alpha  occ. eigenvalues --   -0.70023  -0.57026  -0.56079  -0.50677  -0.49740
 Alpha virt. eigenvalues --    0.12433   0.14871   0.18821   0.22027   0.53145
 Alpha virt. eigenvalues --    0.54877   0.56516   0.57745   0.66826   0.68568
 Alpha virt. eigenvalues --    0.78218   0.79134   0.79486   0.81550   0.81835

 Mulliken charges:
               1
     1  O   -0.509425
     2  H    0.257477
     3  H    0.251832
     4  O   -0.510498
     5  H    0.258577
     6  H    0.252037
 Sum of Mulliken charges =  -0.00000

 Dipole moment (field-independent basis, Debye):
    X=             -3.1849    Y=              2.3352    Z=              0.0000  Tot=              3.9493
 Quadrupole moment (field-independent basis, Debye-Ang):
   XX=            -10.8464   YY=             -9.2776   ZZ=            -14.7117
   XY=              2.1559   XZ=              0.0000   YZ=              0.0000

 Normal termination of Gaussian 16 at Sun Aug 28 00:56:30 2022.
