 Gaussian 16, Revision A.03,
 Gaussian 16:  ES64L-G16RevA.03 25-Dec-2016

 ------------------
 #p CCSD(T)/cc-pVTZ
 ------------------

 ------------
 H2O_H2O_3507
 ------------
 Symbolic Z-matrix:
 Charge =  0 Multiplicity = 1

                         Standard orientation:
 ---------------------------------------------------------------------
 Center     Atomic      Atomic             Coordinates (Angstroms)
 Number     Number       Type             X           Y           Z
 ---------------------------------------------------------------------
      1          8           0        0.073532    2.501498    0.000000
      2          1           0        0.072850    1.518897    0.000000
      3          1           0       -0.855740    2.820809    0.000000
      4          8           0        0.073532   -2.334550   -0.000000
      5          1           0        0.507515   -3.216120   -0.000000
      6          1           0       -0.901135   -2.459174   -0.000000
 ---------------------------------------------------------------------

 SCF Done:  E(RHF) =  -152.108691351     A.U. after   10 cycles
 E2 =    -0.5259010974D+00 EUMP2 =    -0.15263459244819D+03
 CCSD(T)
 CCSD(T)= -0.15266177062D+03

 The electronic state is 1-A'.
 Alpha  occ. eigenvalues --  -20.56447 -20.54829  -1.33740  -1.32139  -0.71151
 Alpha  occ. eigenvalues --   -0.69530  -0.57237  -0.55608  -0.50859  -0.49262
 Alpha virt. eigenvalues --    0.12497   0.15425   0.19413   0.21882   0.53370
 Alpha virt. eigenvalues --    0.55083   0.56436   0.58080   0.66972   0.69232
 Alpha virt. eigenvalues --    0.78046   0.78717   0.79588   0.80377   0.82854

 Mulliken charges:
               1
     1  O   -0.513781
     2  H    0.261606
     3  H    0.251084
     4  O   -0.513380
     5  H    0.259873
     6  H    0.254599
 Sum of Mulliken charges =  -0.00000

 Dipole moment (field-independent basis, Debye):
    X=             -2.5125    Y=             -2.9692    Z=              0.0000  Tot=              3.8896
 Quadrupole moment (field-independent basis, Debye-Ang):
   XX=             -9.8129   YY=             -7.4638   ZZ=            -14.7157
   XY=             -3.6840   XZ=             -0.0000   YZ=              0.0000

 Normal termination of Gaussian 16 at Fri Aug 26 22:06:00 2022.
