 Gaussian 16, Revision A.03,
 Gaussian 16:  ES64L-G16RevA.03 25-Dec-2016

 ------------------
 #p CCSD(T)/cc-pVTZ
 ------------------

 ------------
 H2O_H2O_4108
 ------------
 Symbolic Z-matrix:
 Charge =  0 Multiplicity = 1

                         Standard orientation:
 ---------------------------------------------------------------------
 Center     Atomic      Atomic             Coordinates (Angstroms)
 Number     Number       Type             X           Y           Z
 ---------------------------------------------------------------------
      1          8           0        0.070188    2.742625   -0.000000
      2          1           0        0.069461    1.760024   -0.000000
      3          1           0       -0.859070    3.061979   -0.000000
      4          8           0        0.070188   -2.572362    0.000000
      5          1           0        0.560859   -3.423683    0.000000
      6          1           0       -0.894250   -2.760422    0.000000
 ---------------------------------------------------------------------

 SCF Done:  E(RHF) =  -152.108356242     A.U. after   10 cycles
 E2 =    -0.5258435393D+00 EUMP2 =    -0.15263419978125D+03
 CCSD(T)
 CCSD(T)= -0.15266139463D+03

 The electronic state is 1-A'.
 Alpha  occ. eigenvalues --  -20.56274 -20.54953  -1.33574  -1.32260  -0.70982
 Alpha  occ. eigenvalues --   -0.69656  -0.57062  -0.55727  -0.50691  -0.49381
 Alpha virt. eigenvalues --    0.12996   0.15062   0.19498   0.21307   0.53393
 Alpha virt. eigenvalues --    0.54952   0.56563   0.57834   0.66706   0.68948
 Alpha virt. eigenvalues --    0.78202   0.79167   0.79475   0.80391   0.82727

 Mulliken charges:
               1
     1  O   -0.513003
     2  H    0.260577
     3  H    0.252110
     4  O   -0.513870
     5  H    0.259151
     6  H    0.255035
 Sum of Mulliken charges =  -0.00000

 Dipole moment (field-independent basis, Debye):
    X=             -2.4040    Y=             -3.0008    Z=              0.0000  Tot=              3.8450
 Quadrupole moment (field-independent basis, Debye-Ang):
   XX=             -9.6800   YY=             -7.0116   ZZ=            -14.7145
   XY=             -4.0714   XZ=              0.0000   YZ=             -0.0000

 Normal termination of Gaussian 16 at Sat Aug 27 23:43:21 2022.
