 Gaussian 16, Revision A.03,
 Gaussian 16:  ES64L-G16RevA.03 25-Dec-2016

 ------------------
 #p CCSD(T)/cc-pVTZ
 ------------------

 ------------
 H2O_H2O_2183
 ------------
 Symbolic Z-matrix:
 Charge =  0 Multiplicity = 1

                         Standard orientation:
 ---------------------------------------------------------------------
 Center     Atomic      Atomic             Coordinates (Angstroms)
 Number     Number       Type             X           Y           Z
 ---------------------------------------------------------------------
      1          8           0        0.070213    1.974765    0.000000
      2          1           0        0.069191    0.992164    0.000000
      3          1           0       -0.858948    2.294398    0.000000
      4          8           0        0.070213   -1.804545   -0.000000
      5          1           0        0.560629   -2.656013   -0.000000
      6          1           0       -0.894281   -1.992314   -0.000000
 ---------------------------------------------------------------------

 SCF Done:  E(RHF) =  -152.110925284     A.U. after   10 cycles
 E2 =    -0.5263591354D+00 EUMP2 =    -0.15263728441910D+03
 CCSD(T)
 CCSD(T)= -0.15266437899D+03

 The electronic state is 1-A'.
 Alpha  occ. eigenvalues --  -20.57187 -20.54108  -1.34450  -1.31443  -0.71864
 Alpha  occ. eigenvalues --   -0.68831  -0.58050  -0.54902  -0.51578  -0.48580
 Alpha virt. eigenvalues --    0.12036   0.16521   0.19403   0.25153   0.52258
 Alpha virt. eigenvalues --    0.55805   0.55968   0.58523   0.68863   0.71995
 Alpha virt. eigenvalues --    0.76747   0.78549   0.80339   0.83385   0.83480

 Mulliken charges:
               1
     1  O   -0.522283
     2  H    0.267215
     3  H    0.246962
     4  O   -0.506371
     5  H    0.260309
     6  H    0.254167
 Sum of Mulliken charges =  -0.00000

 Dipole moment (field-independent basis, Debye):
    X=             -2.3771    Y=             -3.1642    Z=             -0.0000  Tot=              3.9576
 Quadrupole moment (field-independent basis, Debye-Ang):
   XX=             -9.6951   YY=             -7.9819   ZZ=            -14.7231
   XY=             -3.4604   XZ=             -0.0000   YZ=              0.0000

 Normal termination of Gaussian 16 at Sun Aug 28 05:10:31 2022.
