 Gaussian 16, Revision A.03,
 Gaussian 16:  ES64L-G16RevA.03 25-Dec-2016

 ------------------
 #p CCSD(T)/cc-pVTZ
 ------------------

 -----------
 H2O_H2O_429
 -----------
 Symbolic Z-matrix:
 Charge =  0 Multiplicity = 1

                         Standard orientation:
 ---------------------------------------------------------------------
 Center     Atomic      Atomic             Coordinates (Angstroms)
 Number     Number       Type             X           Y           Z
 ---------------------------------------------------------------------
      1          8           0        0.082831   -1.268169    0.000000
      2          1           0        0.082108   -0.285568    0.000000
      3          1           0       -0.846428   -1.587519    0.000000
      4          8           0        0.082831    1.113710    0.000000
      5          1           0        0.336450    2.063017    0.000000
      6          1           0       -0.897418    1.045750    0.000000
 ---------------------------------------------------------------------

 SCF Done:  E(RHF) =  -152.088843990     A.U. after   11 cycles
 E2 =    -0.5336126884D+00 EUMP2 =    -0.15262245667855D+03
 CCSD(T)
 CCSD(T)= -0.15264878756D+03

 The electronic state is 1-A'.
 Alpha  occ. eigenvalues --  -20.60350 -20.49793  -1.39406  -1.28176  -0.77914
 Alpha  occ. eigenvalues --   -0.69522  -0.58684  -0.55604  -0.50473  -0.45100
 Alpha virt. eigenvalues --    0.11071   0.16471   0.20778   0.32688   0.48765
 Alpha virt. eigenvalues --    0.52420   0.59295   0.64657   0.71805   0.72386
 Alpha virt. eigenvalues --    0.74339   0.77819   0.78993   0.83521   0.84577

 Mulliken charges:
               1
     1  O   -0.586431
     2  H    0.290451
     3  H    0.212635
     4  O   -0.381409
     5  H    0.230742
     6  H    0.234013
 Sum of Mulliken charges =  -0.00000

 Dipole moment (field-independent basis, Debye):
    X=             -2.6340    Y=              3.8114    Z=              0.0000  Tot=              4.6331
 Quadrupole moment (field-independent basis, Debye-Ang):
   XX=            -10.2658   YY=             -9.4414   ZZ=            -14.6303
   XY=              2.4943   XZ=              0.0000   YZ=              0.0000

 Normal termination of Gaussian 16 at Fri Aug 26 18:12:21 2022.
