 Gaussian 16, Revision A.03,
 Gaussian 16:  ES64L-G16RevA.03 25-Dec-2016

 ------------------
 #p CCSD(T)/cc-pVTZ
 ------------------

 -----------
 H2O_H2O_360
 -----------
 Symbolic Z-matrix:
 Charge =  0 Multiplicity = 1

                         Standard orientation:
 ---------------------------------------------------------------------
 Center     Atomic      Atomic             Coordinates (Angstroms)
 Number     Number       Type             X           Y           Z
 ---------------------------------------------------------------------
      1          8           0        0.063330    1.249619    0.000000
      2          1           0        0.061160    0.267020    0.000000
      3          1           0       -0.865456    1.570338    0.000000
      4          8           0        0.063330   -1.074248   -0.000000
      5          1           0        0.659777   -1.855116   -0.000000
      6          1           0       -0.868767   -1.385213   -0.000000
 ---------------------------------------------------------------------

 SCF Done:  E(RHF) =  -152.088250578     A.U. after   11 cycles
 E2 =    -0.5333342226D+00 EUMP2 =    -0.15262158480040D+03
 CCSD(T)
 CCSD(T)= -0.15264772855D+03

 The electronic state is 1-A'.
 Alpha  occ. eigenvalues --  -20.60756 -20.47881  -1.39923  -1.26725  -0.76809
 Alpha  occ. eigenvalues --   -0.72428  -0.57516  -0.56176  -0.48431  -0.43566
 Alpha virt. eigenvalues --    0.10954   0.16869   0.20461   0.33198   0.48056
 Alpha virt. eigenvalues --    0.52975   0.61136   0.63609   0.71882   0.72025
 Alpha virt. eigenvalues --    0.75991   0.79557   0.79603   0.83339   0.84067

 Mulliken charges:
               1
     1  O   -0.619614
     2  H    0.305107
     3  H    0.214707
     4  O   -0.390984
     5  H    0.246181
     6  H    0.244604
 Sum of Mulliken charges =  -0.00000

 Dipole moment (field-independent basis, Debye):
    X=             -1.9896    Y=             -4.4007    Z=             -0.0000  Tot=              4.8295
 Quadrupole moment (field-independent basis, Debye-Ang):
   XX=             -9.4454   YY=             -9.6201   ZZ=            -14.6376
   XY=             -2.8430   XZ=             -0.0000   YZ=              0.0000

 Normal termination of Gaussian 16 at Fri Aug 26 17:41:29 2022.
