 Gaussian 16, Revision A.03,
 Gaussian 16:  ES64L-G16RevA.03 25-Dec-2016

 ------------------
 #p CCSD(T)/cc-pVTZ
 ------------------

 ------------
 H2O_H2O_3296
 ------------
 Symbolic Z-matrix:
 Charge =  0 Multiplicity = 1

                         Standard orientation:
 ---------------------------------------------------------------------
 Center     Atomic      Atomic             Coordinates (Angstroms)
 Number     Number       Type             X           Y           Z
 ---------------------------------------------------------------------
      1          8           0       -0.023203    2.413628    0.000000
      2          1           0       -0.020661    1.431030    0.000000
      3          1           0        0.905463    2.734698    0.000000
      4          8           0       -0.023203   -2.243238    0.000000
      5          1           0       -0.986425   -2.437425    0.000000
      6          1           0        0.472872   -3.091422    0.000000
 ---------------------------------------------------------------------

 SCF Done:  E(RHF) =  -152.109478860     A.U. after   10 cycles
 E2 =    -0.5258694522D+00 EUMP2 =    -0.15263534831203D+03
 CCSD(T)
 CCSD(T)= -0.15266250692D+03

 The electronic state is 1-A'.
 Alpha  occ. eigenvalues --  -20.56505 -20.54665  -1.33795  -1.31981  -0.71198
 Alpha  occ. eigenvalues --   -0.69385  -0.57324  -0.55469  -0.50921  -0.49115
 Alpha virt. eigenvalues --    0.12528   0.15689   0.19367   0.22344   0.53398
 Alpha virt. eigenvalues --    0.55391   0.56498   0.58111   0.67373   0.69334
 Alpha virt. eigenvalues --    0.77982   0.78742   0.79721   0.80227   0.83054

 Mulliken charges:
               1
     1  O   -0.518378
     2  H    0.262585
     3  H    0.254078
     4  O   -0.515841
     5  H    0.258882
     6  H    0.258674
 Sum of Mulliken charges =  -0.00000

 Dipole moment (field-independent basis, Debye):
    X=              0.7943    Y=             -3.0434    Z=              0.0000  Tot=              3.1454
 Quadrupole moment (field-independent basis, Debye-Ang):
   XX=             -9.3612   YY=             -7.3971   ZZ=            -14.7185
   XY=              5.9667   XZ=              0.0000   YZ=              0.0000

 Normal termination of Gaussian 16 at Fri Aug 26 20:53:30 2022.
