 Gaussian 16, Revision A.03,
 Gaussian 16:  ES64L-G16RevA.03 25-Dec-2016

 ------------------
 #p CCSD(T)/cc-pVTZ
 ------------------

 ------------
 H2O_H2O_2124
 ------------
 Symbolic Z-matrix:
 Charge =  0 Multiplicity = 1

                         Standard orientation:
 ---------------------------------------------------------------------
 Center     Atomic      Atomic             Coordinates (Angstroms)
 Number     Number       Type             X           Y           Z
 ---------------------------------------------------------------------
      1          8           0       -0.013572    1.938898    0.000000
      2          1           0       -0.009947    0.956303    0.000000
      3          1           0        0.914739    2.260991    0.000000
      4          8           0       -0.013572   -1.779654    0.000000
      5          1           0       -0.996166   -1.783279    0.000000
      6          1           0        0.308521   -2.707966    0.000000
 ---------------------------------------------------------------------

 SCF Done:  E(RHF) =  -152.111476859     A.U. after   10 cycles
 E2 =    -0.5262987581D+00 EUMP2 =    -0.15263777561748D+03
 CCSD(T)
 CCSD(T)= -0.15266486496D+03

 The electronic state is 1-A'.
 Alpha  occ. eigenvalues --  -20.57179 -20.54162  -1.34458  -1.31506  -0.71890
 Alpha  occ. eigenvalues --   -0.68924  -0.58093  -0.54977  -0.51586  -0.48657
 Alpha virt. eigenvalues --    0.12168   0.16735   0.19269   0.25813   0.53316
 Alpha virt. eigenvalues --    0.54709   0.55984   0.58918   0.68648   0.72711
 Alpha virt. eigenvalues --    0.76544   0.78982   0.80307   0.83008   0.83478

 Mulliken charges:
               1
     1  O   -0.528662
     2  H    0.265947
     3  H    0.254666
     4  O   -0.510178
     5  H    0.260004
     6  H    0.258224
 Sum of Mulliken charges =  -0.00000

 Dipole moment (field-independent basis, Debye):
    X=              0.4689    Y=             -2.9662    Z=              0.0000  Tot=              3.0031
 Quadrupole moment (field-independent basis, Debye-Ang):
   XX=             -9.6501   YY=             -8.2981   ZZ=            -14.7249
   XY=              5.2291   XZ=              0.0000   YZ=              0.0000

 Normal termination of Gaussian 16 at Sun Aug 28 04:33:26 2022.
