 Gaussian 16, Revision A.03,
 Gaussian 16:  ES64L-G16RevA.03 25-Dec-2016

 ------------------
 #p CCSD(T)/cc-pVTZ
 ------------------

 -----------
 H2O_H2O_615
 -----------
 Symbolic Z-matrix:
 Charge =  0 Multiplicity = 1

                         Standard orientation:
 ---------------------------------------------------------------------
 Center     Atomic      Atomic             Coordinates (Angstroms)
 Number     Number       Type             X           Y           Z
 ---------------------------------------------------------------------
      1          8           0        0.044989    1.352002   -0.000000
      2          1           0        0.041755    0.369406   -0.000000
      3          1           0       -0.883449    1.673727    0.000000
      4          8           0        0.044989   -1.171733   -0.000000
      5          1           0        0.860191   -1.720324   -0.000000
      6          1           0       -0.738328   -1.764961    0.000000
 ---------------------------------------------------------------------

 SCF Done:  E(RHF) =  -152.105612496     A.U. after   11 cycles
 E2 =    -0.5308203144D+00 EUMP2 =    -0.15263643280988D+03
 CCSD(T)
 CCSD(T)= -0.15266294223D+03

 The electronic state is 1-A'.
 Alpha  occ. eigenvalues --  -20.59868 -20.49491  -1.38001  -1.27743  -0.74787
 Alpha  occ. eigenvalues --   -0.70183  -0.59018  -0.54793  -0.50089  -0.44738
 Alpha virt. eigenvalues --    0.11425   0.17796   0.19560   0.33435   0.47539
 Alpha virt. eigenvalues --    0.53906   0.60017   0.63334   0.69785   0.72340
 Alpha virt. eigenvalues --    0.72936   0.78391   0.81563   0.82710   0.84226

 Mulliken charges:
               1
     1  O   -0.604494
     2  H    0.313293
     3  H    0.230973
     4  O   -0.454319
     5  H    0.262375
     6  H    0.252172
 Sum of Mulliken charges =  -0.00000

 Dipole moment (field-independent basis, Debye):
    X=             -1.4506    Y=             -4.1696    Z=             -0.0000  Tot=              4.4148
 Quadrupole moment (field-independent basis, Debye-Ang):
   XX=             -9.1386   YY=             -9.2707   ZZ=            -14.6913
   XY=             -3.1406   XZ=             -0.0000   YZ=             -0.0000

 Normal termination of Gaussian 16 at Fri Aug 26 19:24:57 2022.
