 Gaussian 16, Revision A.03,
 Gaussian 16:  ES64L-G16RevA.03 25-Dec-2016

 ------------------
 #p CCSD(T)/cc-pVTZ
 ------------------

 ------------
 H2O_H2O_1028
 ------------
 Symbolic Z-matrix:
 Charge =  0 Multiplicity = 1

                         Standard orientation:
 ---------------------------------------------------------------------
 Center     Atomic      Atomic             Coordinates (Angstroms)
 Number     Number       Type             X           Y           Z
 ---------------------------------------------------------------------
      1          8           0        0.085613   -1.504837    0.000000
      2          1           0        0.085177   -0.522236    0.000000
      3          1           0       -0.843738   -1.823916    0.000000
      4          8           0        0.085613    1.355269    0.000000
      5          1           0        0.276882    2.319075    0.000000
      6          1           0       -0.888130    1.223628    0.000000
 ---------------------------------------------------------------------

 SCF Done:  E(RHF) =  -152.108811287     A.U. after   10 cycles
 E2 =    -0.5291617948D+00 EUMP2 =    -0.15263797308210D+03
 CCSD(T)
 CCSD(T)= -0.15266490651D+03

 The electronic state is 1-A'.
 Alpha  occ. eigenvalues --  -20.58680 -20.52998  -1.36269  -1.30549  -0.74180
 Alpha  occ. eigenvalues --   -0.68200  -0.59552  -0.53704  -0.53226  -0.47623
 Alpha virt. eigenvalues --    0.11514   0.16622   0.20235   0.30790   0.48452
 Alpha virt. eigenvalues --    0.53819   0.58343   0.60101   0.68773   0.72262
 Alpha virt. eigenvalues --    0.74408   0.77581   0.80810   0.81997   0.83487

 Mulliken charges:
               1
     1  O   -0.542187
     2  H    0.285843
     3  H    0.232371
     4  O   -0.452365
     5  H    0.236910
     6  H    0.239428
 Sum of Mulliken charges =  -0.00000

 Dipole moment (field-independent basis, Debye):
    X=             -2.8203    Y=              3.1314    Z=              0.0000  Tot=              4.2142
 Quadrupole moment (field-independent basis, Debye-Ang):
   XX=            -10.4510   YY=             -8.9543   ZZ=            -14.7020
   XY=              2.5334   XZ=              0.0000   YZ=              0.0000

 CCSD(T)=-152.6649065\RMSD=7.933e-09\PG=CS [SG(H4O2)]\\@
 Normal termination of Gaussian 16 at Fri Aug 26 21:59:48 2022.
