 Gaussian 16, Revision A.03,
 Gaussian 16:  ES64L-G16RevA.03 25-Dec-2016

 ------------------
 #p CCSD(T)/cc-pVTZ
 ------------------

 ------------
 H2O_H2O_1611
 ------------
 Symbolic Z-matrix:
 Charge =  0 Multiplicity = 1

                         Standard orientation:
 ---------------------------------------------------------------------
 Center     Atomic      Atomic             Coordinates (Angstroms)
 Number     Number       Type             X           Y           Z
 ---------------------------------------------------------------------
      1          8           0        0.059682    1.749308    0.000000
      2          1           0        0.057979    0.766708    0.000000
      3          1           0       -0.869258    2.069584    0.000000
      4          8           0        0.059682   -1.571918   -0.000000
      5          1           0        0.706276   -2.311798   -0.000000
      6          1           0       -0.849905   -1.943614   -0.000000
 ---------------------------------------------------------------------

 SCF Done:  E(RHF) =  -152.113107137     A.U. after   10 cycles
 E2 =    -0.5269818200D+00 EUMP2 =    -0.15264008895677D+03
 CCSD(T)
 CCSD(T)= -0.15266711106D+03

 The electronic state is 1-A'.
 Alpha  occ. eigenvalues --  -20.57803 -20.53241  -1.35077  -1.30649  -0.72450
 Alpha  occ. eigenvalues --   -0.68190  -0.58837  -0.54028  -0.52205  -0.47795
 Alpha virt. eigenvalues --    0.12011   0.17238   0.19173   0.28213   0.50031
 Alpha virt. eigenvalues --    0.55016   0.56370   0.59047   0.69323   0.72513
 Alpha virt. eigenvalues --    0.74769   0.76860   0.81247   0.83091   0.84516

 Mulliken charges:
               1
     1  O   -0.535196
     2  H    0.274984
     3  H    0.244587
     4  O   -0.504486
     5  H    0.263420
     6  H    0.256691
 Sum of Mulliken charges =  -0.00000

 Dipole moment (field-independent basis, Debye):
    X=             -2.0037    Y=             -3.4384    Z=             -0.0000  Tot=              3.9796
 Quadrupole moment (field-independent basis, Debye-Ang):
   XX=             -9.3764   YY=             -8.2105   ZZ=            -14.7323
   XY=             -3.5565   XZ=             -0.0000   YZ=             -0.0000

 Normal termination of Gaussian 16 at Sat Aug 27 23:53:13 2022.
