 Gaussian 16, Revision A.03,
 Gaussian 16:  ES64L-G16RevA.03 25-Dec-2016

 ------------------
 #p CCSD(T)/cc-pVTZ
 ------------------

 ------------
 H2O_H2O_4549
 ------------
 Symbolic Z-matrix:
 Charge =  0 Multiplicity = 1

                         Standard orientation:
 ---------------------------------------------------------------------
 Center     Atomic      Atomic             Coordinates (Angstroms)
 Number     Number       Type             X           Y           Z
 ---------------------------------------------------------------------
      1          8           0       -0.013471    2.906188    0.000000
      2          1           0       -0.011087    1.923590    0.000000
      3          1           0        0.915246    3.227109    0.000000
      4          8           0       -0.013471   -2.746911    0.000000
      5          1           0       -0.996070   -2.749294    0.000000
      6          1           0        0.307450   -3.675628    0.000000
 ---------------------------------------------------------------------

 SCF Done:  E(RHF) =  -152.108384898     A.U. after   10 cycles
 E2 =    -0.5258003509D+00 EUMP2 =    -0.15263418524896D+03
 CCSD(T)
 CCSD(T)= -0.15266138458D+03

 The electronic state is 1-A'.
 Alpha  occ. eigenvalues --  -20.56171 -20.55101  -1.33474  -1.32407  -0.70881
 Alpha  occ. eigenvalues --   -0.69815  -0.56964  -0.55880  -0.50593  -0.49531
 Alpha virt. eigenvalues --    0.13216   0.14865   0.19369   0.21305   0.53427
 Alpha virt. eigenvalues --    0.54902   0.56675   0.57757   0.66875   0.68599
 Alpha virt. eigenvalues --    0.78293   0.79328   0.79560   0.80820   0.82234

 Mulliken charges:
               1
     1  O   -0.514138
     2  H    0.259042
     3  H    0.255006
     4  O   -0.514619
     5  H    0.256744
     6  H    0.257965
 Sum of Mulliken charges =   0.00000

 Dipole moment (field-independent basis, Debye):
    X=              0.4639    Y=             -2.7928    Z=              0.0000  Tot=              2.8310
 Quadrupole moment (field-independent basis, Debye-Ang):
   XX=             -9.6485   YY=             -7.4529   ZZ=            -14.7146
   XY=              7.8761   XZ=              0.0000   YZ=              0.0000

 Normal termination of Gaussian 16 at Sun Aug 28 03:46:39 2022.
