 Gaussian 16, Revision A.03,
 Gaussian 16:  ES64L-G16RevA.03 25-Dec-2016

 ------------------
 #p CCSD(T)/cc-pVTZ
 ------------------

 ------------
 H2O_H2O_3032
 ------------
 Symbolic Z-matrix:
 Charge =  0 Multiplicity = 1

                         Standard orientation:
 ---------------------------------------------------------------------
 Center     Atomic      Atomic             Coordinates (Angstroms)
 Number     Number       Type             X           Y           Z
 ---------------------------------------------------------------------
      1          8           0        0.073537    2.312027    0.000000
      2          1           0        0.072797    1.329426    0.000000
      3          1           0       -0.855716    2.631393    0.000000
      4          8           0        0.073537   -2.145088   -0.000000
      5          1           0        0.507468   -3.026683   -0.000000
      6          1           0       -0.901137   -2.269655   -0.000000
 ---------------------------------------------------------------------

 SCF Done:  E(RHF) =  -152.109192832     A.U. after   10 cycles
 E2 =    -0.5259883893D+00 EUMP2 =    -0.15263518122163D+03
 CCSD(T)
 CCSD(T)= -0.15266233750D+03

 The electronic state is 1-A'.
 Alpha  occ. eigenvalues --  -20.56640 -20.54661  -1.33924  -1.31975  -0.71337
 Alpha  occ. eigenvalues --   -0.69360  -0.57437  -0.55447  -0.51046  -0.49101
 Alpha virt. eigenvalues --    0.12225   0.15774   0.19430   0.22609   0.53639
 Alpha virt. eigenvalues --    0.55190   0.56322   0.58456   0.67992   0.69302
 Alpha virt. eigenvalues --    0.77850   0.78816   0.79744   0.80234   0.82997

 Mulliken charges:
               1
     1  O   -0.515503
     2  H    0.263087
     3  H    0.249974
     4  O   -0.511879
     5  H    0.260005
     6  H    0.254317
 Sum of Mulliken charges =  -0.00000

 Dipole moment (field-independent basis, Debye):
    X=             -2.5064    Y=             -3.0014    Z=             -0.0000  Tot=              3.9103
 Quadrupole moment (field-independent basis, Debye-Ang):
   XX=             -9.8164   YY=             -7.6760   ZZ=            -14.7173
   XY=             -3.5552   XZ=             -0.0000   YZ=              0.0000

 Normal termination of Gaussian 16 at Fri Aug 26 19:22:46 2022.
