 Gaussian 16, Revision A.03,
 Gaussian 16:  ES64L-G16RevA.03 25-Dec-2016

 ------------------
 #p CCSD(T)/cc-pVTZ
 ------------------

 ------------
 H2O_H2O_3570
 ------------
 Symbolic Z-matrix:
 Charge =  0 Multiplicity = 1

                         Standard orientation:
 ---------------------------------------------------------------------
 Center     Atomic      Atomic             Coordinates (Angstroms)
 Number     Number       Type             X           Y           Z
 ---------------------------------------------------------------------
      1          8           0        0.026641    2.524863    0.000000
      2          1           0        0.024333    1.542265    0.000000
      3          1           0       -0.902101    2.845712   -0.000000
      4          8           0        0.026641   -2.351629    0.000000
      5          1           0        0.975162   -2.608172    0.000000
      6          1           0       -0.523651   -3.165683   -0.000000
 ---------------------------------------------------------------------

 SCF Done:  E(RHF) =  -152.109182312     A.U. after   10 cycles
 E2 =    -0.5258383190D+00 EUMP2 =    -0.15263502063128D+03
 CCSD(T)
 CCSD(T)= -0.15266219066D+03

 The electronic state is 1-A'.
 Alpha  occ. eigenvalues --  -20.56409 -20.54735  -1.33702  -1.32049  -0.71105
 Alpha  occ. eigenvalues --   -0.69452  -0.57222  -0.55534  -0.50826  -0.49180
 Alpha virt. eigenvalues --    0.12728   0.15486   0.19449   0.21882   0.53346
 Alpha virt. eigenvalues --    0.55212   0.56542   0.57959   0.66923   0.69276
 Alpha virt. eigenvalues --    0.78074   0.78826   0.79660   0.80127   0.82977

 Mulliken charges:
               1
     1  O   -0.517133
     2  H    0.262112
     3  H    0.253943
     4  O   -0.516156
     5  H    0.258786
     6  H    0.258447
 Sum of Mulliken charges =  -0.00000

 Dipole moment (field-independent basis, Debye):
    X=             -0.9121    Y=             -3.0776    Z=             -0.0000  Tot=              3.2099
 Quadrupole moment (field-independent basis, Debye-Ang):
   XX=             -9.2884   YY=             -7.1307   ZZ=            -14.7175
   XY=             -6.0461   XZ=              0.0000   YZ=             -0.0000

 CCSD(T)=-152.6621907\RMSD=6.998e-09\PG=CS [SG(H4O2)]\\@
 Normal termination of Gaussian 16 at Fri Aug 26 22:26:56 2022.
