 Gaussian 16, Revision A.03,
 Gaussian 16:  ES64L-G16RevA.03 25-Dec-2016

 ------------------
 #p CCSD(T)/cc-pVTZ
 ------------------

 ------------
 H2O_H2O_3853
 ------------
 Symbolic Z-matrix:
 Charge =  0 Multiplicity = 1

                         Standard orientation:
 ---------------------------------------------------------------------
 Center     Atomic      Atomic             Coordinates (Angstroms)
 Number     Number       Type             X           Y           Z
 ---------------------------------------------------------------------
      1          8           0        0.085599   -2.631683    0.000000
      2          1           0        0.085354   -1.649081    0.000000
      3          1           0       -0.843815   -2.950580    0.000000
      4          8           0        0.085599    2.482081    0.000000
      5          1           0        0.277056    3.445849    0.000000
      6          1           0       -0.888171    2.350630    0.000000
 ---------------------------------------------------------------------

 SCF Done:  E(RHF) =  -152.108058018     A.U. after   10 cycles
 E2 =    -0.5258942811D+00 EUMP2 =    -0.15263395229943D+03
 CCSD(T)
 CCSD(T)= -0.15266115135D+03

 The electronic state is 1-A'.
 Alpha  occ. eigenvalues --  -20.56347 -20.55110  -1.33646  -1.32414  -0.71062
 Alpha  occ. eigenvalues --   -0.69807  -0.57120  -0.55873  -0.50759  -0.49530
 Alpha virt. eigenvalues --    0.12416   0.15125   0.19132   0.21907   0.53177
 Alpha virt. eigenvalues --    0.55016   0.56486   0.57916   0.66745   0.68917
 Alpha virt. eigenvalues --    0.78140   0.78945   0.79334   0.81113   0.82541

 Mulliken charges:
               1
     1  O   -0.511104
     2  H    0.259349
     3  H    0.251345
     4  O   -0.511928
     5  H    0.259354
     6  H    0.252984
 Sum of Mulliken charges =  -0.00000

 Dipole moment (field-independent basis, Debye):
    X=             -2.9289    Y=              2.6437    Z=              0.0000  Tot=              3.9456
 Quadrupole moment (field-independent basis, Debye-Ang):
   XX=            -10.4002   YY=             -8.2561   ZZ=            -14.7133
   XY=              2.8732   XZ=              0.0000   YZ=              0.0000

 Normal termination of Gaussian 16 at Sat Aug 27 00:05:45 2022.
