 Gaussian 16, Revision A.03,
 Gaussian 16:  ES64L-G16RevA.03 25-Dec-2016

 ------------------
 #p CCSD(T)/cc-pVTZ
 ------------------

 -----------
 H2O_H2O_453
 -----------
 Symbolic Z-matrix:
 Charge =  0 Multiplicity = 1

                         Standard orientation:
 ---------------------------------------------------------------------
 Center     Atomic      Atomic             Coordinates (Angstroms)
 Number     Number       Type             X           Y           Z
 ---------------------------------------------------------------------
      1          8           0        0.085619   -1.275476    0.000000
      2          1           0        0.085100   -0.292875    0.000000
      3          1           0       -0.843705   -1.594634    0.000000
      4          8           0        0.085619    1.125922    0.000000
      5          1           0        0.276806    2.089744    0.000000
      6          1           0       -0.888113    0.994198    0.000000
 ---------------------------------------------------------------------

 SCF Done:  E(RHF) =  -152.089253370     A.U. after   11 cycles
 E2 =    -0.5335504999D+00 EUMP2 =    -0.15262280386985D+03
 CCSD(T)
 CCSD(T)= -0.15264919059D+03

 The electronic state is 1-A'.
 Alpha  occ. eigenvalues --  -20.60235 -20.50246  -1.39239  -1.28530  -0.77978
 Alpha  occ. eigenvalues --   -0.69011  -0.58963  -0.55441  -0.50951  -0.45469
 Alpha virt. eigenvalues --    0.11115   0.16430   0.20850   0.32580   0.48744
 Alpha virt. eigenvalues --    0.52243   0.59191   0.64827   0.71678   0.72002
 Alpha virt. eigenvalues --    0.74178   0.77683   0.78859   0.83256   0.84369

 Mulliken charges:
               1
     1  O   -0.579294
     2  H    0.288487
     3  H    0.212938
     4  O   -0.384249
     5  H    0.229942
     6  H    0.232177
 Sum of Mulliken charges =  -0.00000

 Dipole moment (field-independent basis, Debye):
    X=             -2.7319    Y=              3.6699    Z=              0.0000  Tot=              4.5751
 Quadrupole moment (field-independent basis, Debye-Ang):
   XX=            -10.4229   YY=             -9.4264   ZZ=            -14.6309
   XY=              2.3944   XZ=              0.0000   YZ=              0.0000

 Normal termination of Gaussian 16 at Fri Aug 26 18:22:08 2022.
