 Gaussian 16, Revision A.03,
 Gaussian 16:  ES64L-G16RevA.03 25-Dec-2016

 ------------------
 #p CCSD(T)/cc-pVTZ
 ------------------

 -----------
 H2O_H2O_516
 -----------
 Symbolic Z-matrix:
 Charge =  0 Multiplicity = 1

                         Standard orientation:
 ---------------------------------------------------------------------
 Center     Atomic      Atomic             Coordinates (Angstroms)
 Number     Number       Type             X           Y           Z
 ---------------------------------------------------------------------
      1          8           0        0.041292    1.311854    0.000000
      2          1           0        0.037693    0.329259    0.000000
      3          1           0       -0.887027    1.633922   -0.000000
      4          8           0        0.041292   -1.132068    0.000000
      5          1           0        0.890446   -1.626482    0.000000
      6          1           0       -0.701787   -1.774982   -0.000000
 ---------------------------------------------------------------------

 SCF Done:  E(RHF) =  -152.100875495     A.U. after   11 cycles
 E2 =    -0.5315569915D+00 EUMP2 =    -0.15263243248653D+03
 CCSD(T)
 CCSD(T)= -0.15265880955D+03

 The electronic state is 1-A'.
 Alpha  occ. eigenvalues --  -20.60189 -20.48753  -1.38637  -1.27239  -0.75283
 Alpha  occ. eigenvalues --   -0.71130  -0.58551  -0.55284  -0.49305  -0.44185
 Alpha virt. eigenvalues --    0.11300   0.17705   0.19757   0.33632   0.47312
 Alpha virt. eigenvalues --    0.53649   0.60490   0.64841   0.69672   0.72271
 Alpha virt. eigenvalues --    0.73988   0.78642   0.81097   0.82706   0.83980

 Mulliken charges:
               1
     1  O   -0.616367
     2  H    0.312803
     3  H    0.228839
     4  O   -0.436486
     5  H    0.261639
     6  H    0.249572
 Sum of Mulliken charges =  -0.00000

 Dipole moment (field-independent basis, Debye):
    X=             -1.3215    Y=             -4.2900    Z=             -0.0000  Tot=              4.4890
 Quadrupole moment (field-independent basis, Debye-Ang):
   XX=             -9.1212   YY=             -9.4214   ZZ=            -14.6759
   XY=             -3.0797   XZ=             -0.0000   YZ=             -0.0000

 Normal termination of Gaussian 16 at Fri Aug 26 18:46:44 2022.
