 Gaussian 16, Revision A.03,
 Gaussian 16:  ES64L-G16RevA.03 25-Dec-2016

 ------------------
 #p CCSD(T)/cc-pVTZ
 ------------------

 ------------
 H2O_H2O_1107
 ------------
 Symbolic Z-matrix:
 Charge =  0 Multiplicity = 1

                         Standard orientation:
 ---------------------------------------------------------------------
 Center     Atomic      Atomic             Coordinates (Angstroms)
 Number     Number       Type             X           Y           Z
 ---------------------------------------------------------------------
      1          8           0        0.073570    1.544160   -0.000000
      2          1           0        0.072442    0.561559   -0.000000
      3          1           0       -0.855557    1.863893   -0.000000
      4          8           0        0.073570   -1.377278    0.000000
      5          1           0        0.507152   -2.259045    0.000000
      6          1           0       -0.901153   -1.501460    0.000000
 ---------------------------------------------------------------------

 SCF Done:  E(RHF) =  -152.111827963     A.U. after   10 cycles
 E2 =    -0.5284960778D+00 EUMP2 =    -0.15264032404078D+03
 CCSD(T)
 CCSD(T)= -0.15266724196D+03

 The electronic state is 1-A'.
 Alpha  occ. eigenvalues --  -20.58580 -20.52525  -1.36047  -1.30088  -0.73541
 Alpha  occ. eigenvalues --   -0.68119  -0.59539  -0.53240  -0.53088  -0.47190
 Alpha virt. eigenvalues --    0.11675   0.17057   0.19642   0.30875   0.48481
 Alpha virt. eigenvalues --    0.54655   0.58539   0.59033   0.69679   0.72842
 Alpha virt. eigenvalues --    0.74232   0.76597   0.81843   0.82200   0.84193

 Mulliken charges:
               1
     1  O   -0.549310
     2  H    0.289171
     3  H    0.235977
     4  O   -0.474375
     5  H    0.248768
     6  H    0.249769
 Sum of Mulliken charges =  -0.00000

 Dipole moment (field-independent basis, Debye):
    X=             -2.4324    Y=             -3.4436    Z=              0.0000  Tot=              4.2160
 Quadrupole moment (field-independent basis, Debye-Ang):
   XX=             -9.8445   YY=             -8.7181   ZZ=            -14.7186
   XY=             -3.0080   XZ=              0.0000   YZ=             -0.0000

 Normal termination of Gaussian 16 at Fri Aug 26 22:30:25 2022.
