 Gaussian 16, Revision A.03,
 Gaussian 16:  ES64L-G16RevA.03 25-Dec-2016

 ------------------
 #p CCSD(T)/cc-pVTZ
 ------------------

 ------------
 H2O_H2O_2435
 ------------
 Symbolic Z-matrix:
 Charge =  0 Multiplicity = 1

                         Standard orientation:
 ---------------------------------------------------------------------
 Center     Atomic      Atomic             Coordinates (Angstroms)
 Number     Number       Type             X           Y           Z
 ---------------------------------------------------------------------
      1          8           0        0.063250    2.077346   -0.000000
      2          1           0        0.061982    1.094746   -0.000000
      3          1           0       -0.865831    2.397211    0.000000
      4          8           0        0.063250   -1.901858   -0.000000
      5          1           0        0.660414   -2.682180   -0.000000
      6          1           0       -0.868561   -2.213681    0.000000
 ---------------------------------------------------------------------

 SCF Done:  E(RHF) =  -152.110658866     A.U. after   10 cycles
 E2 =    -0.5261707255D+00 EUMP2 =    -0.15263682959178D+03
 CCSD(T)
 CCSD(T)= -0.15266393841D+03

 The electronic state is 1-A'.
 Alpha  occ. eigenvalues --  -20.56994 -20.54186  -1.34258  -1.31516  -0.71661
 Alpha  occ. eigenvalues --   -0.68903  -0.57840  -0.54991  -0.51389  -0.48654
 Alpha virt. eigenvalues --    0.12198   0.16391   0.19361   0.24266   0.52762
 Alpha virt. eigenvalues --    0.55731   0.56041   0.58873   0.68919   0.70909
 Alpha virt. eigenvalues --    0.77270   0.78710   0.80206   0.81355   0.83566

 Mulliken charges:
               1
     1  O   -0.521537
     2  H    0.266522
     3  H    0.248700
     4  O   -0.509190
     5  H    0.260245
     6  H    0.255260
 Sum of Mulliken charges =  -0.00000

 Dipole moment (field-independent basis, Debye):
    X=             -2.1471    Y=             -3.2250    Z=              0.0000  Tot=              3.8744
 Quadrupole moment (field-independent basis, Debye-Ang):
   XX=             -9.4622   YY=             -7.6944   ZZ=            -14.7221
   XY=             -3.8150   XZ=             -0.0000   YZ=              0.0000

 Normal termination of Gaussian 16 at Sun Aug 28 07:16:25 2022.
