 Gaussian 16, Revision A.03,
 Gaussian 16:  ES64L-G16RevA.03 25-Dec-2016

 ------------------
 #p CCSD(T)/cc-pVTZ
 ------------------

 ------------
 H2O_H2O_3196
 ------------
 Symbolic Z-matrix:
 Charge =  0 Multiplicity = 1

                         Standard orientation:
 ---------------------------------------------------------------------
 Center     Atomic      Atomic             Coordinates (Angstroms)
 Number     Number       Type             X           Y           Z
 ---------------------------------------------------------------------
      1          8           0       -0.023207    2.373739    0.000000
      2          1           0       -0.020621    1.391141    0.000000
      3          1           0        0.905444    2.694851    0.000000
      4          8           0       -0.023207   -2.203351    0.000000
      5          1           0       -0.986421   -2.397583    0.000000
      6          1           0        0.472906   -3.051513    0.000000
 ---------------------------------------------------------------------

 SCF Done:  E(RHF) =  -152.109613150     A.U. after   10 cycles
 E2 =    -0.5258845819D+00 EUMP2 =    -0.15263549773167D+03
 CCSD(T)
 CCSD(T)= -0.15266265130D+03

 The electronic state is 1-A'.
 Alpha  occ. eigenvalues --  -20.56545 -20.54624  -1.33833  -1.31942  -0.71237
 Alpha  occ. eigenvalues --   -0.69346  -0.57367  -0.55431  -0.50960  -0.49077
 Alpha virt. eigenvalues --    0.12479   0.15770   0.19357   0.22517   0.53436
 Alpha virt. eigenvalues --    0.55445   0.56478   0.58188   0.67612   0.69344
 Alpha virt. eigenvalues --    0.77940   0.78768   0.79757   0.80205   0.83095

 Mulliken charges:
               1
     1  O   -0.518937
     2  H    0.262897
     3  H    0.254014
     4  O   -0.515623
     5  H    0.259003
     6  H    0.258646
 Sum of Mulliken charges =  -0.00000

 Dipole moment (field-independent basis, Debye):
    X=              0.7942    Y=             -3.0506    Z=              0.0000  Tot=              3.1523
 Quadrupole moment (field-independent basis, Debye-Ang):
   XX=             -9.3612   YY=             -7.4472   ZZ=            -14.7189
   XY=              5.8706   XZ=              0.0000   YZ=              0.0000

 Normal termination of Gaussian 16 at Fri Aug 26 20:20:18 2022.
