 Gaussian 16, Revision A.03,
 Gaussian 16:  ES64L-G16RevA.03 25-Dec-2016

 ------------------
 #p CCSD(T)/cc-pVTZ
 ------------------

 ------------
 H2O_H2O_2254
 ------------
 Symbolic Z-matrix:
 Charge =  0 Multiplicity = 1

                         Standard orientation:
 ---------------------------------------------------------------------
 Center     Atomic      Atomic             Coordinates (Angstroms)
 Number     Number       Type             X           Y           Z
 ---------------------------------------------------------------------
      1          8           0        0.082809   -1.996144    0.000000
      2          1           0        0.082360   -1.013542    0.000000
      3          1           0       -0.846538   -2.315234    0.000000
      4          8           0        0.082809    1.841637    0.000000
      5          1           0        0.336691    2.790874    0.000000
      6          1           0       -0.897458    1.773952    0.000000
 ---------------------------------------------------------------------

 SCF Done:  E(RHF) =  -152.109827170     A.U. after   10 cycles
 E2 =    -0.5263847935D+00 EUMP2 =    -0.15263621196317D+03
 CCSD(T)
 CCSD(T)= -0.15266333149D+03

 The electronic state is 1-A'.
 Alpha  occ. eigenvalues --  -20.57111 -20.54501  -1.34390  -1.31821  -0.71836
 Alpha  occ. eigenvalues --   -0.69187  -0.57928  -0.55271  -0.51504  -0.48946
 Alpha virt. eigenvalues --    0.11776   0.16212   0.19664   0.24714   0.52798
 Alpha virt. eigenvalues --    0.55752   0.56393   0.57931   0.68671   0.72078
 Alpha virt. eigenvalues --    0.76889   0.79234   0.80009   0.81496   0.83440

 Mulliken charges:
               1
     1  O   -0.517646
     2  H    0.265401
     3  H    0.246382
     4  O   -0.504510
     5  H    0.259255
     6  H    0.251118
 Sum of Mulliken charges =  -0.00000

 Dipole moment (field-independent basis, Debye):
    X=             -2.8032    Y=              2.8545    Z=              0.0000  Tot=              4.0008
 Quadrupole moment (field-independent basis, Debye-Ang):
   XX=            -10.2685   YY=             -8.4065   ZZ=            -14.7187
   XY=              2.8746   XZ=              0.0000   YZ=              0.0000

 Normal termination of Gaussian 16 at Sun Aug 28 05:47:36 2022.
