 Gaussian 16, Revision A.03,
 Gaussian 16:  ES64L-G16RevA.03 25-Dec-2016

 ------------------
 #p CCSD(T)/cc-pVTZ
 ------------------

 ------------
 H2O_H2O_1054
 ------------
 Symbolic Z-matrix:
 Charge =  0 Multiplicity = 1

                         Standard orientation:
 ---------------------------------------------------------------------
 Center     Atomic      Atomic             Coordinates (Angstroms)
 Number     Number       Type             X           Y           Z
 ---------------------------------------------------------------------
      1          8           0        0.082821   -1.517478    0.000000
      2          1           0        0.082223   -0.534877    0.000000
      3          1           0       -0.846478   -1.836710    0.000000
      4          8           0        0.082821    1.362997    0.000000
      5          1           0        0.336559    2.312272    0.000000
      6          1           0       -0.897437    1.295163    0.000000
 ---------------------------------------------------------------------

 SCF Done:  E(RHF) =  -152.109778426     A.U. after   10 cycles
 E2 =    -0.5289426684D+00 EUMP2 =    -0.15263872109451D+03
 CCSD(T)
 CCSD(T)= -0.15266565080D+03

 The electronic state is 1-A'.
 Alpha  occ. eigenvalues --  -20.58643 -20.52874  -1.36191  -1.30426  -0.73965
 Alpha  occ. eigenvalues --   -0.68194  -0.59540  -0.53581  -0.53176  -0.47508
 Alpha virt. eigenvalues --    0.11552   0.16719   0.20067   0.30788   0.48477
 Alpha virt. eigenvalues --    0.54131   0.58429   0.59719   0.69056   0.72463
 Alpha virt. eigenvalues --    0.74528   0.77302   0.81136   0.82037   0.83678

 Mulliken charges:
               1
     1  O   -0.544095
     2  H    0.286609
     3  H    0.233390
     4  O   -0.457159
     5  H    0.238744
     6  H    0.242511
 Sum of Mulliken charges =  -0.00000

 Dipole moment (field-independent basis, Debye):
    X=             -2.7312    Y=              3.2173    Z=              0.0000  Tot=              4.2202
 Quadrupole moment (field-independent basis, Debye-Ang):
   XX=            -10.2945   YY=             -8.8784   ZZ=            -14.7068
   XY=              2.6680   XZ=              0.0000   YZ=              0.0000

 Normal termination of Gaussian 16 at Fri Aug 26 22:10:46 2022.
