 Gaussian 16, Revision A.03,
 Gaussian 16:  ES64L-G16RevA.03 25-Dec-2016

 ------------------
 #p CCSD(T)/cc-pVTZ
 ------------------

 ------------
 H2O_H2O_3705
 ------------
 Symbolic Z-matrix:
 Charge =  0 Multiplicity = 1

                         Standard orientation:
 ---------------------------------------------------------------------
 Center     Atomic      Atomic             Coordinates (Angstroms)
 Number     Number       Type             X           Y           Z
 ---------------------------------------------------------------------
      1          8           0        0.079848    2.576993   -0.000000
      2          1           0        0.079403    1.594392   -0.000000
      3          1           0       -0.849500    2.896081   -0.000000
      4          8           0        0.079848   -2.417924    0.000000
      5          1           0        0.395274   -3.348522    0.000000
      6          1           0       -0.902748   -2.414500    0.000000
 ---------------------------------------------------------------------

 SCF Done:  E(RHF) =  -152.108343137     A.U. after   10 cycles
 E2 =    -0.5258929775D+00 EUMP2 =    -0.15263423611438D+03
 CCSD(T)
 CCSD(T)= -0.15266142601D+03

 The electronic state is 1-A'.
 Alpha  occ. eigenvalues --  -20.56386 -20.54975  -1.33683  -1.32282  -0.71096
 Alpha  occ. eigenvalues --   -0.69674  -0.57167  -0.55746  -0.50798  -0.49402
 Alpha virt. eigenvalues --    0.12484   0.15254   0.19297   0.21816   0.53259
 Alpha virt. eigenvalues --    0.55053   0.56469   0.57979   0.66787   0.69081
 Alpha virt. eigenvalues --    0.78103   0.78786   0.79456   0.80765   0.82702

 Mulliken charges:
               1
     1  O   -0.512333
     2  H    0.260444
     3  H    0.251229
     4  O   -0.512768
     5  H    0.259627
     6  H    0.253801
 Sum of Mulliken charges =  -0.00000

 Dipole moment (field-independent basis, Debye):
    X=             -2.7305    Y=             -2.8182    Z=              0.0000  Tot=              3.9241
 Quadrupole moment (field-independent basis, Debye-Ang):
   XX=            -10.0974   YY=             -7.7774   ZZ=            -14.7144
   XY=             -3.3084   XZ=              0.0000   YZ=             -0.0000

 CCSD(T)=-152.661426\RMSD=7.188e-09\PG=CS [SG(H4O2)]\\@
 Normal termination of Gaussian 16 at Fri Aug 26 23:12:58 2022.
