 Gaussian 16, Revision A.03,
 Gaussian 16:  ES64L-G16RevA.03 25-Dec-2016

 ------------------
 #p CCSD(T)/cc-pVTZ
 ------------------

 -----------
 H2O_H2O_941
 -----------
 Symbolic Z-matrix:
 Charge =  0 Multiplicity = 1

                         Standard orientation:
 ---------------------------------------------------------------------
 Center     Atomic      Atomic             Coordinates (Angstroms)
 Number     Number       Type             X           Y           Z
 ---------------------------------------------------------------------
      1          8           0        0.041252    1.481394    0.000000
      2          1           0        0.038092    0.498797    0.000000
      3          1           0       -0.887211    1.803048   -0.000000
      4          8           0        0.041252   -1.301572    0.000000
      5          1           0        0.890625   -1.795606    0.000000
      6          1           0       -0.701541   -1.944817   -0.000000
 ---------------------------------------------------------------------

 SCF Done:  E(RHF) =  -152.112904932     A.U. after   10 cycles
 E2 =    -0.5288894758D+00 EUMP2 =    -0.15264179440762D+03
 CCSD(T)
 CCSD(T)= -0.15266859465D+03

 The electronic state is 1-A'.
 Alpha  occ. eigenvalues --  -20.58977 -20.51260  -1.36545  -1.29027  -0.73704
 Alpha  occ. eigenvalues --   -0.68260  -0.59751  -0.53576  -0.51945  -0.46127
 Alpha virt. eigenvalues --    0.11797   0.18211   0.18899   0.32330   0.48321
 Alpha virt. eigenvalues --    0.54591   0.57035   0.61909   0.68925   0.71796
 Alpha virt. eigenvalues --    0.72639   0.77633   0.82218   0.82810   0.84726

 Mulliken charges:
               1
     1  O   -0.574959
     2  H    0.300841
     3  H    0.240350
     4  O   -0.488606
     5  H    0.265916
     6  H    0.256459
 Sum of Mulliken charges =  -0.00000

 Dipole moment (field-independent basis, Debye):
    X=             -1.3584    Y=             -3.8395    Z=             -0.0000  Tot=              4.0727
 Quadrupole moment (field-independent basis, Debye-Ang):
   XX=             -9.1418   YY=             -8.8402   ZZ=            -14.7227
   XY=             -3.4269   XZ=              0.0000   YZ=             -0.0000

 Normal termination of Gaussian 16 at Fri Aug 26 21:28:08 2022.
