 Gaussian 16, Revision A.03,
 Gaussian 16:  ES64L-G16RevA.03 25-Dec-2016

 ------------------
 #p CCSD(T)/cc-pVTZ
 ------------------

 ------------
 H2O_H2O_1674
 ------------
 Symbolic Z-matrix:
 Charge =  0 Multiplicity = 1

                         Standard orientation:
 ---------------------------------------------------------------------
 Center     Atomic      Atomic             Coordinates (Angstroms)
 Number     Number       Type             X           Y           Z
 ---------------------------------------------------------------------
      1          8           0        0.013603   -1.759399    0.000000
      2          1           0        0.009591   -0.776806    0.000000
      3          1           0       -0.914581   -2.081858    0.000000
      4          8           0        0.013603    1.600166    0.000000
      5          1           0        0.996196    1.604178    0.000000
      6          1           0       -0.308857    2.528351    0.000000
 ---------------------------------------------------------------------

 SCF Done:  E(RHF) =  -152.112592664     A.U. after   10 cycles
 E2 =    -0.5267923330D+00 EUMP2 =    -0.15263938499729D+03
 CCSD(T)
 CCSD(T)= -0.15266643038D+03

 The electronic state is 1-A'.
 Alpha  occ. eigenvalues --  -20.57634 -20.53671  -1.34938  -1.31063  -0.72418
 Alpha  occ. eigenvalues --   -0.68521  -0.58684  -0.54463  -0.52056  -0.48218
 Alpha virt. eigenvalues --    0.12169   0.17253   0.19244   0.27940   0.51565
 Alpha virt. eigenvalues --    0.54417   0.55760   0.60033   0.68803   0.74035
 Alpha virt. eigenvalues --    0.74882   0.77675   0.80915   0.82980   0.84228

 Mulliken charges:
               1
     1  O   -0.538091
     2  H    0.270622
     3  H    0.254298
     4  O   -0.504257
     5  H    0.262074
     6  H    0.255355
 Sum of Mulliken charges =  -0.00000

 Dipole moment (field-independent basis, Debye):
    X=             -0.4698    Y=              3.0660    Z=              0.0000  Tot=              3.1018
 Quadrupole moment (field-independent basis, Debye-Ang):
   XX=             -9.6497   YY=             -8.4852   ZZ=            -14.7285
   XY=              4.7361   XZ=              0.0000   YZ=              0.0000

 Normal termination of Gaussian 16 at Sun Aug 28 00:29:41 2022.
