 Gaussian 16, Revision A.03,
 Gaussian 16:  ES64L-G16RevA.03 25-Dec-2016

 ------------------
 #p CCSD(T)/cc-pVTZ
 ------------------

 ------------
 H2O_H2O_3750
 ------------
 Symbolic Z-matrix:
 Charge =  0 Multiplicity = 1

                         Standard orientation:
 ---------------------------------------------------------------------
 Center     Atomic      Atomic             Coordinates (Angstroms)
 Number     Number       Type             X           Y           Z
 ---------------------------------------------------------------------
      1          8           0        0.092949   -2.582662    0.000000
      2          1           0        0.092949   -1.600060    0.000000
      3          1           0       -0.836544   -2.901328    0.000000
      4          8           0        0.092949    2.449875    0.000000
      5          1           0        0.092949    3.432476    0.000000
      6          1           0       -0.836544    2.131207    0.000000
 ---------------------------------------------------------------------

 SCF Done:  E(RHF) =  -152.107749094     A.U. after   10 cycles
 E2 =    -0.5259320832D+00 EUMP2 =    -0.15263368117715D+03
 CCSD(T)
 CCSD(T)= -0.15266088719D+03

 The electronic state is 1-A'.
 Alpha  occ. eigenvalues --  -20.56382 -20.55274  -1.33681  -1.32575  -0.71103
 Alpha  occ. eigenvalues --   -0.69966  -0.57143  -0.56026  -0.50791  -0.49687
 Alpha virt. eigenvalues --    0.11961   0.15132   0.18893   0.22535   0.53221
 Alpha virt. eigenvalues --    0.54920   0.56478   0.57885   0.66827   0.68768
 Alpha virt. eigenvalues --    0.78112   0.78965   0.79186   0.81430   0.82360

 Mulliken charges:
               1
     1  O   -0.509525
     2  H    0.258087
     3  H    0.251096
     4  O   -0.510290
     5  H    0.259263
     6  H    0.251369
 Sum of Mulliken charges =  -0.00000

 Dipole moment (field-independent basis, Debye):
    X=             -3.1789    Y=              2.3484    Z=              0.0000  Tot=              3.9522
 Quadrupole moment (field-independent basis, Debye-Ang):
   XX=            -10.8496   YY=             -9.2581   ZZ=            -14.7119
   XY=              2.1534   XZ=              0.0000   YZ=              0.0000

 Normal termination of Gaussian 16 at Fri Aug 26 23:27:59 2022.
