 Gaussian 16, Revision A.03,
 Gaussian 16:  ES64L-G16RevA.03 25-Dec-2016

 ------------------
 #p CCSD(T)/cc-pVTZ
 ------------------

 -----------
 H2O_H2O_975
 -----------
 Symbolic Z-matrix:
 Charge =  0 Multiplicity = 1

                         Standard orientation:
 ---------------------------------------------------------------------
 Center     Atomic      Atomic             Coordinates (Angstroms)
 Number     Number       Type             X           Y           Z
 ---------------------------------------------------------------------
      1          8           0        0.092949   -1.475777    0.000000
      2          1           0        0.092949   -0.493175    0.000000
      3          1           0       -0.836544   -1.794444    0.000000
      4          8           0        0.092949    1.342990    0.000000
      5          1           0        0.092949    2.325591    0.000000
      6          1           0       -0.836544    1.024323    0.000000
 ---------------------------------------------------------------------

 SCF Done:  E(RHF) =  -152.105223364     A.U. after   10 cycles
 E2 =    -0.5298139582D+00 EUMP2 =    -0.15263503732232D+03
 CCSD(T)
 CCSD(T)= -0.15266200012D+03

 The electronic state is 1-A'.
 Alpha  occ. eigenvalues --  -20.58739 -20.53526  -1.36461  -1.31058  -0.74884
 Alpha  occ. eigenvalues --   -0.68178  -0.59557  -0.54239  -0.53316  -0.48107
 Alpha virt. eigenvalues --    0.11446   0.16381   0.20805   0.30626   0.48221
 Alpha virt. eigenvalues --    0.52887   0.58310   0.61018   0.68228   0.71494
 Alpha virt. eigenvalues --    0.73808   0.78367   0.79874   0.81761   0.82898

 Mulliken charges:
               1
     1  O   -0.534078
     2  H    0.283030
     3  H    0.229873
     4  O   -0.445109
     5  H    0.236674
     6  H    0.229609
 Sum of Mulliken charges =  -0.00000

 Dipole moment (field-independent basis, Debye):
    X=             -3.0572    Y=              2.8180    Z=              0.0000  Tot=              4.1578
 Quadrupole moment (field-independent basis, Debye-Ang):
   XX=            -10.9036   YY=             -9.2385   ZZ=            -14.6867
   XY=              2.0789   XZ=              0.0000   YZ=              0.0000

 Normal termination of Gaussian 16 at Fri Aug 26 21:40:54 2022.
