 Gaussian 16, Revision A.03,
 Gaussian 16:  ES64L-G16RevA.03 25-Dec-2016

 ------------------
 #p CCSD(T)/cc-pVTZ
 ------------------

 ------------
 H2O_H2O_4759
 ------------
 Symbolic Z-matrix:
 Charge =  0 Multiplicity = 1

                         Standard orientation:
 ---------------------------------------------------------------------
 Center     Atomic      Atomic             Coordinates (Angstroms)
 Number     Number       Type             X           Y           Z
 ---------------------------------------------------------------------
      1          8           0        0.066741    3.003454   -0.000000
      2          1           0        0.065979    2.020853   -0.000000
      3          1           0       -0.862505    3.322842    0.000000
      4          8           0        0.066741   -2.830320   -0.000000
      5          1           0        0.612011   -3.647747   -0.000000
      6          1           0       -0.883341   -3.081020    0.000000
 ---------------------------------------------------------------------

 SCF Done:  E(RHF) =  -152.108128588     A.U. after   10 cycles
 E2 =    -0.5258241889D+00 EUMP2 =    -0.15263395277739D+03
 CCSD(T)
 CCSD(T)= -0.15266115709D+03

 The electronic state is 1-A'.
 Alpha  occ. eigenvalues --  -20.56149 -20.55060  -1.33451  -1.32365  -0.70858
 Alpha  occ. eigenvalues --   -0.69764  -0.56931  -0.55829  -0.50567  -0.49484
 Alpha virt. eigenvalues --    0.13412   0.14773   0.19638   0.20951   0.53631
 Alpha virt. eigenvalues --    0.54812   0.56673   0.57741   0.66990   0.68557
 Alpha virt. eigenvalues --    0.78319   0.79378   0.79650   0.80544   0.82300

 Mulliken charges:
               1
     1  O   -0.512344
     2  H    0.259463
     3  H    0.252824
     4  O   -0.513181
     5  H    0.258124
     6  H    0.255113
 Sum of Mulliken charges =  -0.00000

 Dipole moment (field-independent basis, Debye):
    X=             -2.2901    Y=             -3.0330    Z=             -0.0000  Tot=              3.8005
 Quadrupole moment (field-independent basis, Debye-Ang):
   XX=             -9.5597   YY=             -6.4998   ZZ=            -14.7138
   XY=             -4.5278   XZ=             -0.0000   YZ=             -0.0000

 Normal termination of Gaussian 16 at Sun Aug 28 05:40:41 2022.
