 Gaussian 16, Revision A.03,
 Gaussian 16:  ES64L-G16RevA.03 25-Dec-2016

 ------------------
 #p CCSD(T)/cc-pVTZ
 ------------------

 ------------
 H2O_H2O_1348
 ------------
 Symbolic Z-matrix:
 Charge =  0 Multiplicity = 1

                         Standard orientation:
 ---------------------------------------------------------------------
 Center     Atomic      Atomic             Coordinates (Angstroms)
 Number     Number       Type             X           Y           Z
 ---------------------------------------------------------------------
      1          8           0       -0.016736    1.631999    0.000000
      2          1           0       -0.012558    0.649406    0.000000
      3          1           0        0.911394    1.954614    0.000000
      4          8           0       -0.016736   -1.468653    0.000000
      5          1           0       -0.996952   -1.537086    0.000000
      6          1           0        0.365892   -2.373696    0.000000
 ---------------------------------------------------------------------

 SCF Done:  E(RHF) =  -152.113302533     A.U. after   10 cycles
 E2 =    -0.5274514888D+00 EUMP2 =    -0.15264075402216D+03
 CCSD(T)
 CCSD(T)= -0.15266773664D+03

 The electronic state is 1-A'.
 Alpha  occ. eigenvalues --  -20.58097 -20.52986  -1.35465  -1.30467  -0.72971
 Alpha  occ. eigenvalues --   -0.68105  -0.59286  -0.53737  -0.52560  -0.47616
 Alpha virt. eigenvalues --    0.12122   0.17735   0.19075   0.29870   0.50224
 Alpha virt. eigenvalues --    0.54520   0.55649   0.61338   0.68740   0.73576
 Alpha virt. eigenvalues --    0.74079   0.76914   0.81598   0.82493   0.84309

 Mulliken charges:
               1
     1  O   -0.550499
     2  H    0.278657
     3  H    0.252436
     4  O   -0.492956
     5  H    0.263241
     6  H    0.249121
 Sum of Mulliken charges =  -0.00000

 Dipole moment (field-independent basis, Debye):
    X=              0.5707    Y=             -3.2627    Z=              0.0000  Tot=              3.3123
 Quadrupole moment (field-independent basis, Debye-Ang):
   XX=             -9.5411   YY=             -8.5949   ZZ=            -14.7285
   XY=              4.2700   XZ=              0.0000   YZ=              0.0000

 Normal termination of Gaussian 16 at Sat Aug 27 00:01:09 2022.
