 Gaussian 16, Revision A.03,
 Gaussian 16:  ES64L-G16RevA.03 25-Dec-2016

 ------------------
 #p CCSD(T)/cc-pVTZ
 ------------------

 -----------
 H2O_H2O_157
 -----------
 Symbolic Z-matrix:
 Charge =  0 Multiplicity = 1

                         Standard orientation:
 ---------------------------------------------------------------------
 Center     Atomic      Atomic             Coordinates (Angstroms)
 Number     Number       Type             X           Y           Z
 ---------------------------------------------------------------------
      1          8           0        0.073603   -1.165197    0.000000
      2          1           0        0.072080   -0.182597    0.000000
      3          1           0       -0.855395   -1.485304    0.000000
      4          8           0        0.073603    0.998374    0.000000
      5          1           0        0.506830    1.880316    0.000000
      6          1           0       -0.901170    1.122165    0.000000
 ---------------------------------------------------------------------

 SCF Done:  E(RHF) =  -152.058122778     A.U. after   11 cycles
 E2 =    -0.5361052457D+00 EUMP2 =    -0.15259422802326D+03
 CCSD(T)
 CCSD(T)= -0.15261998061D+03

 The electronic state is 1-A'.
 Alpha  occ. eigenvalues --  -20.61545 -20.46380  -1.42416  -1.25871  -0.80300
 Alpha  occ. eigenvalues --   -0.73460  -0.57651  -0.56016  -0.46858  -0.42567
 Alpha virt. eigenvalues --    0.10580   0.16188   0.21214   0.32419   0.49023
 Alpha virt. eigenvalues --    0.51954   0.60244   0.64517   0.71315   0.72098
 Alpha virt. eigenvalues --    0.77430   0.78638   0.81071   0.84642   0.86051

 Mulliken charges:
               1
     1  O   -0.630671
     2  H    0.285282
     3  H    0.199254
     4  O   -0.327654
     5  H    0.233712
     6  H    0.240077
 Sum of Mulliken charges =  -0.00000

 Dipole moment (field-independent basis, Debye):
    X=             -2.2637    Y=              4.5491    Z=              0.0000  Tot=              5.0812
 Quadrupole moment (field-independent basis, Debye-Ang):
   XX=             -9.7877   YY=             -9.9019   ZZ=            -14.5695
   XY=              2.5954   XZ=              0.0000   YZ=              0.0000

 Normal termination of Gaussian 16 at Fri Aug 26 16:15:35 2022.
