 Gaussian 16, Revision A.03,
 Gaussian 16:  ES64L-G16RevA.03 25-Dec-2016

 ------------------
 #p CCSD(T)/cc-pVTZ
 ------------------

 -----------
 H2O_H2O_768
 -----------
 Symbolic Z-matrix:
 Charge =  0 Multiplicity = 1

                         Standard orientation:
 ---------------------------------------------------------------------
 Center     Atomic      Atomic             Coordinates (Angstroms)
 Number     Number       Type             X           Y           Z
 ---------------------------------------------------------------------
      1          8           0        0.033933    1.410285   -0.000000
      2          1           0        0.030134    0.427691   -0.000000
      3          1           0       -0.894321    1.732543   -0.000000
      4          8           0        0.033933   -1.232871    0.000000
      5          1           0        0.940278   -1.612404    0.000000
      6          1           0       -0.619022   -1.967143    0.000000
 ---------------------------------------------------------------------

 SCF Done:  E(RHF) =  -152.110042684     A.U. after   10 cycles
 E2 =    -0.5297930691D+00 EUMP2 =    -0.15263983575331D+03
 CCSD(T)
 CCSD(T)= -0.15266650715D+03

 The electronic state is 1-A'.
 Alpha  occ. eigenvalues --  -20.59388 -20.50475  -1.37212  -1.28453  -0.74345
 Alpha  occ. eigenvalues --   -0.68849  -0.59638  -0.54137  -0.51099  -0.45515
 Alpha virt. eigenvalues --    0.11681   0.18237   0.19063   0.33125   0.47923
 Alpha virt. eigenvalues --    0.54309   0.57877   0.64105   0.68586   0.72421
 Alpha virt. eigenvalues --    0.72544   0.77827   0.81505   0.83220   0.84336

 Mulliken charges:
               1
     1  O   -0.591517
     2  H    0.305827
     3  H    0.239216
     4  O   -0.469144
     5  H    0.264224
     6  H    0.251395
 Sum of Mulliken charges =  -0.00000

 Dipole moment (field-independent basis, Debye):
    X=             -1.1101    Y=             -3.9448    Z=              0.0000  Tot=              4.0980
 Quadrupole moment (field-independent basis, Debye-Ang):
   XX=             -9.1675   YY=             -9.0559   ZZ=            -14.7075
   XY=             -3.3573   XZ=              0.0000   YZ=             -0.0000

 Normal termination of Gaussian 16 at Fri Aug 26 20:23:27 2022.
