 Gaussian 16, Revision A.03,
 Gaussian 16:  ES64L-G16RevA.03 25-Dec-2016

 ------------------
 #p CCSD(T)/cc-pVTZ
 ------------------

 ------------
 H2O_H2O_4318
 ------------
 Symbolic Z-matrix:
 Charge =  0 Multiplicity = 1

                         Standard orientation:
 ---------------------------------------------------------------------
 Center     Atomic      Atomic             Coordinates (Angstroms)
 Number     Number       Type             X           Y           Z
 ---------------------------------------------------------------------
      1          8           0        0.033756    2.826362   -0.000000
      2          1           0        0.031921    1.843762   -0.000000
      3          1           0       -0.895141    3.146763   -0.000000
      4          8           0        0.033756   -2.648812    0.000000
      5          1           0        0.940858   -3.026532    0.000000
      6          1           0       -0.617730   -3.384390    0.000000
 ---------------------------------------------------------------------

 SCF Done:  E(RHF) =  -152.108582668     A.U. after   10 cycles
 E2 =    -0.5258030617D+00 EUMP2 =    -0.15263438572928D+03
 CCSD(T)
 CCSD(T)= -0.15266157831D+03

 The electronic state is 1-A'.
 Alpha  occ. eigenvalues --  -20.56216 -20.54914  -1.33517  -1.32223  -0.70921
 Alpha  occ. eigenvalues --   -0.69625  -0.57017  -0.55698  -0.50637  -0.49348
 Alpha virt. eigenvalues --    0.13258   0.15028   0.19645   0.21168   0.53576
 Alpha virt. eigenvalues --    0.54901   0.56648   0.57812   0.66746   0.68868
 Alpha virt. eigenvalues --    0.78251   0.79483   0.79505   0.80149   0.82756

 Mulliken charges:
               1
     1  O   -0.514766
     2  H    0.260725
     3  H    0.253831
     4  O   -0.515356
     5  H    0.258147
     6  H    0.257418
 Sum of Mulliken charges =  -0.00000

 Dipole moment (field-independent basis, Debye):
    X=             -1.1575    Y=             -3.1218    Z=              0.0000  Tot=              3.3295
 Quadrupole moment (field-independent basis, Debye-Ang):
   XX=             -9.1866   YY=             -6.4875   ZZ=            -14.7154
   XY=             -6.2995   XZ=              0.0000   YZ=             -0.0000

 Normal termination of Gaussian 16 at Sun Aug 28 01:49:59 2022.
