 Gaussian 16, Revision A.03,
 Gaussian 16:  ES64L-G16RevA.03 25-Dec-2016

 ------------------
 #p CCSD(T)/cc-pVTZ
 ------------------

 ------------
 H2O_H2O_2107
 ------------
 Symbolic Z-matrix:
 Charge =  0 Multiplicity = 1

                         Standard orientation:
 ---------------------------------------------------------------------
 Center     Atomic      Atomic             Coordinates (Angstroms)
 Number     Number       Type             X           Y           Z
 ---------------------------------------------------------------------
      1          8           0        0.073549    1.943055    0.000000
      2          1           0        0.072663    0.960454    0.000000
      3          1           0       -0.855656    2.262560    0.000000
      4          8           0        0.073549   -1.776137   -0.000000
      5          1           0        0.507348   -2.657797   -0.000000
      6          1           0       -0.901143   -1.900559   -0.000000
 ---------------------------------------------------------------------

 SCF Done:  E(RHF) =  -152.110889225     A.U. after   10 cycles
 E2 =    -0.5264392525D+00 EUMP2 =    -0.15263732847750D+03
 CCSD(T)
 CCSD(T)= -0.15266442068D+03

 The electronic state is 1-A'.
 Alpha  occ. eigenvalues --  -20.57248 -20.54120  -1.34515  -1.31457  -0.71939
 Alpha  occ. eigenvalues --   -0.68842  -0.58115  -0.54908  -0.51639  -0.48592
 Alpha virt. eigenvalues --    0.11963   0.16520   0.19462   0.25414   0.52039
 Alpha virt. eigenvalues --    0.55775   0.56073   0.58345   0.68879   0.72359
 Alpha virt. eigenvalues --    0.76536   0.78567   0.80359   0.83413   0.83464

 Mulliken charges:
               1
     1  O   -0.522060
     2  H    0.267332
     3  H    0.246258
     4  O   -0.505223
     5  H    0.260179
     6  H    0.253514
 Sum of Mulliken charges =  -0.00000

 Dipole moment (field-independent basis, Debye):
    X=             -2.4874    Y=             -3.1143    Z=             -0.0000  Tot=              3.9857
 Quadrupole moment (field-independent basis, Debye-Ang):
   XX=             -9.8290   YY=             -8.1064   ZZ=            -14.7230
   XY=             -3.3030   XZ=             -0.0000   YZ=              0.0000

 Normal termination of Gaussian 16 at Sun Aug 28 04:25:55 2022.
