 Gaussian 16, Revision A.03,
 Gaussian 16:  ES64L-G16RevA.03 25-Dec-2016

 ------------------
 #p CCSD(T)/cc-pVTZ
 ------------------

 -----------
 H2O_H2O_423
 -----------
 Symbolic Z-matrix:
 Charge =  0 Multiplicity = 1

                         Standard orientation:
 ---------------------------------------------------------------------
 Center     Atomic      Atomic             Coordinates (Angstroms)
 Number     Number       Type             X           Y           Z
 ---------------------------------------------------------------------
      1          8           0        0.016844   -1.263019    0.000000
      2          1           0        0.011362   -0.280433    0.000000
      3          1           0       -0.910856   -1.586866    0.000000
      4          8           0        0.016844    1.099718    0.000000
      5          1           0        0.996969    1.169453    0.000000
      6          1           0       -0.366984    2.004252    0.000000
 ---------------------------------------------------------------------

 SCF Done:  E(RHF) =  -152.091389378     A.U. after   11 cycles
 E2 =    -0.5327247676D+00 EUMP2 =    -0.15262411414603D+03
 CCSD(T)
 CCSD(T)= -0.15265035684D+03

 The electronic state is 1-A'.
 Alpha  occ. eigenvalues --  -20.60356 -20.48609  -1.39420  -1.27241  -0.77495
 Alpha  occ. eigenvalues --   -0.69932  -0.58885  -0.55703  -0.49026  -0.44183
 Alpha virt. eigenvalues --    0.11381   0.17856   0.19805   0.34108   0.47672
 Alpha virt. eigenvalues --    0.52967   0.58852   0.68390   0.71440   0.72049
 Alpha virt. eigenvalues --    0.75059   0.76781   0.78399   0.83859   0.84644

 Mulliken charges:
               1
     1  O   -0.627552
     2  H    0.294077
     3  H    0.238404
     4  O   -0.396321
     5  H    0.259234
     6  H    0.232159
 Sum of Mulliken charges =  -0.00000

 Dipole moment (field-independent basis, Debye):
    X=             -0.5441    Y=              4.0643    Z=              0.0000  Tot=              4.1005
 Quadrupole moment (field-independent basis, Debye-Ang):
   XX=             -9.4758   YY=             -9.5016   ZZ=            -14.6444
   XY=              3.2538   XZ=              0.0000   YZ=              0.0000

 Normal termination of Gaussian 16 at Fri Aug 26 18:09:55 2022.
