 Gaussian 16, Revision A.03,
 Gaussian 16:  ES64L-G16RevA.03 25-Dec-2016

 ------------------
 #p CCSD(T)/cc-pVTZ
 ------------------

 ------------
 H2O_H2O_1461
 ------------
 Symbolic Z-matrix:
 Charge =  0 Multiplicity = 1

                         Standard orientation:
 ---------------------------------------------------------------------
 Center     Atomic      Atomic             Coordinates (Angstroms)
 Number     Number       Type             X           Y           Z
 ---------------------------------------------------------------------
      1          8           0        0.059688    1.689473   -0.000000
      2          1           0        0.057921    0.706873   -0.000000
      3          1           0       -0.869231    2.009809    0.000000
      4          8           0        0.059688   -1.512091   -0.000000
      5          1           0        0.706233   -2.252013   -0.000000
      6          1           0       -0.849924   -1.883727    0.000000
 ---------------------------------------------------------------------

 SCF Done:  E(RHF) =  -152.113443497     A.U. after   10 cycles
 E2 =    -0.5272811059D+00 EUMP2 =    -0.15264072460261D+03
 CCSD(T)
 CCSD(T)= -0.15266772124D+03

 The electronic state is 1-A'.
 Alpha  occ. eigenvalues --  -20.58012 -20.52970  -1.35309  -1.30416  -0.72668
 Alpha  occ. eigenvalues --   -0.68071  -0.59083  -0.53744  -0.52430  -0.47557
 Alpha virt. eigenvalues --    0.11959   0.17367   0.19160   0.29108   0.49506
 Alpha virt. eigenvalues --    0.54962   0.56483   0.59211   0.69498   0.72380
 Alpha virt. eigenvalues --    0.74156   0.76684   0.81524   0.82934   0.84667

 Mulliken charges:
               1
     1  O   -0.539930
     2  H    0.278987
     3  H    0.243227
     4  O   -0.502598
     5  H    0.263436
     6  H    0.256879
 Sum of Mulliken charges =  -0.00000

 Dipole moment (field-independent basis, Debye):
    X=             -1.9971    Y=             -3.4911    Z=              0.0000  Tot=              4.0220
 Quadrupole moment (field-independent basis, Debye-Ang):
   XX=             -9.3772   YY=             -8.3312   ZZ=            -14.7329
   XY=             -3.4841   XZ=             -0.0000   YZ=              0.0000

 Normal termination of Gaussian 16 at Sat Aug 27 00:43:27 2022.
