 Gaussian 16, Revision A.03,
 Gaussian 16:  ES64L-G16RevA.03 25-Dec-2016

 ------------------
 #p CCSD(T)/cc-pVTZ
 ------------------

 ------------
 H2O_H2O_4117
 ------------
 Symbolic Z-matrix:
 Charge =  0 Multiplicity = 1

                         Standard orientation:
 ---------------------------------------------------------------------
 Center     Atomic      Atomic             Coordinates (Angstroms)
 Number     Number       Type             X           Y           Z
 ---------------------------------------------------------------------
      1          8           0        0.037418    2.747367   -0.000000
      2          1           0        0.035645    1.764768   -0.000000
      3          1           0       -0.891499    3.067710   -0.000000
      4          8           0        0.037418   -2.568380    0.000000
      5          1           0        0.917901   -3.004562    0.000000
      6          1           0       -0.660738   -3.259816    0.000000
 ---------------------------------------------------------------------

 SCF Done:  E(RHF) =  -152.108706867     A.U. after   10 cycles
 E2 =    -0.5258095745D+00 EUMP2 =    -0.15263451644152D+03
 CCSD(T)
 CCSD(T)= -0.15266170427D+03

 The electronic state is 1-A'.
 Alpha  occ. eigenvalues --  -20.56261 -20.54852  -1.33560  -1.32162  -0.70963
 Alpha  occ. eigenvalues --   -0.69564  -0.57064  -0.55639  -0.50681  -0.49289
 Alpha virt. eigenvalues --    0.13152   0.15138   0.19637   0.21269   0.53552
 Alpha virt. eigenvalues --    0.54923   0.56616   0.57824   0.66685   0.69014
 Alpha virt. eigenvalues --    0.78210   0.79406   0.79561   0.79922   0.82842

 Mulliken charges:
               1
     1  O   -0.515184
     2  H    0.261290
     3  H    0.253543
     4  O   -0.515658
     5  H    0.258572
     6  H    0.257437
 Sum of Mulliken charges =  -0.00000

 Dipole moment (field-independent basis, Debye):
    X=             -1.2822    Y=             -3.1544    Z=              0.0000  Tot=              3.4051
 Quadrupole moment (field-independent basis, Debye-Ang):
   XX=             -9.1593   YY=             -6.5362   ZZ=            -14.7158
   XY=             -5.9339   XZ=              0.0000   YZ=             -0.0000

 Normal termination of Gaussian 16 at Sat Aug 27 23:52:58 2022.
