 Gaussian 16, Revision A.03,
 Gaussian 16:  ES64L-G16RevA.03 25-Dec-2016

 ------------------
 #p CCSD(T)/cc-pVTZ
 ------------------

 ------------
 H2O_H2O_4210
 ------------
 Symbolic Z-matrix:
 Charge =  0 Multiplicity = 1

                         Standard orientation:
 ---------------------------------------------------------------------
 Center     Atomic      Atomic             Coordinates (Angstroms)
 Number     Number       Type             X           Y           Z
 ---------------------------------------------------------------------
      1          8           0        0.063220    2.785374    0.000000
      2          1           0        0.062285    1.802773    0.000000
      3          1           0       -0.865969    3.104925    0.000000
      4          8           0        0.063220   -2.609843   -0.000000
      5          1           0        0.660648   -3.389963   -0.000000
      6          1           0       -0.868486   -2.921981   -0.000000
 ---------------------------------------------------------------------

 SCF Done:  E(RHF) =  -152.108418450     A.U. after   10 cycles
 E2 =    -0.5258294585D+00 EUMP2 =    -0.15263424790827D+03
 CCSD(T)
 CCSD(T)= -0.15266144245D+03

 The electronic state is 1-A'.
 Alpha  occ. eigenvalues --  -20.56248 -20.54925  -1.33548  -1.32233  -0.70954
 Alpha  occ. eigenvalues --   -0.69630  -0.57040  -0.55701  -0.50666  -0.49355
 Alpha virt. eigenvalues --    0.13141   0.15036   0.19595   0.21196   0.53509
 Alpha virt. eigenvalues --    0.54906   0.56597   0.57813   0.66721   0.68921
 Alpha virt. eigenvalues --    0.78225   0.79340   0.79500   0.80187   0.82754

 Mulliken charges:
               1
     1  O   -0.513493
     2  H    0.260769
     3  H    0.252460
     4  O   -0.514330
     5  H    0.258965
     6  H    0.255628
 Sum of Mulliken charges =  -0.00000

 Dipole moment (field-independent basis, Debye):
    X=             -2.1661    Y=             -3.0903    Z=             -0.0000  Tot=              3.7739
 Quadrupole moment (field-independent basis, Debye-Ang):
   XX=             -9.4542   YY=             -6.6695   ZZ=            -14.7148
   XY=             -4.5475   XZ=             -0.0000   YZ=              0.0000

 Normal termination of Gaussian 16 at Sun Aug 28 00:50:55 2022.
