 Gaussian 16, Revision A.03,
 Gaussian 16:  ES64L-G16RevA.03 25-Dec-2016

 ------------------
 #p CCSD(T)/cc-pVTZ
 ------------------

 ------------
 H2O_H2O_2545
 ------------
 Symbolic Z-matrix:
 Charge =  0 Multiplicity = 1

                         Standard orientation:
 ---------------------------------------------------------------------
 Center     Atomic      Atomic             Coordinates (Angstroms)
 Number     Number       Type             X           Y           Z
 ---------------------------------------------------------------------
      1          8           0        0.026682    2.116003   -0.000000
      2          1           0        0.023910    1.133405   -0.000000
      3          1           0       -0.901908    2.437290   -0.000000
      4          8           0        0.026682   -1.942793    0.000000
      5          1           0        0.975081   -2.199785    0.000000
      6          1           0       -0.523995   -2.756587    0.000000
 ---------------------------------------------------------------------

 SCF Done:  E(RHF) =  -152.110845917     A.U. after   10 cycles
 E2 =    -0.5260567523D+00 EUMP2 =    -0.15263690266896D+03
 CCSD(T)
 CCSD(T)= -0.15266401366D+03

 The electronic state is 1-A'.
 Alpha  occ. eigenvalues --  -20.56895 -20.54240  -1.34164  -1.31571  -0.71565
 Alpha  occ. eigenvalues --   -0.68976  -0.57755  -0.55062  -0.51299  -0.48716
 Alpha virt. eigenvalues --    0.12320   0.16393   0.19291   0.24106   0.53262
 Alpha virt. eigenvalues --    0.55532   0.56390   0.58660   0.68971   0.70483
 Alpha virt. eigenvalues --    0.77432   0.78995   0.80130   0.80890   0.83602

 Mulliken charges:
               1
     1  O   -0.524168
     2  H    0.265758
     3  H    0.252947
     4  O   -0.512520
     5  H    0.260139
     6  H    0.257844
 Sum of Mulliken charges =  -0.00000

 Dipole moment (field-independent basis, Debye):
    X=             -0.9094    Y=             -3.1675    Z=              0.0000  Tot=              3.2955
 Quadrupole moment (field-independent basis, Debye-Ang):
   XX=             -9.2885   YY=             -7.6922   ZZ=            -14.7228
   XY=             -5.1094   XZ=              0.0000   YZ=             -0.0000

 CCSD(T)=-152.6640137\RMSD=6.634e-09\PG=CS [SG(H4O2)]\\@
 Normal termination of Gaussian 16 at Fri Aug 26 15:30:45 2022.
