 Gaussian 16, Revision A.03,
 Gaussian 16:  ES64L-G16RevA.03 25-Dec-2016

 ------------------
 #p CCSD(T)/cc-pVTZ
 ------------------

 -----------
 H2O_H2O_452
 -----------
 Symbolic Z-matrix:
 Charge =  0 Multiplicity = 1

                         Standard orientation:
 ---------------------------------------------------------------------
 Center     Atomic      Atomic             Coordinates (Angstroms)
 Number     Number       Type             X           Y           Z
 ---------------------------------------------------------------------
      1          8           0        0.088243   -1.272617    0.000000
      2          1           0        0.087910   -0.290015    0.000000
      3          1           0       -0.841142   -1.591598    0.000000
      4          8           0        0.088243    1.128325    0.000000
      5          1           0        0.216168    2.102564    0.000000
      6          1           0       -0.874827    0.933381    0.000000
 ---------------------------------------------------------------------

 SCF Done:  E(RHF) =  -152.087456954     A.U. after   11 cycles
 E2 =    -0.5337753228D+00 EUMP2 =    -0.15262123227654D+03
 CCSD(T)
 CCSD(T)= -0.15264763320D+03

 The electronic state is 1-A'.
 Alpha  occ. eigenvalues --  -20.60207 -20.50521  -1.39294  -1.28766  -0.78306
 Alpha  occ. eigenvalues --   -0.68646  -0.59117  -0.55421  -0.51250  -0.45709
 Alpha virt. eigenvalues --    0.11137   0.16371   0.20981   0.32457   0.48757
 Alpha virt. eigenvalues --    0.51963   0.59165   0.65174   0.71514   0.71807
 Alpha virt. eigenvalues --    0.74151   0.77418   0.78840   0.82972   0.84243

 Mulliken charges:
               1
     1  O   -0.573932
     2  H    0.285477
     3  H    0.211988
     4  O   -0.383371
     5  H    0.229281
     6  H    0.230557
 Sum of Mulliken charges =  -0.00000

 Dipole moment (field-independent basis, Debye):
    X=             -2.8198    Y=              3.5557    Z=              0.0000  Tot=              4.5381
 Quadrupole moment (field-independent basis, Debye-Ang):
   XX=            -10.5761   YY=             -9.4546   ZZ=            -14.6258
   XY=              2.2733   XZ=              0.0000   YZ=              0.0000

 Normal termination of Gaussian 16 at Fri Aug 26 18:21:41 2022.
