 Gaussian 16, Revision A.03,
 Gaussian 16:  ES64L-G16RevA.03 25-Dec-2016

 ------------------
 #p CCSD(T)/cc-pVTZ
 ------------------

 ------------
 H2O_H2O_3027
 ------------
 Symbolic Z-matrix:
 Charge =  0 Multiplicity = 1

                         Standard orientation:
 ---------------------------------------------------------------------
 Center     Atomic      Atomic             Coordinates (Angstroms)
 Number     Number       Type             X           Y           Z
 ---------------------------------------------------------------------
      1          8           0        0.088232   -2.299739    0.000000
      2          1           0        0.088052   -1.317138    0.000000
      3          1           0       -0.841203   -2.618576    0.000000
      4          8           0        0.088232    2.155420    0.000000
      5          1           0        0.216309    3.129639    0.000000
      6          1           0       -0.874868    1.960627    0.000000
 ---------------------------------------------------------------------

 SCF Done:  E(RHF) =  -152.108414822     A.U. after   10 cycles
 E2 =    -0.5260477699D+00 EUMP2 =    -0.15263446259156D+03
 CCSD(T)
 CCSD(T)= -0.15266163812D+03

 The electronic state is 1-A'.
 Alpha  occ. eigenvalues --  -20.56640 -20.54993  -1.33932  -1.32299  -0.71360
 Alpha  occ. eigenvalues --   -0.69679  -0.57412  -0.55755  -0.51044  -0.49415
 Alpha virt. eigenvalues --    0.11748   0.15611   0.19386   0.22976   0.54252
 Alpha virt. eigenvalues --    0.54696   0.56441   0.58187   0.67938   0.69058
 Alpha virt. eigenvalues --    0.77847   0.78541   0.79454   0.81003   0.82692

 Mulliken charges:
               1
     1  O   -0.511992
     2  H    0.260953
     3  H    0.249387
     4  O   -0.509262
     5  H    0.259743
     6  H    0.251170
 Sum of Mulliken charges =  -0.00000

 Dipole moment (field-independent basis, Debye):
    X=             -3.0054    Y=              2.5898    Z=              0.0000  Tot=              3.9673
 Quadrupole moment (field-independent basis, Debye-Ang):
   XX=            -10.5619   YY=             -8.6590   ZZ=            -14.7142
   XY=              2.5781   XZ=              0.0000   YZ=              0.0000

 Normal termination of Gaussian 16 at Fri Aug 26 19:20:47 2022.
