 Gaussian 16, Revision A.03,
 Gaussian 16:  ES64L-G16RevA.03 25-Dec-2016

 ------------------
 #p CCSD(T)/cc-pVTZ
 ------------------

 ------------
 H2O_H2O_2303
 ------------
 Symbolic Z-matrix:
 Charge =  0 Multiplicity = 1

                         Standard orientation:
 ---------------------------------------------------------------------
 Center     Atomic      Atomic             Coordinates (Angstroms)
 Number     Number       Type             X           Y           Z
 ---------------------------------------------------------------------
      1          8           0        0.085604   -2.013416    0.000000
      2          1           0        0.085283   -1.030815    0.000000
      3          1           0       -0.843784   -2.332387    0.000000
      4          8           0        0.085604    1.863827    0.000000
      5          1           0        0.276985    2.827611    0.000000
      6          1           0       -0.888155    1.732300    0.000000
 ---------------------------------------------------------------------

 SCF Done:  E(RHF) =  -152.109474275     A.U. after   10 cycles
 E2 =    -0.5263710806D+00 EUMP2 =    -0.15263584535548D+03
 CCSD(T)
 CCSD(T)= -0.15266297470D+03

 The electronic state is 1-A'.
 Alpha  occ. eigenvalues --  -20.57069 -20.54631  -1.34351  -1.31946  -0.71804
 Alpha  occ. eigenvalues --   -0.69308  -0.57872  -0.55395  -0.51463  -0.49068
 Alpha virt. eigenvalues --    0.11698   0.16117   0.19730   0.24537   0.53016
 Alpha virt. eigenvalues --    0.55736   0.56491   0.57831   0.68587   0.71930
 Alpha virt. eigenvalues --    0.76990   0.79407   0.79889   0.80805   0.83429

 Mulliken charges:
               1
     1  O   -0.516255
     2  H    0.264741
     3  H    0.246493
     4  O   -0.504292
     5  H    0.259137
     6  H    0.250175
 Sum of Mulliken charges =  -0.00000

 Dipole moment (field-independent basis, Debye):
    X=             -2.8985    Y=              2.7551    Z=              0.0000  Tot=              3.9990
 Quadrupole moment (field-independent basis, Debye-Ang):
   XX=            -10.4220   YY=             -8.5566   ZZ=            -14.7173
   XY=              2.7072   XZ=              0.0000   YZ=              0.0000

 Normal termination of Gaussian 16 at Sun Aug 28 06:10:13 2022.
