 Gaussian 16, Revision A.03,
 Gaussian 16:  ES64L-G16RevA.03 25-Dec-2016

 ------------------
 #p CCSD(T)/cc-pVTZ
 ------------------

 -----------
 H2O_H2O_552
 -----------
 Symbolic Z-matrix:
 Charge =  0 Multiplicity = 1

                         Standard orientation:
 ---------------------------------------------------------------------
 Center     Atomic      Atomic             Coordinates (Angstroms)
 Number     Number       Type             X           Y           Z
 ---------------------------------------------------------------------
      1          8           0        0.088242   -1.312505    0.000000
      2          1           0        0.087920   -0.329904    0.000000
      3          1           0       -0.841146   -1.631477    0.000000
      4          8           0        0.088242    1.168212    0.000000
      5          1           0        0.216178    2.142450    0.000000
      6          1           0       -0.874829    0.973279    0.000000
 ---------------------------------------------------------------------

 SCF Done:  E(RHF) =  -152.094294090     A.U. after   11 cycles
 E2 =    -0.5327234906D+00 EUMP2 =    -0.15262701758067D+03
 CCSD(T)
 CCSD(T)= -0.15265357023D+03

 The electronic state is 1-A'.
 Alpha  occ. eigenvalues --  -20.59878 -20.51189  -1.38514  -1.29237  -0.77326
 Alpha  occ. eigenvalues --   -0.68312  -0.59478  -0.54898  -0.51913  -0.46211
 Alpha virt. eigenvalues --    0.11231   0.16442   0.20834   0.32396   0.48533
 Alpha virt. eigenvalues --    0.52253   0.58980   0.64440   0.70632   0.71495
 Alpha virt. eigenvalues --    0.74004   0.78083   0.78562   0.83016   0.83717

 Mulliken charges:
               1
     1  O   -0.566638
     2  H    0.288844
     3  H    0.216737
     4  O   -0.400311
     5  H    0.231121
     6  H    0.230248
 Sum of Mulliken charges =  -0.00000

 Dipole moment (field-independent basis, Debye):
    X=             -2.8392    Y=              3.4310    Z=              0.0000  Tot=              4.4534
 Quadrupole moment (field-independent basis, Debye-Ang):
   XX=            -10.5870   YY=             -9.3534   ZZ=            -14.6451
   XY=              2.3000   XZ=              0.0000   YZ=              0.0000

 Normal termination of Gaussian 16 at Fri Aug 26 19:00:36 2022.
