 Gaussian 16, Revision A.03,
 Gaussian 16:  ES64L-G16RevA.03 25-Dec-2016

 ------------------
 #p CCSD(T)/cc-pVTZ
 ------------------

 ------------
 H2O_H2O_1242
 ------------
 Symbolic Z-matrix:
 Charge =  0 Multiplicity = 1

                         Standard orientation:
 ---------------------------------------------------------------------
 Center     Atomic      Atomic             Coordinates (Angstroms)
 Number     Number       Type             X           Y           Z
 ---------------------------------------------------------------------
      1          8           0        0.037541    1.600547    0.000000
      2          1           0        0.034423    0.617951    0.000000
      3          1           0       -0.890937    1.922161    0.000000
      4          8           0        0.037541   -1.421662   -0.000000
      5          1           0        0.917426   -1.859049   -0.000000
      6          1           0       -0.661562   -2.112142   -0.000000
 ---------------------------------------------------------------------

 SCF Done:  E(RHF) =  -152.114255119     A.U. after   10 cycles
 E2 =    -0.5277492841D+00 EUMP2 =    -0.15264200440309D+03
 CCSD(T)
 CCSD(T)= -0.15266893891D+03

 The electronic state is 1-A'.
 Alpha  occ. eigenvalues --  -20.58357 -20.52314  -1.35720  -1.29861  -0.73020
 Alpha  occ. eigenvalues --   -0.67896  -0.59502  -0.53064  -0.52826  -0.47002
 Alpha virt. eigenvalues --    0.12006   0.18074   0.18781   0.30634   0.49334
 Alpha virt. eigenvalues --    0.54620   0.55907   0.60872   0.68676   0.71969
 Alpha virt. eigenvalues --    0.73355   0.77145   0.82078   0.82724   0.84869

 Mulliken charges:
               1
     1  O   -0.555291
     2  H    0.286641
     3  H    0.245626
     4  O   -0.501220
     5  H    0.266220
     6  H    0.258023
 Sum of Mulliken charges =  -0.00000

 Dipole moment (field-independent basis, Debye):
    X=             -1.2517    Y=             -3.6255    Z=             -0.0000  Tot=              3.8355
 Quadrupole moment (field-independent basis, Debye-Ang):
   XX=             -9.1575   YY=             -8.5211   ZZ=            -14.7337
   XY=             -3.7128   XZ=             -0.0000   YZ=             -0.0000

 Normal termination of Gaussian 16 at Fri Aug 26 23:20:21 2022.
