 Gaussian 16, Revision A.03,
 Gaussian 16:  ES64L-G16RevA.03 25-Dec-2016

 ------------------
 #p CCSD(T)/cc-pVTZ
 ------------------

 ------------
 H2O_H2O_4552
 ------------
 Symbolic Z-matrix:
 Charge =  0 Multiplicity = 1

                         Standard orientation:
 ---------------------------------------------------------------------
 Center     Atomic      Atomic             Coordinates (Angstroms)
 Number     Number       Type             X           Y           Z
 ---------------------------------------------------------------------
      1          8           0        0.088229   -2.908031    0.000000
      2          1           0        0.088088   -1.925429    0.000000
      3          1           0       -0.841218   -3.226831    0.000000
      4          8           0        0.088229    2.763705    0.000000
      5          1           0        0.216345    3.737919    0.000000
      6          1           0       -0.874879    2.568949    0.000000
 ---------------------------------------------------------------------

 SCF Done:  E(RHF) =  -152.107764678     A.U. after   10 cycles
 E2 =    -0.5258634402D+00 EUMP2 =    -0.15263362811785D+03
 CCSD(T)
 CCSD(T)= -0.15266083977D+03

 The electronic state is 1-A'.
 Alpha  occ. eigenvalues --  -20.56197 -20.55263  -1.33499  -1.32565  -0.70912
 Alpha  occ. eigenvalues --   -0.69962  -0.56963  -0.56020  -0.50611  -0.49679
 Alpha virt. eigenvalues --    0.12950   0.14735   0.19101   0.21424   0.53320
 Alpha virt. eigenvalues --    0.54821   0.56574   0.57687   0.66930   0.68484
 Alpha virt. eigenvalues --    0.78279   0.79191   0.79618   0.81119   0.81793

 Mulliken charges:
               1
     1  O   -0.510219
     2  H    0.257929
     3  H    0.252226
     4  O   -0.511215
     5  H    0.258234
     6  H    0.253045
 Sum of Mulliken charges =  -0.00000

 Dipole moment (field-independent basis, Debye):
    X=             -3.0260    Y=              2.5314    Z=              0.0000  Tot=              3.9452
 Quadrupole moment (field-independent basis, Debye-Ang):
   XX=            -10.5495   YY=             -8.4713   ZZ=            -14.7123
   XY=              2.6847   XZ=              0.0000   YZ=              0.0000

 Normal termination of Gaussian 16 at Sun Aug 28 03:47:43 2022.
