 Gaussian 16, Revision A.03,
 Gaussian 16:  ES64L-G16RevA.03 25-Dec-2016

 ------------------
 #p CCSD(T)/cc-pVTZ
 ------------------

 -----------
 H2O_H2O_224
 -----------
 Symbolic Z-matrix:
 Charge =  0 Multiplicity = 1

                         Standard orientation:
 ---------------------------------------------------------------------
 Center     Atomic      Atomic             Coordinates (Angstroms)
 Number     Number       Type             X           Y           Z
 ---------------------------------------------------------------------
      1          8           0       -0.013774   -1.181005   -0.000000
      2          1           0       -0.007655   -0.198423   -0.000000
      3          1           0        0.913717   -1.505453   -0.000000
      4          8           0       -0.013774    1.021831    0.000000
      5          1           0       -0.996356    1.027949    0.000000
      6          1           0        0.310674    1.949321    0.000000
 ---------------------------------------------------------------------

 SCF Done:  E(RHF) =  -152.066449479     A.U. after   11 cycles
 E2 =    -0.5349777512D+00 EUMP2 =    -0.15260142723037D+03
 CCSD(T)
 CCSD(T)= -0.15262726675D+03

 The electronic state is 1-A'.
 Alpha  occ. eigenvalues --  -20.61090 -20.46814  -1.41642  -1.26108  -0.80277
 Alpha  occ. eigenvalues --   -0.71188  -0.57649  -0.57066  -0.47060  -0.42930
 Alpha virt. eigenvalues --    0.11078   0.17481   0.20332   0.33981   0.47824
 Alpha virt. eigenvalues --    0.52024   0.59573   0.68942   0.71617   0.72674
 Alpha virt. eigenvalues --    0.76328   0.76883   0.78813   0.84654   0.85432

 Mulliken charges:
               1
     1  O   -0.653554
     2  H    0.281399
     3  H    0.233220
     4  O   -0.352345
     5  H    0.262325
     6  H    0.228956
 Sum of Mulliken charges =  -0.00000

 Dipole moment (field-independent basis, Debye):
    X=              0.4281    Y=              4.3021    Z=              0.0000  Tot=              4.3234
 Quadrupole moment (field-independent basis, Debye-Ang):
   XX=             -9.5333   YY=             -9.8037   ZZ=            -14.5898
   XY=             -3.0883   XZ=             -0.0000   YZ=             -0.0000

 Normal termination of Gaussian 16 at Fri Aug 26 16:43:51 2022.
