 Gaussian 16, Revision A.03,
 Gaussian 16:  ES64L-G16RevA.03 25-Dec-2016

 ------------------
 #p CCSD(T)/cc-pVTZ
 ------------------

 ------------
 H2O_H2O_4046
 ------------
 Symbolic Z-matrix:
 Charge =  0 Multiplicity = 1

                         Standard orientation:
 ---------------------------------------------------------------------
 Center     Atomic      Atomic             Coordinates (Angstroms)
 Number     Number       Type             X           Y           Z
 ---------------------------------------------------------------------
      1          8           0       -0.023178    2.712792    0.000000
      2          1           0       -0.020925    1.730193    0.000000
      3          1           0        0.905582    3.033588    0.000000
      4          8           0       -0.023178   -2.542388    0.000000
      5          1           0       -0.986458   -2.736293    0.000000
      6          1           0        0.472647   -3.390718    0.000000
 ---------------------------------------------------------------------

 SCF Done:  E(RHF) =  -152.108744780     A.U. after   10 cycles
 E2 =    -0.5258077145D+00 EUMP2 =    -0.15263455249424D+03
 CCSD(T)
 CCSD(T)= -0.15266173945D+03

 The electronic state is 1-A'.
 Alpha  occ. eigenvalues --  -20.56273 -20.54903  -1.33573  -1.32213  -0.70978
 Alpha  occ. eigenvalues --   -0.69618  -0.57078  -0.55692  -0.50694  -0.49340
 Alpha virt. eigenvalues --    0.13010   0.15164   0.19471   0.21469   0.53369
 Alpha virt. eigenvalues --    0.55044   0.56617   0.57837   0.66683   0.69002
 Alpha virt. eigenvalues --    0.78197   0.79130   0.79510   0.80402   0.82795

 Mulliken charges:
               1
     1  O   -0.515542
     2  H    0.260799
     3  H    0.254364
     4  O   -0.515845
     5  H    0.257981
     6  H    0.258243
 Sum of Mulliken charges =   0.00000

 Dipole moment (field-independent basis, Debye):
    X=              0.7951    Y=             -3.0046    Z=              0.0000  Tot=              3.1080
 Quadrupole moment (field-independent basis, Debye-Ang):
   XX=             -9.3616   YY=             -7.0216   ZZ=            -14.7159
   XY=              6.6868   XZ=              0.0000   YZ=              0.0000

 Normal termination of Gaussian 16 at Sat Aug 27 22:57:26 2022.
