 Gaussian 16, Revision A.03,
 Gaussian 16:  ES64L-G16RevA.03 25-Dec-2016

 ------------------
 #p CCSD(T)/cc-pVTZ
 ------------------

 -----------
 H2O_H2O_594
 -----------
 Symbolic Z-matrix:
 Charge =  0 Multiplicity = 1

                         Standard orientation:
 ---------------------------------------------------------------------
 Center     Atomic      Atomic             Coordinates (Angstroms)
 Number     Number       Type             X           Y           Z
 ---------------------------------------------------------------------
      1          8           0        0.030359    1.339439    0.000000
      2          1           0        0.026103    0.356847    0.000000
      3          1           0       -0.897745    1.662128    0.000000
      4          8           0        0.030359   -1.163949   -0.000000
      5          1           0        0.959438   -1.483822   -0.000000
      6          1           0       -0.573535   -1.939073   -0.000000
 ---------------------------------------------------------------------

 SCF Done:  E(RHF) =  -152.104210890     A.U. after   11 cycles
 E2 =    -0.5309870687D+00 EUMP2 =    -0.15263519795855D+03
 CCSD(T)
 CCSD(T)= -0.15266168366D+03

 The electronic state is 1-A'.
 Alpha  occ. eigenvalues --  -20.59882 -20.49453  -1.38125  -1.27738  -0.75249
 Alpha  occ. eigenvalues --   -0.69865  -0.59168  -0.54861  -0.50005  -0.44738
 Alpha virt. eigenvalues --    0.11494   0.18018   0.19445   0.33671   0.47537
 Alpha virt. eigenvalues --    0.53877   0.58908   0.66496   0.68662   0.72297
 Alpha virt. eigenvalues --    0.73462   0.77909   0.80603   0.83549   0.83982

 Mulliken charges:
               1
     1  O   -0.609494
     2  H    0.307161
     3  H    0.236088
     4  O   -0.441797
     5  H    0.262321
     6  H    0.245721
 Sum of Mulliken charges =  -0.00000

 Dipole moment (field-independent basis, Debye):
    X=             -0.9834    Y=             -4.0983    Z=             -0.0000  Tot=              4.2146
 Quadrupole moment (field-independent basis, Debye-Ang):
   XX=             -9.1975   YY=             -9.2876   ZZ=            -14.6847
   XY=             -3.2320   XZ=             -0.0000   YZ=              0.0000

 Normal termination of Gaussian 16 at Fri Aug 26 19:17:10 2022.
