 Gaussian 16, Revision A.03,
 Gaussian 16:  ES64L-G16RevA.03 25-Dec-2016

 ------------------
 #p CCSD(T)/cc-pVTZ
 ------------------

 -----------
 H2O_H2O_242
 -----------
 Symbolic Z-matrix:
 Charge =  0 Multiplicity = 1

                         Standard orientation:
 ---------------------------------------------------------------------
 Center     Atomic      Atomic             Coordinates (Angstroms)
 Number     Number       Type             X           Y           Z
 ---------------------------------------------------------------------
      1          8           0        0.037642    1.201630    0.000000
      2          1           0        0.033407    0.219038    0.000000
      3          1           0       -0.890468    1.524300    0.000000
      4          8           0        0.037642   -1.022830    0.000000
      5          1           0        0.917029   -1.461219    0.000000
      6          1           0       -0.662245   -1.712514    0.000000
 ---------------------------------------------------------------------

 SCF Done:  E(RHF) =  -152.075027696     A.U. after   11 cycles
 E2 =    -0.5339965619D+00 EUMP2 =    -0.15260902425743D+03
 CCSD(T)
 CCSD(T)= -0.15263492557D+03

 The electronic state is 1-A'.
 Alpha  occ. eigenvalues --  -20.61252 -20.46142  -1.41209  -1.25584  -0.77405
 Alpha  occ. eigenvalues --   -0.74665  -0.57080  -0.56517  -0.46512  -0.42306
 Alpha virt. eigenvalues --    0.10800   0.17122   0.20525   0.33600   0.46837
 Alpha virt. eigenvalues --    0.52704   0.61801   0.66875   0.70096   0.71689
 Alpha virt. eigenvalues --    0.78215   0.79670   0.79780   0.82719   0.84512

 Mulliken charges:
               1
     1  O   -0.651035
     2  H    0.301870
     3  H    0.217905
     4  O   -0.370767
     5  H    0.259847
     6  H    0.242180
 Sum of Mulliken charges =  -0.00000

 Dipole moment (field-independent basis, Debye):
    X=             -1.1683    Y=             -4.7168    Z=             -0.0000  Tot=              4.8594
 Quadrupole moment (field-independent basis, Debye-Ang):
   XX=             -9.1037   YY=             -9.8882   ZZ=            -14.6142
   XY=             -2.8451   XZ=             -0.0000   YZ=             -0.0000

 Normal termination of Gaussian 16 at Fri Aug 26 16:51:24 2022.
