 Gaussian 16, Revision A.03,
 Gaussian 16:  ES64L-G16RevA.03 25-Dec-2016

 ------------------
 #p CCSD(T)/cc-pVTZ
 ------------------

 ------------
 H2O_H2O_3587
 ------------
 Symbolic Z-matrix:
 Charge =  0 Multiplicity = 1

                         Standard orientation:
 ---------------------------------------------------------------------
 Center     Atomic      Atomic             Coordinates (Angstroms)
 Number     Number       Type             X           Y           Z
 ---------------------------------------------------------------------
      1          8           0        0.055980    2.537918    0.000000
      2          1           0        0.054699    1.555318    0.000000
      3          1           0       -0.873096    2.857797    0.000000
      4          8           0        0.055980   -2.358998   -0.000000
      5          1           0        0.749878   -3.054708   -0.000000
      6          1           0       -0.827164   -2.789766   -0.000000
 ---------------------------------------------------------------------

 SCF Done:  E(RHF) =  -152.109004486     A.U. after   10 cycles
 E2 =    -0.5258603745D+00 EUMP2 =    -0.15263486486039D+03
 CCSD(T)
 CCSD(T)= -0.15266203769D+03

 The electronic state is 1-A'.
 Alpha  occ. eigenvalues --  -20.56416 -20.54705  -1.33707  -1.32018  -0.71111
 Alpha  occ. eigenvalues --   -0.69413  -0.57220  -0.55496  -0.50830  -0.49145
 Alpha virt. eigenvalues --    0.12786   0.15451   0.19561   0.21686   0.53430
 Alpha virt. eigenvalues --    0.55036   0.56486   0.57992   0.66908   0.69296
 Alpha virt. eigenvalues --    0.78073   0.79033   0.79651   0.79696   0.82992

 Mulliken charges:
               1
     1  O   -0.515685
     2  H    0.262542
     3  H    0.252049
     4  O   -0.515111
     5  H    0.259749
     6  H    0.256455
 Sum of Mulliken charges =  -0.00000

 Dipole moment (field-independent basis, Debye):
    X=             -1.9138    Y=             -3.1791    Z=             -0.0000  Tot=              3.7107
 Quadrupole moment (field-independent basis, Debye-Ang):
   XX=             -9.2861   YY=             -6.8733   ZZ=            -14.7169
   XY=             -4.6558   XZ=             -0.0000   YZ=             -0.0000

 Normal termination of Gaussian 16 at Fri Aug 26 22:32:36 2022.
