 Gaussian 16, Revision A.03,
 Gaussian 16:  ES64L-G16RevA.03 25-Dec-2016

 ------------------
 #p CCSD(T)/cc-pVTZ
 ------------------

 ------------
 H2O_H2O_1095
 ------------
 Symbolic Z-matrix:
 Charge =  0 Multiplicity = 1

                         Standard orientation:
 ---------------------------------------------------------------------
 Center     Atomic      Atomic             Coordinates (Angstroms)
 Number     Number       Type             X           Y           Z
 ---------------------------------------------------------------------
      1          8           0        0.026779    1.537604    0.000000
      2          1           0        0.022902    0.555010    0.000000
      3          1           0       -0.901449    1.859936    0.000000
      4          8           0        0.026779   -1.364454   -0.000000
      5          1           0        0.974889   -1.622513   -0.000000
      6          1           0       -0.524814   -2.177628   -0.000000
 ---------------------------------------------------------------------

 SCF Done:  E(RHF) =  -152.113576053     A.U. after   10 cycles
 E2 =    -0.5282312684D+00 EUMP2 =    -0.15264180732143D+03
 CCSD(T)
 CCSD(T)= -0.15266869284D+03

 The electronic state is 1-A'.
 Alpha  occ. eigenvalues --  -20.58596 -20.52012  -1.36062  -1.29639  -0.73435
 Alpha  occ. eigenvalues --   -0.67927  -0.59732  -0.53128  -0.52719  -0.46769
 Alpha virt. eigenvalues --    0.11983   0.18321   0.18700   0.31499   0.49066
 Alpha virt. eigenvalues --    0.54658   0.56003   0.62390   0.68431   0.72888
 Alpha virt. eigenvalues --    0.72895   0.77127   0.82086   0.82535   0.84521

 Mulliken charges:
               1
     1  O   -0.565201
     2  H    0.290250
     3  H    0.247195
     4  O   -0.487951
     5  H    0.264698
     6  H    0.251009
 Sum of Mulliken charges =  -0.00000

 Dipole moment (field-independent basis, Debye):
    X=             -0.8934    Y=             -3.5951    Z=             -0.0000  Tot=              3.7044
 Quadrupole moment (field-independent basis, Debye-Ang):
   XX=             -9.2810   YY=             -8.7015   ZZ=            -14.7267
   XY=             -3.7633   XZ=             -0.0000   YZ=              0.0000

 Normal termination of Gaussian 16 at Fri Aug 26 22:25:51 2022.
