 Gaussian 16, Revision A.03,
 Gaussian 16:  ES64L-G16RevA.03 25-Dec-2016

 ------------------
 #p CCSD(T)/cc-pVTZ
 ------------------

 ------------
 H2O_H2O_2027
 ------------
 Symbolic Z-matrix:
 Charge =  0 Multiplicity = 1

                         Standard orientation:
 ---------------------------------------------------------------------
 Center     Atomic      Atomic             Coordinates (Angstroms)
 Number     Number       Type             X           Y           Z
 ---------------------------------------------------------------------
      1          8           0        0.088235   -1.900858    0.000000
      2          1           0        0.088016   -0.918257    0.000000
      3          1           0       -0.841187   -2.219732    0.000000
      4          8           0        0.088235    1.756546    0.000000
      5          1           0        0.216273    2.730771    0.000000
      6          1           0       -0.874857    1.561715    0.000000
 ---------------------------------------------------------------------

 SCF Done:  E(RHF) =  -152.109559723     A.U. after   10 cycles
 E2 =    -0.5266450710D+00 EUMP2 =    -0.15263620479410D+03
 CCSD(T)
 CCSD(T)= -0.15266332277D+03

 The electronic state is 1-A'.
 Alpha  occ. eigenvalues --  -20.57292 -20.54589  -1.34582  -1.31909  -0.72081
 Alpha  occ. eigenvalues --   -0.69248  -0.58107  -0.55339  -0.51684  -0.49027
 Alpha virt. eigenvalues --    0.11599   0.16212   0.19957   0.25489   0.52017
 Alpha virt. eigenvalues --    0.55664   0.56850   0.57548   0.68432   0.73529
 Alpha virt. eigenvalues --    0.76200   0.78815   0.80047   0.82307   0.83100

 Mulliken charges:
               1
     1  O   -0.517168
     2  H    0.266245
     3  H    0.244692
     4  O   -0.500321
     5  H    0.258413
     6  H    0.248141
 Sum of Mulliken charges =  -0.00000

 Dipole moment (field-independent basis, Debye):
    X=             -2.9766    Y=              2.6953    Z=              0.0000  Tot=              4.0156
 Quadrupole moment (field-independent basis, Debye-Ang):
   XX=            -10.5837   YY=             -8.7745   ZZ=            -14.7171
   XY=              2.5025   XZ=              0.0000   YZ=              0.0000

 Normal termination of Gaussian 16 at Sun Aug 28 03:42:49 2022.
