 Gaussian 16, Revision A.03,
 Gaussian 16:  ES64L-G16RevA.03 25-Dec-2016

 ------------------
 #p CCSD(T)/cc-pVTZ
 ------------------

 ------------
 H2O_H2O_1960
 ------------
 Symbolic Z-matrix:
 Charge =  0 Multiplicity = 1

                         Standard orientation:
 ---------------------------------------------------------------------
 Center     Atomic      Atomic             Coordinates (Angstroms)
 Number     Number       Type             X           Y           Z
 ---------------------------------------------------------------------
      1          8           0        0.063262    1.887871   -0.000000
      2          1           0        0.061861    0.905271   -0.000000
      3          1           0       -0.865776    2.207862   -0.000000
      4          8           0        0.063262   -1.712400    0.000000
      5          1           0        0.660320   -2.492803    0.000000
      6          1           0       -0.868591   -2.024096    0.000000
 ---------------------------------------------------------------------

 SCF Done:  E(RHF) =  -152.111914402     A.U. after   10 cycles
 E2 =    -0.5265214246D+00 EUMP2 =    -0.15263843582659D+03
 CCSD(T)
 CCSD(T)= -0.15266550325D+03

 The electronic state is 1-A'.
 Alpha  occ. eigenvalues --  -20.57400 -20.53767  -1.34657  -1.31124  -0.72055
 Alpha  occ. eigenvalues --   -0.68542  -0.58325  -0.54568  -0.51789  -0.48268
 Alpha virt. eigenvalues --    0.12077   0.16844   0.19282   0.26272   0.51332
 Alpha virt. eigenvalues --    0.55380   0.56206   0.58753   0.69022   0.72479
 Alpha virt. eigenvalues --    0.76101   0.77798   0.80687   0.83361   0.84026

 Mulliken charges:
               1
     1  O   -0.526935
     2  H    0.269376
     3  H    0.246481
     4  O   -0.506009
     5  H    0.261682
     6  H    0.255405
 Sum of Mulliken charges =   0.00000

 Dipole moment (field-independent basis, Debye):
    X=             -2.1363    Y=             -3.3083    Z=              0.0000  Tot=              3.9381
 Quadrupole moment (field-independent basis, Debye-Ang):
   XX=             -9.4678   YY=             -7.9935   ZZ=            -14.7273
   XY=             -3.6175   XZ=              0.0000   YZ=              0.0000

 Normal termination of Gaussian 16 at Sun Aug 28 03:10:52 2022.
