 Gaussian 16, Revision A.03,
 Gaussian 16:  ES64L-G16RevA.03 25-Dec-2016

 ------------------
 #p CCSD(T)/cc-pVTZ
 ------------------

 ------------
 H2O_H2O_4555
 ------------
 Symbolic Z-matrix:
 Charge =  0 Multiplicity = 1

                         Standard orientation:
 ---------------------------------------------------------------------
 Center     Atomic      Atomic             Coordinates (Angstroms)
 Number     Number       Type             X           Y           Z
 ---------------------------------------------------------------------
      1          8           0        0.079844    2.916043    0.000000
      2          1           0        0.079452    1.933442    0.000000
      3          1           0       -0.849522    3.235080    0.000000
      4          8           0        0.079844   -2.756965   -0.000000
      5          1           0        0.395320   -3.687547   -0.000000
      6          1           0       -0.902752   -2.753594   -0.000000
 ---------------------------------------------------------------------

 SCF Done:  E(RHF) =  -152.107973987     A.U. after   10 cycles
 E2 =    -0.5258455604D+00 EUMP2 =    -0.15263381954767D+03
 CCSD(T)
 CCSD(T)= -0.15266102638D+03

 The electronic state is 1-A'.
 Alpha  occ. eigenvalues --  -20.56190 -20.55141  -1.33491  -1.32445  -0.70902
 Alpha  occ. eigenvalues --   -0.69842  -0.56965  -0.55904  -0.50605  -0.49562
 Alpha virt. eigenvalues --    0.13156   0.14785   0.19377   0.21175   0.53429
 Alpha virt. eigenvalues --    0.54848   0.56608   0.57728   0.66908   0.68581
 Alpha virt. eigenvalues --    0.78283   0.79304   0.79536   0.80801   0.82213

 Mulliken charges:
               1
     1  O   -0.511347
     2  H    0.258921
     3  H    0.252343
     4  O   -0.512332
     5  H    0.258387
     6  H    0.254027
 Sum of Mulliken charges =  -0.00000

 Dipole moment (field-independent basis, Debye):
    X=             -2.7384    Y=             -2.7907    Z=             -0.0000  Tot=              3.9098
 Quadrupole moment (field-independent basis, Debye-Ang):
   XX=            -10.0937   YY=             -7.4870   ZZ=            -14.7132
   XY=             -3.4654   XZ=             -0.0000   YZ=             -0.0000

 Normal termination of Gaussian 16 at Sun Aug 28 03:48:55 2022.
