 Gaussian 16, Revision A.03,
 Gaussian 16:  ES64L-G16RevA.03 25-Dec-2016

 ------------------
 #p CCSD(T)/cc-pVTZ
 ------------------

 -----------
 H2O_H2O_623
 -----------
 Symbolic Z-matrix:
 Charge =  0 Multiplicity = 1

                         Standard orientation:
 ---------------------------------------------------------------------
 Center     Atomic      Atomic             Coordinates (Angstroms)
 Number     Number       Type             X           Y           Z
 ---------------------------------------------------------------------
      1          8           0        0.016816   -1.342799    0.000000
      2          1           0        0.011680   -0.360211    0.000000
      3          1           0       -0.910999   -1.666319    0.000000
      4          8           0        0.016816    1.179487    0.000000
      5          1           0        0.996963    1.248875    0.000000
      6          1           0       -0.366695    2.084156    0.000000
 ---------------------------------------------------------------------

 SCF Done:  E(RHF) =  -152.103578693     A.U. after   10 cycles
 E2 =    -0.5309756962D+00 EUMP2 =    -0.15263455438947D+03
 CCSD(T)
 CCSD(T)= -0.15266109463D+03

 The electronic state is 1-A'.
 Alpha  occ. eigenvalues --  -20.59693 -20.50123  -1.37963  -1.28283  -0.75832
 Alpha  occ. eigenvalues --   -0.68670  -0.59758  -0.54654  -0.50647  -0.45315
 Alpha virt. eigenvalues --    0.11660   0.18147   0.19344   0.33778   0.47931
 Alpha virt. eigenvalues --    0.53622   0.57810   0.67724   0.68669   0.72143
 Alpha virt. eigenvalues --    0.74326   0.76530   0.79590   0.83941   0.83942

 Mulliken charges:
               1
     1  O   -0.604929
     2  H    0.297262
     3  H    0.243866
     4  O   -0.430113
     5  H    0.258718
     6  H    0.235196
 Sum of Mulliken charges =  -0.00000

 Dipole moment (field-independent basis, Debye):
    X=             -0.5562    Y=              3.7998    Z=              0.0000  Tot=              3.8403
 Quadrupole moment (field-independent basis, Debye-Ang):
   XX=             -9.5026   YY=             -9.2381   ZZ=            -14.6794
   XY=              3.4810   XZ=              0.0000   YZ=              0.0000

 Normal termination of Gaussian 16 at Fri Aug 26 19:27:58 2022.
