 Gaussian 16, Revision A.03,
 Gaussian 16:  ES64L-G16RevA.03 25-Dec-2016

 ------------------
 #p CCSD(T)/cc-pVTZ
 ------------------

 ------------
 H2O_H2O_2415
 ------------
 Symbolic Z-matrix:
 Charge =  0 Multiplicity = 1

                         Standard orientation:
 ---------------------------------------------------------------------
 Center     Atomic      Atomic             Coordinates (Angstroms)
 Number     Number       Type             X           Y           Z
 ---------------------------------------------------------------------
      1          8           0        0.044882    2.070032    0.000000
      2          1           0        0.042820    1.087433    0.000000
      3          1           0       -0.883940    2.390649   -0.000000
      4          8           0        0.044882   -1.889656   -0.000000
      5          1           0        0.860738   -2.437274    0.000000
      6          1           0       -0.737727   -2.483819   -0.000000
 ---------------------------------------------------------------------

 SCF Done:  E(RHF) =  -152.111172164     A.U. after   10 cycles
 E2 =    -0.5261311651D+00 EUMP2 =    -0.15263730332902D+03
 CCSD(T)
 CCSD(T)= -0.15266440282D+03

 The electronic state is 1-A'.
 Alpha  occ. eigenvalues --  -20.57007 -20.54050  -1.34266  -1.31386  -0.71658
 Alpha  occ. eigenvalues --   -0.68785  -0.57877  -0.54871  -0.51403  -0.48532
 Alpha virt. eigenvalues --    0.12328   0.16543   0.19295   0.24466   0.52525
 Alpha virt. eigenvalues --    0.55504   0.56364   0.58987   0.69043   0.71106
 Alpha virt. eigenvalues --    0.77239   0.78504   0.80317   0.81466   0.83664

 Mulliken charges:
               1
     1  O   -0.524420
     2  H    0.267049
     3  H    0.250475
     4  O   -0.510728
     5  H    0.260725
     6  H    0.256898
 Sum of Mulliken charges =  -0.00000

 Dipole moment (field-independent basis, Debye):
    X=             -1.5241    Y=             -3.3204    Z=             -0.0000  Tot=              3.6534
 Quadrupole moment (field-independent basis, Debye-Ang):
   XX=             -9.1582   YY=             -7.5717   ZZ=            -14.7241
   XY=             -4.4016   XZ=             -0.0000   YZ=             -0.0000

 Normal termination of Gaussian 16 at Sun Aug 28 07:09:16 2022.
