 Gaussian 16, Revision A.03,
 Gaussian 16:  ES64L-G16RevA.03 25-Dec-2016

 ------------------
 #p CCSD(T)/cc-pVTZ
 ------------------

 ------------
 H2O_H2O_4603
 ------------
 Symbolic Z-matrix:
 Charge =  0 Multiplicity = 1

                         Standard orientation:
 ---------------------------------------------------------------------
 Center     Atomic      Atomic             Coordinates (Angstroms)
 Number     Number       Type             X           Y           Z
 ---------------------------------------------------------------------
      1          8           0        0.085597   -2.930843    0.000000
      2          1           0        0.085378   -1.948242    0.000000
      3          1           0       -0.843826   -3.249716    0.000000
      4          8           0        0.085597    2.781236    0.000000
      5          1           0        0.277079    3.745000    0.000000
      6          1           0       -0.888176    2.649811    0.000000
 ---------------------------------------------------------------------

 SCF Done:  E(RHF) =  -152.107826978     A.U. after   10 cycles
 E2 =    -0.5258559442D+00 EUMP2 =    -0.15263368292234D+03
 CCSD(T)
 CCSD(T)= -0.15266089332D+03

 The electronic state is 1-A'.
 Alpha  occ. eigenvalues --  -20.56186 -20.55226  -1.33488  -1.32529  -0.70900
 Alpha  occ. eigenvalues --   -0.69926  -0.56955  -0.55985  -0.50600  -0.49644
 Alpha virt. eigenvalues --    0.13067   0.14728   0.19216   0.21287   0.53378
 Alpha virt. eigenvalues --    0.54817   0.56593   0.57689   0.66947   0.68491
 Alpha virt. eigenvalues --    0.78289   0.79225   0.79616   0.80984   0.81899

 Mulliken charges:
               1
     1  O   -0.510581
     2  H    0.258217
     3  H    0.252303
     4  O   -0.511558
     5  H    0.258219
     6  H    0.253400
 Sum of Mulliken charges =  -0.00000

 Dipole moment (field-independent basis, Debye):
    X=             -2.9361    Y=              2.6232    Z=              0.0000  Tot=              3.9372
 Quadrupole moment (field-independent basis, Debye-Ang):
   XX=            -10.3967   YY=             -8.1006   ZZ=            -14.7126
   XY=              2.9527   XZ=              0.0000   YZ=              0.0000

 Normal termination of Gaussian 16 at Sun Aug 28 04:15:59 2022.
