 Gaussian 16, Revision A.03,
 Gaussian 16:  ES64L-G16RevA.03 25-Dec-2016

 ------------------
 #p CCSD(T)/cc-pVTZ
 ------------------

 ------------
 H2O_H2O_2966
 ------------
 Symbolic Z-matrix:
 Charge =  0 Multiplicity = 1

                         Standard orientation:
 ---------------------------------------------------------------------
 Center     Atomic      Atomic             Coordinates (Angstroms)
 Number     Number       Type             X           Y           Z
 ---------------------------------------------------------------------
      1          8           0        0.041146    2.289167    0.000000
      2          1           0        0.039146    1.306567    0.000000
      3          1           0       -0.887697    2.609724   -0.000000
      4          8           0        0.041146   -2.109247    0.000000
      5          1           0        0.891103   -2.602278    0.000000
      6          1           0       -0.700887   -2.753370   -0.000000
 ---------------------------------------------------------------------

 SCF Done:  E(RHF) =  -152.110015673     A.U. after   10 cycles
 E2 =    -0.5259387447D+00 EUMP2 =    -0.15263595441777D+03
 CCSD(T)
 CCSD(T)= -0.15266309256D+03

 The electronic state is 1-A'.
 Alpha  occ. eigenvalues --  -20.56666 -20.54409  -1.33943  -1.31731  -0.71342
 Alpha  occ. eigenvalues --   -0.69127  -0.57494  -0.55220  -0.51074  -0.48868
 Alpha virt. eigenvalues --    0.12503   0.15994   0.19439   0.22795   0.53160
 Alpha virt. eigenvalues --    0.55491   0.56377   0.58580   0.68430   0.69327
 Alpha virt. eigenvalues --    0.77814   0.79095   0.79433   0.79959   0.83290

 Mulliken charges:
               1
     1  O   -0.519908
     2  H    0.264623
     3  H    0.252099
     4  O   -0.514364
     5  H    0.260075
     6  H    0.257475
 Sum of Mulliken charges =   0.00000

 Dipole moment (field-independent basis, Debye):
    X=             -1.4028    Y=             -3.2445    Z=             -0.0000  Tot=              3.5348
 Quadrupole moment (field-independent basis, Debye-Ang):
   XX=             -9.1492   YY=             -7.2210   ZZ=            -14.7203
   XY=             -4.9101   XZ=              0.0000   YZ=             -0.0000

 Normal termination of Gaussian 16 at Fri Aug 26 18:49:53 2022.
