 Gaussian 16, Revision A.03,
 Gaussian 16:  ES64L-G16RevA.03 25-Dec-2016

 ------------------
 #p CCSD(T)/cc-pVTZ
 ------------------

 -----------
 H2O_H2O_694
 -----------
 Symbolic Z-matrix:
 Charge =  0 Multiplicity = 1

                         Standard orientation:
 ---------------------------------------------------------------------
 Center     Atomic      Atomic             Coordinates (Angstroms)
 Number     Number       Type             X           Y           Z
 ---------------------------------------------------------------------
      1          8           0        0.030347    1.379330    0.000000
      2          1           0        0.026223    0.396737    0.000000
      3          1           0       -0.897800    1.701895   -0.000000
      4          8           0        0.030347   -1.203832    0.000000
      5          1           0        0.959469   -1.523581    0.000000
      6          1           0       -0.573442   -1.979038   -0.000000
 ---------------------------------------------------------------------

 SCF Done:  E(RHF) =  -152.107896302     A.U. after   10 cycles
 E2 =    -0.5302753528D+00 EUMP2 =    -0.15263817165436D+03
 CCSD(T)
 CCSD(T)= -0.15266477314D+03

 The electronic state is 1-A'.
 Alpha  occ. eigenvalues --  -20.59579 -20.50107  -1.37564  -1.28198  -0.74748
 Alpha  occ. eigenvalues --   -0.69152  -0.59524  -0.54417  -0.50698  -0.45238
 Alpha virt. eigenvalues --    0.11622   0.18180   0.19198   0.33410   0.47777
 Alpha virt. eigenvalues --    0.54138   0.58193   0.65431   0.68460   0.72353
 Alpha virt. eigenvalues --    0.72991   0.77761   0.81022   0.83443   0.84145

 Mulliken charges:
               1
     1  O   -0.599066
     2  H    0.305956
     3  H    0.238851
     4  O   -0.456511
     5  H    0.263062
     6  H    0.247708
 Sum of Mulliken charges =  -0.00000

 Dipole moment (field-independent basis, Debye):
    X=             -0.9903    Y=             -3.9818    Z=             -0.0000  Tot=              4.1031
 Quadrupole moment (field-independent basis, Debye-Ang):
   XX=             -9.2047   YY=             -9.1503   ZZ=            -14.6980
   XY=             -3.3283   XZ=              0.0000   YZ=             -0.0000

 Normal termination of Gaussian 16 at Fri Aug 26 19:53:46 2022.
