 Gaussian 16, Revision A.03,
 Gaussian 16:  ES64L-G16RevA.03 25-Dec-2016

 ------------------
 #p CCSD(T)/cc-pVTZ
 ------------------

 -----------
 H2O_H2O_263
 -----------
 Symbolic Z-matrix:
 Charge =  0 Multiplicity = 1

                         Standard orientation:
 ---------------------------------------------------------------------
 Center     Atomic      Atomic             Coordinates (Angstroms)
 Number     Number       Type             X           Y           Z
 ---------------------------------------------------------------------
      1          8           0        0.052440    1.212100   -0.000000
      2          1           0        0.049366    0.229504   -0.000000
      3          1           0       -0.876051    1.533674    0.000000
      4          8           0        0.052440   -1.032375   -0.000000
      5          1           0        0.789169   -1.682558   -0.000000
      6          1           0       -0.801528   -1.518424    0.000000
 ---------------------------------------------------------------------

 SCF Done:  E(RHF) =  -152.078295806     A.U. after   11 cycles
 E2 =    -0.5339310390D+00 EUMP2 =    -0.15261222684542D+03
 CCSD(T)
 CCSD(T)= -0.15263817613D+03

 The electronic state is 1-A'.
 Alpha  occ. eigenvalues --  -20.61192 -20.46509  -1.40940  -1.25820  -0.76819
 Alpha  occ. eigenvalues --   -0.74793  -0.56915  -0.56555  -0.46960  -0.42557
 Alpha virt. eigenvalues --    0.10777   0.16904   0.20601   0.33307   0.47336
 Alpha virt. eigenvalues --    0.52735   0.62744   0.63984   0.71022   0.71769
 Alpha virt. eigenvalues --    0.78068   0.80242   0.80246   0.82216   0.84281

 Mulliken charges:
               1
     1  O   -0.640873
     2  H    0.305763
     3  H    0.212759
     4  O   -0.376263
     5  H    0.252858
     6  H    0.245755
 Sum of Mulliken charges =   0.00000

 Dipole moment (field-independent basis, Debye):
    X=             -1.6280    Y=             -4.6823    Z=              0.0000  Tot=              4.9573
 Quadrupole moment (field-independent basis, Debye-Ang):
   XX=             -9.1939   YY=             -9.8443   ZZ=            -14.6198
   XY=             -2.8302   XZ=             -0.0000   YZ=              0.0000

 Normal termination of Gaussian 16 at Fri Aug 26 16:59:55 2022.
