 Gaussian 16, Revision A.03,
 Gaussian 16:  ES64L-G16RevA.03 25-Dec-2016

 ------------------
 #p CCSD(T)/cc-pVTZ
 ------------------

 -----------
 H2O_H2O_983
 -----------
 Symbolic Z-matrix:
 Charge =  0 Multiplicity = 1

                         Standard orientation:
 ---------------------------------------------------------------------
 Center     Atomic      Atomic             Coordinates (Angstroms)
 Number     Number       Type             X           Y           Z
 ---------------------------------------------------------------------
      1          8           0        0.070243    1.496088    0.000000
      2          1           0        0.068875    0.513488    0.000000
      3          1           0       -0.858805    1.816049    0.000000
      4          8           0        0.070243   -1.325917    0.000000
      5          1           0        0.560358   -2.177558    0.000000
      6          1           0       -0.894317   -1.513346    0.000000
 ---------------------------------------------------------------------

 SCF Done:  E(RHF) =  -152.111464953     A.U. after   10 cycles
 E2 =    -0.5289842022D+00 EUMP2 =    -0.15264044915473D+03
 CCSD(T)
 CCSD(T)= -0.15266730117D+03

 The electronic state is 1-A'.
 Alpha  occ. eigenvalues --  -20.58851 -20.51981  -1.36407  -1.29643  -0.73839
 Alpha  occ. eigenvalues --   -0.68184  -0.59662  -0.53417  -0.52680  -0.46732
 Alpha virt. eigenvalues --    0.11634   0.17188   0.19612   0.31667   0.48253
 Alpha virt. eigenvalues --    0.54504   0.58924   0.59458   0.69757   0.72600
 Alpha virt. eigenvalues --    0.73840   0.76809   0.81687   0.82561   0.84283

 Mulliken charges:
               1
     1  O   -0.558903
     2  H    0.295152
     3  H    0.234172
     4  O   -0.470514
     5  H    0.250275
     6  H    0.249819
 Sum of Mulliken charges =   0.00000

 Dipole moment (field-independent basis, Debye):
    X=             -2.3107    Y=             -3.5925    Z=             -0.0000  Tot=              4.2715
 Quadrupole moment (field-independent basis, Debye-Ang):
   XX=             -9.7088   YY=             -8.8071   ZZ=            -14.7149
   XY=             -3.0488   XZ=             -0.0000   YZ=             -0.0000

 Normal termination of Gaussian 16 at Fri Aug 26 21:43:53 2022.
