 Gaussian 16, Revision A.03,
 Gaussian 16:  ES64L-G16RevA.03 25-Dec-2016

 ------------------
 #p CCSD(T)/cc-pVTZ
 ------------------

 -----------
 H2O_H2O_347
 -----------
 Symbolic Z-matrix:
 Charge =  0 Multiplicity = 1

                         Standard orientation:
 ---------------------------------------------------------------------
 Center     Atomic      Atomic             Coordinates (Angstroms)
 Number     Number       Type             X           Y           Z
 ---------------------------------------------------------------------
      1          8           0       -0.020086    1.235111    0.000000
      2          1           0       -0.014700    0.252524    0.000000
      3          1           0        0.907646    1.558867    0.000000
      4          8           0       -0.020086   -1.068115    0.000000
      5          1           0       -0.993565   -1.201707    0.000000
      6          1           0        0.421994   -1.945651    0.000000
 ---------------------------------------------------------------------

 SCF Done:  E(RHF) =  -152.085078124     A.U. after   11 cycles
 E2 =    -0.5333609476D+00 EUMP2 =    -0.15261843907192D+03
 CCSD(T)
 CCSD(T)= -0.15264454014D+03

 The electronic state is 1-A'.
 Alpha  occ. eigenvalues --  -20.60677 -20.47740  -1.40117  -1.26646  -0.77973
 Alpha  occ. eigenvalues --   -0.71074  -0.58165  -0.56214  -0.48115  -0.43526
 Alpha virt. eigenvalues --    0.11202   0.17659   0.20037   0.34044   0.47462
 Alpha virt. eigenvalues --    0.52835   0.59454   0.68549   0.71435   0.71985
 Alpha virt. eigenvalues --    0.76066   0.77291   0.78333   0.83986   0.84631

 Mulliken charges:
               1
     1  O   -0.637685
     2  H    0.294066
     3  H    0.233510
     4  O   -0.383707
     5  H    0.260549
     6  H    0.233268
 Sum of Mulliken charges =  -0.00000

 Dipole moment (field-independent basis, Debye):
    X=              0.6389    Y=             -4.2665    Z=              0.0000  Tot=              4.3141
 Quadrupole moment (field-independent basis, Debye-Ang):
   XX=             -9.3733   YY=             -9.6275   ZZ=            -14.6303
   XY=              3.1064   XZ=              0.0000   YZ=              0.0000

 Normal termination of Gaussian 16 at Fri Aug 26 17:36:01 2022.
