 Gaussian 16, Revision A.03,
 Gaussian 16:  ES64L-G16RevA.03 25-Dec-2016

 ------------------
 #p CCSD(T)/cc-pVTZ
 ------------------

 ------------
 H2O_H2O_1836
 ------------
 Symbolic Z-matrix:
 Charge =  0 Multiplicity = 1

                         Standard orientation:
 ---------------------------------------------------------------------
 Center     Atomic      Atomic             Coordinates (Angstroms)
 Number     Number       Type             X           Y           Z
 ---------------------------------------------------------------------
      1          8           0        0.059674    1.839061   -0.000000
      2          1           0        0.058059    0.856460   -0.000000
      3          1           0       -0.869294    2.159254   -0.000000
      4          8           0        0.059674   -1.661660    0.000000
      5          1           0        0.706333   -2.401483    0.000000
      6          1           0       -0.849880   -2.033437    0.000000
 ---------------------------------------------------------------------

 SCF Done:  E(RHF) =  -152.112462231     A.U. after   10 cycles
 E2 =    -0.5266455112D+00 EUMP2 =    -0.15263910774219D+03
 CCSD(T)
 CCSD(T)= -0.15266615890D+03

 The electronic state is 1-A'.
 Alpha  occ. eigenvalues --  -20.57533 -20.53566  -1.34790  -1.30939  -0.72177
 Alpha  occ. eigenvalues --   -0.68389  -0.58501  -0.54367  -0.51924  -0.48086
 Alpha virt. eigenvalues --    0.12080   0.17026   0.19212   0.26963   0.50869
 Alpha virt. eigenvalues --    0.55163   0.56289   0.58888   0.69104   0.72535
 Alpha virt. eigenvalues --    0.75664   0.77360   0.80893   0.83283   0.84263

 Mulliken charges:
               1
     1  O   -0.530014
     2  H    0.271004
     3  H    0.246191
     4  O   -0.505949
     5  H    0.262589
     6  H    0.256179
 Sum of Mulliken charges =  -0.00000

 Dipole moment (field-independent basis, Debye):
    X=             -2.0117    Y=             -3.3749    Z=              0.0000  Tot=              3.9289
 Quadrupole moment (field-independent basis, Debye-Ang):
   XX=             -9.3744   YY=             -8.0422   ZZ=            -14.7298
   XY=             -3.6634   XZ=              0.0000   YZ=             -0.0000

 Normal termination of Gaussian 16 at Sun Aug 28 02:02:32 2022.
