 Gaussian 16, Revision A.03,
 Gaussian 16:  ES64L-G16RevA.03 25-Dec-2016

 ------------------
 #p CCSD(T)/cc-pVTZ
 ------------------

 ------------
 H2O_H2O_4584
 ------------
 Symbolic Z-matrix:
 Charge =  0 Multiplicity = 1

                         Standard orientation:
 ---------------------------------------------------------------------
 Center     Atomic      Atomic             Coordinates (Angstroms)
 Number     Number       Type             X           Y           Z
 ---------------------------------------------------------------------
      1          8           0        0.066743    2.933650    0.000000
      2          1           0        0.065962    1.951049    0.000000
      3          1           0       -0.862497    3.253055   -0.000000
      4          8           0        0.066743   -2.760518    0.000000
      5          1           0        0.611997   -3.577955    0.000000
      6          1           0       -0.883344   -3.011200   -0.000000
 ---------------------------------------------------------------------

 SCF Done:  E(RHF) =  -152.108191966     A.U. after   10 cycles
 E2 =    -0.5258256189D+00 EUMP2 =    -0.15263401758463D+03
 CCSD(T)
 CCSD(T)= -0.15266121977D+03

 The electronic state is 1-A'.
 Alpha  occ. eigenvalues --  -20.56177 -20.55027  -1.33479  -1.32333  -0.70886
 Alpha  occ. eigenvalues --   -0.69732  -0.56962  -0.55798  -0.50595  -0.49453
 Alpha virt. eigenvalues --    0.13329   0.14843   0.19611   0.21024   0.53582
 Alpha virt. eigenvalues --    0.54845   0.56648   0.57763   0.66898   0.68658
 Alpha virt. eigenvalues --    0.78291   0.79408   0.79563   0.80465   0.82500

 Mulliken charges:
               1
     1  O   -0.512584
     2  H    0.259804
     3  H    0.252686
     4  O   -0.513477
     5  H    0.258390
     6  H    0.255181
 Sum of Mulliken charges =  -0.00000

 Dipole moment (field-independent basis, Debye):
    X=             -2.2892    Y=             -3.0370    Z=             -0.0000  Tot=              3.8031
 Quadrupole moment (field-independent basis, Debye-Ang):
   XX=             -9.5600   YY=             -6.5965   ZZ=            -14.7140
   XY=             -4.4641   XZ=              0.0000   YZ=             -0.0000

 Normal termination of Gaussian 16 at Sun Aug 28 04:08:41 2022.
