 Gaussian 16, Revision A.03,
 Gaussian 16:  ES64L-G16RevA.03 25-Dec-2016

 ------------------
 #p CCSD(T)/cc-pVTZ
 ------------------

 ------------
 H2O_H2O_4891
 ------------
 Symbolic Z-matrix:
 Charge =  0 Multiplicity = 1

                         Standard orientation:
 ---------------------------------------------------------------------
 Center     Atomic      Atomic             Coordinates (Angstroms)
 Number     Number       Type             X           Y           Z
 ---------------------------------------------------------------------
      1          8           0        0.041099    3.057026   -0.000000
      2          1           0        0.039616    2.074425   -0.000000
      3          1           0       -0.887913    3.377094   -0.000000
      4          8           0        0.041099   -2.877063    0.000000
      5          1           0        0.891315   -3.369647    0.000000
      6          1           0       -0.700595   -3.521576    0.000000
 ---------------------------------------------------------------------

 SCF Done:  E(RHF) =  -152.108285579     A.U. after   10 cycles
 E2 =    -0.5258043871D+00 EUMP2 =    -0.15263408996559D+03
 CCSD(T)
 CCSD(T)= -0.15266129167D+03

 The electronic state is 1-A'.
 Alpha  occ. eigenvalues --  -20.56121 -20.55020  -1.33423  -1.32327  -0.70828
 Alpha  occ. eigenvalues --   -0.69730  -0.56911  -0.55796  -0.50542  -0.49449
 Alpha virt. eigenvalues --    0.13523   0.14791   0.19742   0.20911   0.53721
 Alpha virt. eigenvalues --    0.54808   0.56717   0.57771   0.67038   0.68533
 Alpha virt. eigenvalues --    0.78342   0.79411   0.79749   0.80475   0.82273

 Mulliken charges:
               1
     1  O   -0.513416
     2  H    0.259642
     3  H    0.253732
     4  O   -0.514027
     5  H    0.257601
     6  H    0.256468
 Sum of Mulliken charges =   0.00000

 Dipole moment (field-independent basis, Debye):
    X=             -1.4109    Y=             -3.1496    Z=              0.0000  Tot=              3.4512
 Quadrupole moment (field-independent basis, Debye-Ang):
   XX=             -9.1496   YY=             -5.9866   ZZ=            -14.7144
   XY=             -6.2866   XZ=              0.0000   YZ=             -0.0000

 7594\MP4DQ=-152.6432146\MP4SDQ=-152.646262\CCSD=-152.6456776\CCSD(T)=-
 Normal termination of Gaussian 16 at Sun Aug 28 06:42:48 2022.
