 Gaussian 16, Revision A.03,
 Gaussian 16:  ES64L-G16RevA.03 25-Dec-2016

 ------------------
 #p CCSD(T)/cc-pVTZ
 ------------------

 ------------
 H2O_H2O_1744
 ------------
 Symbolic Z-matrix:
 Charge =  0 Multiplicity = 1

                         Standard orientation:
 ---------------------------------------------------------------------
 Center     Atomic      Atomic             Coordinates (Angstroms)
 Number     Number       Type             X           Y           Z
 ---------------------------------------------------------------------
      1          8           0        0.030257    1.798180    0.000000
      2          1           0        0.027142    0.815583    0.000000
      3          1           0       -0.898222    2.119790    0.000000
      4          8           0        0.030257   -1.622619    0.000000
      5          1           0        0.959706   -1.941413    0.000000
      6          1           0       -0.572735   -2.398445    0.000000
 ---------------------------------------------------------------------

 SCF Done:  E(RHF) =  -152.113202420     A.U. after   10 cycles
 E2 =    -0.5266817127D+00 EUMP2 =    -0.15263988413270D+03
 CCSD(T)
 CCSD(T)= -0.15266691888D+03

 The electronic state is 1-A'.
 Alpha  occ. eigenvalues --  -20.57613 -20.53401  -1.34880  -1.30794  -0.72263
 Alpha  occ. eigenvalues --   -0.68292  -0.58651  -0.54211  -0.52016  -0.47952
 Alpha virt. eigenvalues --    0.12196   0.17359   0.19057   0.27605   0.51320
 Alpha virt. eigenvalues --    0.54396   0.56135   0.59459   0.69033   0.72740
 Alpha virt. eigenvalues --    0.75282   0.77360   0.81057   0.83246   0.84519

 Mulliken charges:
               1
     1  O   -0.536599
     2  H    0.271810
     3  H    0.250571
     4  O   -0.507850
     5  H    0.263314
     6  H    0.258754
 Sum of Mulliken charges =  -0.00000

 Dipole moment (field-independent basis, Debye):
    X=             -1.0224    Y=             -3.3658    Z=             -0.0000  Tot=              3.5177
 Quadrupole moment (field-independent basis, Debye-Ang):
   XX=             -9.2309   YY=             -8.1414   ZZ=            -14.7325
   XY=             -4.2799   XZ=             -0.0000   YZ=             -0.0000

 Normal termination of Gaussian 16 at Sun Aug 28 01:10:22 2022.
