 Gaussian 16, Revision A.03,
 Gaussian 16:  ES64L-G16RevA.03 25-Dec-2016

 ------------------
 #p CCSD(T)/cc-pVTZ
 ------------------

 -----------
 H2O_H2O_460
 -----------
 Symbolic Z-matrix:
 Charge =  0 Multiplicity = 1

                         Standard orientation:
 ---------------------------------------------------------------------
 Center     Atomic      Atomic             Coordinates (Angstroms)
 Number     Number       Type             X           Y           Z
 ---------------------------------------------------------------------
      1          8           0        0.063324    1.289511   -0.000000
      2          1           0        0.061226    0.306912   -0.000000
      3          1           0       -0.865486    1.610162   -0.000000
      4          8           0        0.063324   -1.114130    0.000000
      5          1           0        0.659828   -1.894956    0.000000
      6          1           0       -0.868750   -1.425165    0.000000
 ---------------------------------------------------------------------

 SCF Done:  E(RHF) =  -152.096354852     A.U. after   11 cycles
 E2 =    -0.5323928970D+00 EUMP2 =    -0.15262874774877D+03
 CCSD(T)
 CCSD(T)= -0.15265506055D+03

 The electronic state is 1-A'.
 Alpha  occ. eigenvalues --  -20.60374 -20.48757  -1.39054  -1.27297  -0.76034
 Alpha  occ. eigenvalues --   -0.71283  -0.58230  -0.55557  -0.49344  -0.44208
 Alpha virt. eigenvalues --    0.11121   0.17049   0.20212   0.33265   0.48003
 Alpha virt. eigenvalues --    0.53318   0.60875   0.63013   0.71761   0.72167
 Alpha virt. eigenvalues --    0.74424   0.78857   0.80066   0.83384   0.84063

 Mulliken charges:
               1
     1  O   -0.609141
     2  H    0.308270
     3  H    0.219510
     4  O   -0.412955
     5  H    0.248511
     6  H    0.245805
 Sum of Mulliken charges =  -0.00000

 Dipole moment (field-independent basis, Debye):
    X=             -2.0101    Y=             -4.2490    Z=              0.0000  Tot=              4.7004
 Quadrupole moment (field-independent basis, Debye-Ang):
   XX=             -9.4527   YY=             -9.4591   ZZ=            -14.6587
   XY=             -2.9053   XZ=              0.0000   YZ=             -0.0000

 Normal termination of Gaussian 16 at Fri Aug 26 18:25:04 2022.
