 Gaussian 16, Revision A.03,
 Gaussian 16:  ES64L-G16RevA.03 25-Dec-2016

 ------------------
 #p CCSD(T)/cc-pVTZ
 ------------------

 ------------
 H2O_H2O_1896
 ------------
 Symbolic Z-matrix:
 Charge =  0 Multiplicity = 1

                         Standard orientation:
 ---------------------------------------------------------------------
 Center     Atomic      Atomic             Coordinates (Angstroms)
 Number     Number       Type             X           Y           Z
 ---------------------------------------------------------------------
      1          8           0       -0.023273    1.855183    0.000000
      2          1           0       -0.019929    0.872587    0.000000
      3          1           0        0.905131    2.177011    0.000000
      4          8           0       -0.023273   -1.684831    0.000000
      5          1           0       -0.986335   -1.879805    0.000000
      6          1           0        0.473494   -2.532610    0.000000
 ---------------------------------------------------------------------

 SCF Done:  E(RHF) =  -152.112548354     A.U. after   10 cycles
 E2 =    -0.5264937181D+00 EUMP2 =    -0.15263904207255D+03
 CCSD(T)
 CCSD(T)= -0.15266609865D+03

 The electronic state is 1-A'.
 Alpha  occ. eigenvalues --  -20.57426 -20.53708  -1.34694  -1.31078  -0.72100
 Alpha  occ. eigenvalues --   -0.68528  -0.58410  -0.54524  -0.51828  -0.48234
 Alpha virt. eigenvalues --    0.12218   0.17115   0.19154   0.26787   0.52112
 Alpha virt. eigenvalues --    0.54497   0.56084   0.59211   0.68978   0.72943
 Alpha virt. eigenvalues --    0.75838   0.77992   0.80755   0.83352   0.84272

 Mulliken charges:
               1
     1  O   -0.533153
     2  H    0.269030
     3  H    0.252413
     4  O   -0.508755
     5  H    0.262103
     6  H    0.258361
 Sum of Mulliken charges =  -0.00000

 Dipole moment (field-independent basis, Debye):
    X=              0.7910    Y=             -3.2259    Z=              0.0000  Tot=              3.3214
 Quadrupole moment (field-independent basis, Debye-Ang):
   XX=             -9.3627   YY=             -8.1390   ZZ=            -14.7296
   XY=              4.6187   XZ=              0.0000   YZ=              0.0000

 Normal termination of Gaussian 16 at Sun Aug 28 02:29:36 2022.
