 Gaussian 16, Revision A.03,
 Gaussian 16:  ES64L-G16RevA.03 25-Dec-2016

 ------------------
 #p CCSD(T)/cc-pVTZ
 ------------------

 ------------
 H2O_H2O_2017
 ------------
 Symbolic Z-matrix:
 Charge =  0 Multiplicity = 1

                         Standard orientation:
 ---------------------------------------------------------------------
 Center     Atomic      Atomic             Coordinates (Angstroms)
 Number     Number       Type             X           Y           Z
 ---------------------------------------------------------------------
      1          8           0        0.037492    1.909696   -0.000000
      2          1           0        0.034904    0.927098   -0.000000
      3          1           0       -0.891158    2.230810    0.000000
      4          8           0        0.037492   -1.730771   -0.000000
      5          1           0        0.917614   -2.167684   -0.000000
      6          1           0       -0.661238   -2.421627    0.000000
 ---------------------------------------------------------------------

 SCF Done:  E(RHF) =  -152.112392397     A.U. after   10 cycles
 E2 =    -0.5263860595D+00 EUMP2 =    -0.15263877845608D+03
 CCSD(T)
 CCSD(T)= -0.15266584192D+03

 The electronic state is 1-A'.
 Alpha  occ. eigenvalues --  -20.57336 -20.53689  -1.34589  -1.31050  -0.71972
 Alpha  occ. eigenvalues --   -0.68485  -0.58287  -0.54512  -0.51730  -0.48204
 Alpha virt. eigenvalues --    0.12248   0.17019   0.19149   0.26210   0.51865
 Alpha virt. eigenvalues --    0.54913   0.56416   0.58946   0.69088   0.72373
 Alpha virt. eigenvalues --    0.76285   0.77675   0.80716   0.83452   0.84313

 Mulliken charges:
               1
     1  O   -0.530526
     2  H    0.269210
     3  H    0.250236
     4  O   -0.508887
     5  H    0.262002
     6  H    0.257966
 Sum of Mulliken charges =  -0.00000

 Dipole moment (field-independent basis, Debye):
    X=             -1.2690    Y=             -3.3643    Z=              0.0000  Tot=              3.5957
 Quadrupole moment (field-independent basis, Debye-Ang):
   XX=             -9.1608   YY=             -7.8837   ZZ=            -14.7291
   XY=             -4.3222   XZ=             -0.0000   YZ=              0.0000

 Normal termination of Gaussian 16 at Sun Aug 28 03:39:15 2022.
