 Gaussian 16, Revision A.03,
 Gaussian 16:  ES64L-G16RevA.03 25-Dec-2016

 ------------------
 #p CCSD(T)/cc-pVTZ
 ------------------

 ------------
 H2O_H2O_1721
 ------------
 Symbolic Z-matrix:
 Charge =  0 Multiplicity = 1

                         Standard orientation:
 ---------------------------------------------------------------------
 Center     Atomic      Atomic             Coordinates (Angstroms)
 Number     Number       Type             X           Y           Z
 ---------------------------------------------------------------------
      1          8           0       -0.023284    1.785377    0.000000
      2          1           0       -0.019803    0.802781    0.000000
      3          1           0        0.905074    2.107334    0.000000
      4          8           0       -0.023284   -1.615031    0.000000
      5          1           0       -0.986320   -1.810140    0.000000
      6          1           0        0.473601   -2.462740    0.000000
 ---------------------------------------------------------------------

 SCF Done:  E(RHF) =  -152.113060863     A.U. after   10 cycles
 E2 =    -0.5267092466D+00 EUMP2 =    -0.15263977010976D+03
 CCSD(T)
 CCSD(T)= -0.15266680670D+03

 The electronic state is 1-A'.
 Alpha  occ. eigenvalues --  -20.57619 -20.53479  -1.34897  -1.30872  -0.72306
 Alpha  occ. eigenvalues --   -0.68363  -0.58663  -0.54284  -0.52028  -0.48030
 Alpha virt. eigenvalues --    0.12193   0.17339   0.19101   0.27699   0.51480
 Alpha virt. eigenvalues --    0.54321   0.55994   0.59682   0.68982   0.73202
 Alpha virt. eigenvalues --    0.75158   0.77582   0.81016   0.83189   0.84369

 Mulliken charges:
               1
     1  O   -0.537256
     2  H    0.271349
     3  H    0.251980
     4  O   -0.507073
     5  H    0.263036
     6  H    0.257963
 Sum of Mulliken charges =  -0.00000

 Dipole moment (field-independent basis, Debye):
    X=              0.7899    Y=             -3.2705    Z=              0.0000  Tot=              3.3645
 Quadrupole moment (field-independent basis, Debye-Ang):
   XX=             -9.3625   YY=             -8.2468   ZZ=            -14.7315
   XY=              4.4486   XZ=              0.0000   YZ=              0.0000

 Normal termination of Gaussian 16 at Sun Aug 28 00:57:00 2022.
