 Gaussian 16, Revision A.03,
 Gaussian 16:  ES64L-G16RevA.03 25-Dec-2016

 ------------------
 #p CCSD(T)/cc-pVTZ
 ------------------

 ------------
 H2O_H2O_2356
 ------------
 Symbolic Z-matrix:
 Charge =  0 Multiplicity = 1

                         Standard orientation:
 ---------------------------------------------------------------------
 Center     Atomic      Atomic             Coordinates (Angstroms)
 Number     Number       Type             X           Y           Z
 ---------------------------------------------------------------------
      1          8           0        0.076766    2.040750    0.000000
      2          1           0        0.076065    1.058149    0.000000
      3          1           0       -0.852499    2.360080    0.000000
      4          8           0        0.076766   -1.877557   -0.000000
      5          1           0        0.452143   -2.785631   -0.000000
      6          1           0       -0.903966   -1.938149   -0.000000
 ---------------------------------------------------------------------

 SCF Done:  E(RHF) =  -152.110122020     A.U. after   10 cycles
 E2 =    -0.5262761257D+00 EUMP2 =    -0.15263639814605D+03
 CCSD(T)
 CCSD(T)= -0.15266351459D+03

 The electronic state is 1-A'.
 Alpha  occ. eigenvalues --  -20.57042 -20.54383  -1.34314  -1.31707  -0.71739
 Alpha  occ. eigenvalues --   -0.69083  -0.57867  -0.55168  -0.51436  -0.48837
 Alpha virt. eigenvalues --    0.11945   0.16262   0.19505   0.24416   0.53014
 Alpha virt. eigenvalues --    0.55704   0.56161   0.58323   0.68765   0.71355
 Alpha virt. eigenvalues --    0.77121   0.79057   0.80067   0.81590   0.83328

 Mulliken charges:
               1
     1  O   -0.518932
     2  H    0.265692
     3  H    0.247289
     4  O   -0.506614
     5  H    0.259595
     6  H    0.252970
 Sum of Mulliken charges =   0.00000

 Dipole moment (field-independent basis, Debye):
    X=             -2.6027    Y=             -3.0043    Z=             -0.0000  Tot=              3.9749
 Quadrupole moment (field-independent basis, Debye-Ang):
   XX=             -9.9658   YY=             -8.0990   ZZ=            -14.7200
   XY=             -3.2191   XZ=             -0.0000   YZ=              0.0000

 Normal termination of Gaussian 16 at Sun Aug 28 06:38:47 2022.
