 Gaussian 16, Revision A.03,
 Gaussian 16:  ES64L-G16RevA.03 25-Dec-2016

 ------------------
 #p CCSD(T)/cc-pVTZ
 ------------------

 -----------
 H2O_H2O_771
 -----------
 Symbolic Z-matrix:
 Charge =  0 Multiplicity = 1

                         Standard orientation:
 ---------------------------------------------------------------------
 Center     Atomic      Atomic             Coordinates (Angstroms)
 Number     Number       Type             X           Y           Z
 ---------------------------------------------------------------------
      1          8           0       -0.023371    1.406423    0.000000
      2          1           0       -0.018892    0.423831    0.000000
      3          1           0        0.904660    1.729323    0.000000
      4          8           0       -0.023371   -1.236124    0.000000
      5          1           0       -0.986208   -1.432212    0.000000
      6          1           0        0.474375   -2.083328    0.000000
 ---------------------------------------------------------------------

 SCF Done:  E(RHF) =  -152.109330313     A.U. after   10 cycles
 E2 =    -0.5298383933D+00 EUMP2 =    -0.15263916870619D+03
 CCSD(T)
 CCSD(T)= -0.15266585241D+03

 The electronic state is 1-A'.
 Alpha  occ. eigenvalues --  -20.59324 -20.50728  -1.37190  -1.28677  -0.74645
 Alpha  occ. eigenvalues --   -0.68469  -0.59838  -0.54086  -0.51329  -0.45747
 Alpha virt. eigenvalues --    0.11758   0.18316   0.19013   0.33190   0.48110
 Alpha virt. eigenvalues --    0.54244   0.57316   0.65538   0.68201   0.72344
 Alpha virt. eigenvalues --    0.73418   0.77113   0.80873   0.83407   0.84142

 Mulliken charges:
               1
     1  O   -0.591292
     2  H    0.299895
     3  H    0.243642
     4  O   -0.457054
     5  H    0.261818
     6  H    0.242991
 Sum of Mulliken charges =  -0.00000

 Dipole moment (field-independent basis, Debye):
    X=              0.7716    Y=             -3.7920    Z=              0.0000  Tot=              3.8697
 Quadrupole moment (field-independent basis, Debye-Ang):
   XX=             -9.3382   YY=             -9.0543   ZZ=            -14.7025
   XY=              3.5055   XZ=              0.0000   YZ=              0.0000

 Normal termination of Gaussian 16 at Fri Aug 26 20:24:34 2022.
