 Gaussian 16, Revision A.03,
 Gaussian 16:  ES64L-G16RevA.03 25-Dec-2016

 ------------------
 #p CCSD(T)/cc-pVTZ
 ------------------

 ------------
 H2O_H2O_1722
 ------------
 Symbolic Z-matrix:
 Charge =  0 Multiplicity = 1

                         Standard orientation:
 ---------------------------------------------------------------------
 Center     Atomic      Atomic             Coordinates (Angstroms)
 Number     Number       Type             X           Y           Z
 ---------------------------------------------------------------------
      1          8           0       -0.019938    1.783596    0.000000
      2          1           0       -0.016290    0.801002    0.000000
      3          1           0        0.908365    2.105712    0.000000
      4          8           0       -0.019938   -1.616530    0.000000
      5          1           0       -0.993651   -1.748401    0.000000
      6          1           0        0.420590   -2.494847    0.000000
 ---------------------------------------------------------------------

 SCF Done:  E(RHF) =  -152.112901838     A.U. after   10 cycles
 E2 =    -0.5267091651D+00 EUMP2 =    -0.15263961100311D+03
 CCSD(T)
 CCSD(T)= -0.15266665147D+03

 The electronic state is 1-A'.
 Alpha  occ. eigenvalues --  -20.57605 -20.53554  -1.34890  -1.30945  -0.72316
 Alpha  occ. eigenvalues --   -0.68425  -0.58646  -0.54357  -0.52017  -0.48102
 Alpha virt. eigenvalues --    0.12190   0.17298   0.19142   0.27682   0.51588
 Alpha virt. eigenvalues --    0.54329   0.55930   0.59758   0.68940   0.73452
 Alpha virt. eigenvalues --    0.75142   0.77701   0.80964   0.83158   0.84295

 Mulliken charges:
               1
     1  O   -0.537140
     2  H    0.270864
     3  H    0.252759
     4  O   -0.506615
     5  H    0.262752
     6  H    0.257379
 Sum of Mulliken charges =  -0.00000

 Dipole moment (field-independent basis, Debye):
    X=              0.6789    Y=             -3.2060    Z=              0.0000  Tot=              3.2771
 Quadrupole moment (field-independent basis, Debye-Ang):
   XX=             -9.4481   YY=             -8.3064   ZZ=            -14.7306
   XY=              4.5546   XZ=              0.0000   YZ=              0.0000

 Normal termination of Gaussian 16 at Sun Aug 28 00:57:22 2022.
