 Gaussian 16, Revision A.03,
 Gaussian 16:  ES64L-G16RevA.03 25-Dec-2016

 ------------------
 #p CCSD(T)/cc-pVTZ
 ------------------

 ------------
 H2O_H2O_4055
 ------------
 Symbolic Z-matrix:
 Charge =  0 Multiplicity = 1

                         Standard orientation:
 ---------------------------------------------------------------------
 Center     Atomic      Atomic             Coordinates (Angstroms)
 Number     Number       Type             X           Y           Z
 ---------------------------------------------------------------------
      1          8           0        0.079846    2.716602    0.000000
      2          1           0        0.079425    1.734001    0.000000
      3          1           0       -0.849510    3.035668    0.000000
      4          8           0        0.079846   -2.557530    0.000000
      5          1           0        0.395294   -3.488120    0.000000
      6          1           0       -0.902750   -2.554129    0.000000
 ---------------------------------------------------------------------

 SCF Done:  E(RHF) =  -152.108156507     A.U. after   10 cycles
 E2 =    -0.5258644829D+00 EUMP2 =    -0.15263402099036D+03
 CCSD(T)
 CCSD(T)= -0.15266121990D+03

 The electronic state is 1-A'.
 Alpha  occ. eigenvalues --  -20.56292 -20.55052  -1.33592  -1.32358  -0.71004
 Alpha  occ. eigenvalues --   -0.69752  -0.57071  -0.55819  -0.50706  -0.49476
 Alpha virt. eigenvalues --    0.12771   0.15042   0.19296   0.21521   0.53243
 Alpha virt. eigenvalues --    0.54990   0.56529   0.57855   0.66719   0.68891
 Alpha virt. eigenvalues --    0.78189   0.79095   0.79385   0.80803   0.82605

 Mulliken charges:
               1
     1  O   -0.511856
     2  H    0.259784
     3  H    0.251768
     4  O   -0.512813
     5  H    0.259173
     6  H    0.253944
 Sum of Mulliken charges =  -0.00000

 Dipole moment (field-independent basis, Debye):
    X=             -2.7342    Y=             -2.8046    Z=             -0.0000  Tot=              3.9168
 Quadrupole moment (field-independent basis, Debye-Ang):
   XX=            -10.0954   YY=             -7.6594   ZZ=            -14.7137
   XY=             -3.3730   XZ=             -0.0000   YZ=             -0.0000

 Normal termination of Gaussian 16 at Sat Aug 27 23:01:14 2022.
