 Gaussian 16, Revision A.03,
 Gaussian 16:  ES64L-G16RevA.03 25-Dec-2016

 ------------------
 #p CCSD(T)/cc-pVTZ
 ------------------

 ------------
 H2O_H2O_3537
 ------------
 Symbolic Z-matrix:
 Charge =  0 Multiplicity = 1

                         Standard orientation:
 ---------------------------------------------------------------------
 Center     Atomic      Atomic             Coordinates (Angstroms)
 Number     Number       Type             X           Y           Z
 ---------------------------------------------------------------------
      1          8           0        0.055981    2.517974   -0.000000
      2          1           0        0.054689    1.535374   -0.000000
      3          1           0       -0.873092    2.837862    0.000000
      4          8           0        0.055981   -2.339055   -0.000000
      5          1           0        0.749871   -3.034772   -0.000000
      6          1           0       -0.827169   -2.769814    0.000000
 ---------------------------------------------------------------------

 SCF Done:  E(RHF) =  -152.109055723     A.U. after   10 cycles
 E2 =    -0.5258656843D+00 EUMP2 =    -0.15263492140716D+03
 CCSD(T)
 CCSD(T)= -0.15266209216D+03

 The electronic state is 1-A'.
 Alpha  occ. eigenvalues --  -20.56432 -20.54687  -1.33723  -1.32000  -0.71127
 Alpha  occ. eigenvalues --   -0.69395  -0.57237  -0.55479  -0.50846  -0.49128
 Alpha virt. eigenvalues --    0.12754   0.15487   0.19553   0.21745   0.53418
 Alpha virt. eigenvalues --    0.55058   0.56473   0.58025   0.66971   0.69312
 Alpha virt. eigenvalues --    0.78057   0.79010   0.79630   0.79712   0.83008

 Mulliken charges:
               1
     1  O   -0.515854
     2  H    0.262673
     3  H    0.251978
     4  O   -0.515060
     5  H    0.259803
     6  H    0.256460
 Sum of Mulliken charges =  -0.00000

 Dipole moment (field-independent basis, Debye):
    X=             -1.9134    Y=             -3.1821    Z=              0.0000  Tot=              3.7131
 Quadrupole moment (field-independent basis, Debye-Ang):
   XX=             -9.2862   YY=             -6.9042   ZZ=            -14.7171
   XY=             -4.6302   XZ=             -0.0000   YZ=              0.0000

 CCSD(T)=-152.6620922\RMSD=7.033e-09\PG=CS [SG(H4O2)]\\@
 Normal termination of Gaussian 16 at Fri Aug 26 22:15:59 2022.
