 Gaussian 16, Revision A.03,
 Gaussian 16:  ES64L-G16RevA.03 25-Dec-2016

 ------------------
 #p CCSD(T)/cc-pVTZ
 ------------------

 ------------
 H2O_H2O_4684
 ------------
 Symbolic Z-matrix:
 Charge =  0 Multiplicity = 1

                         Standard orientation:
 ---------------------------------------------------------------------
 Center     Atomic      Atomic             Coordinates (Angstroms)
 Number     Number       Type             X           Y           Z
 ---------------------------------------------------------------------
      1          8           0        0.066742    2.973538    0.000000
      2          1           0        0.065972    1.990937    0.000000
      3          1           0       -0.862501    3.292933   -0.000000
      4          8           0        0.066742   -2.800405    0.000000
      5          1           0        0.612005   -3.617836    0.000000
      6          1           0       -0.883343   -3.051097   -0.000000
 ---------------------------------------------------------------------

 SCF Done:  E(RHF) =  -152.108154635     A.U. after   10 cycles
 E2 =    -0.5258246545D+00 EUMP2 =    -0.15263397928947D+03
 CCSD(T)
 CCSD(T)= -0.15266118275D+03

 The electronic state is 1-A'.
 Alpha  occ. eigenvalues --  -20.56161 -20.55046  -1.33463  -1.32351  -0.70870
 Alpha  occ. eigenvalues --   -0.69751  -0.56944  -0.55816  -0.50579  -0.49471
 Alpha virt. eigenvalues --    0.13378   0.14802   0.19626   0.20981   0.53610
 Alpha virt. eigenvalues --    0.54826   0.56663   0.57751   0.66951   0.68599
 Alpha virt. eigenvalues --    0.78307   0.79390   0.79616   0.80511   0.82389

 Mulliken charges:
               1
     1  O   -0.512444
     2  H    0.259607
     3  H    0.252766
     4  O   -0.513307
     5  H    0.258236
     6  H    0.255142
 Sum of Mulliken charges =   0.00000

 Dipole moment (field-independent basis, Debye):
    X=             -2.2897    Y=             -3.0346    Z=             -0.0000  Tot=              3.8016
 Quadrupole moment (field-independent basis, Debye-Ang):
   XX=             -9.5598   YY=             -6.5413   ZZ=            -14.7139
   XY=             -4.5005   XZ=             -0.0000   YZ=             -0.0000

 Normal termination of Gaussian 16 at Sun Aug 28 05:04:11 2022.
