 Gaussian 16, Revision A.03,
 Gaussian 16:  ES64L-G16RevA.03 25-Dec-2016

 ------------------
 #p CCSD(T)/cc-pVTZ
 ------------------

 ------------
 H2O_H2O_1219
 ------------
 Symbolic Z-matrix:
 Charge =  0 Multiplicity = 1

                         Standard orientation:
 ---------------------------------------------------------------------
 Center     Atomic      Atomic             Coordinates (Angstroms)
 Number     Number       Type             X           Y           Z
 ---------------------------------------------------------------------
      1          8           0        0.030296    1.588757    0.000000
      2          1           0        0.026747    0.606162    0.000000
      3          1           0       -0.898040    1.910778    0.000000
      4          8           0        0.030296   -1.413223   -0.000000
      5          1           0        0.959604   -1.732428   -0.000000
      6          1           0       -0.573040   -2.188783   -0.000000
 ---------------------------------------------------------------------

 SCF Done:  E(RHF) =  -152.114078938     A.U. after   10 cycles
 E2 =    -0.5278045475D+00 EUMP2 =    -0.15264188348584D+03
 CCSD(T)
 CCSD(T)= -0.15266881295D+03

 The electronic state is 1-A'.
 Alpha  occ. eigenvalues --  -20.58377 -20.52327  -1.35761  -1.29883  -0.73105
 Alpha  occ. eigenvalues --   -0.67908  -0.59545  -0.53068  -0.52859  -0.47024
 Alpha virt. eigenvalues --    0.12030   0.18145   0.18755   0.30756   0.49426
 Alpha virt. eigenvalues --    0.54576   0.55865   0.61448   0.68557   0.72553
 Alpha virt. eigenvalues --    0.73255   0.77131   0.82076   0.82611   0.84674

 Mulliken charges:
               1
     1  O   -0.557343
     2  H    0.286326
     3  H    0.247372
     4  O   -0.497020
     5  H    0.265508
     6  H    0.255157
 Sum of Mulliken charges =  -0.00000

 Dipole moment (field-independent basis, Debye):
    X=             -1.0123    Y=             -3.5709    Z=             -0.0000  Tot=              3.7116
 Quadrupole moment (field-independent basis, Debye-Ang):
   XX=             -9.2258   YY=             -8.5677   ZZ=            -14.7318
   XY=             -3.8132   XZ=             -0.0000   YZ=              0.0000

 Normal termination of Gaussian 16 at Fri Aug 26 23:12:07 2022.
