 Gaussian 16, Revision A.03,
 Gaussian 16:  ES64L-G16RevA.03 25-Dec-2016

 ------------------
 #p CCSD(T)/cc-pVTZ
 ------------------

 -----------
 H2O_H2O_120
 -----------
 Symbolic Z-matrix:
 Charge =  0 Multiplicity = 1

                         Standard orientation:
 ---------------------------------------------------------------------
 Center     Atomic      Atomic             Coordinates (Angstroms)
 Number     Number       Type             X           Y           Z
 ---------------------------------------------------------------------
      1          8           0        0.026904    1.148664   -0.000000
      2          1           0        0.021607    0.166077   -0.000000
      3          1           0       -0.900857    1.472336   -0.000000
      4          8           0        0.026904   -0.975592    0.000000
      5          1           0        0.974640   -1.235020    0.000000
      6          1           0       -0.525862   -1.787967    0.000000
 ---------------------------------------------------------------------

 SCF Done:  E(RHF) =  -152.051463881     A.U. after   11 cycles
 E2 =    -0.5354176602D+00 EUMP2 =    -0.15258688154103D+03
 CCSD(T)
 CCSD(T)= -0.15261251837D+03

 The electronic state is 1-A'.
 Alpha  occ. eigenvalues --  -20.61707 -20.44876  -1.42987  -1.24870  -0.80295
 Alpha  occ. eigenvalues --   -0.74782  -0.58079  -0.55708  -0.45042  -0.41475
 Alpha virt. eigenvalues --    0.10619   0.16937   0.20818   0.33529   0.46966
 Alpha virt. eigenvalues --    0.52074   0.60944   0.68516   0.70666   0.71027
 Alpha virt. eigenvalues --    0.76984   0.78146   0.80740   0.84109   0.86819

 Mulliken charges:
               1
     1  O   -0.672699
     2  H    0.286155
     3  H    0.217799
     4  O   -0.328502
     5  H    0.263380
     6  H    0.233866
 Sum of Mulliken charges =  -0.00000

 Dipole moment (field-independent basis, Debye):
    X=             -0.8193    Y=             -4.8300    Z=              0.0000  Tot=              4.8990
 Quadrupole moment (field-independent basis, Debye-Ang):
   XX=             -9.1924   YY=            -10.0735   ZZ=            -14.5695
   XY=             -2.7746   XZ=              0.0000   YZ=             -0.0000

 Normal termination of Gaussian 16 at Fri Aug 26 15:59:33 2022.
