 Gaussian 16, Revision A.03,
 Gaussian 16:  ES64L-G16RevA.03 25-Dec-2016

 ------------------
 #p CCSD(T)/cc-pVTZ
 ------------------

 ------------
 H2O_H2O_1005
 ------------
 Symbolic Z-matrix:
 Charge =  0 Multiplicity = 1

                         Standard orientation:
 ---------------------------------------------------------------------
 Center     Atomic      Atomic             Coordinates (Angstroms)
 Number     Number       Type             X           Y           Z
 ---------------------------------------------------------------------
      1          8           0        0.079876   -1.499997    0.000000
      2          1           0        0.079093   -0.517396    0.000000
      3          1           0       -0.849363   -1.819404    0.000000
      4          8           0        0.079876    1.340984    0.000000
      5          1           0        0.394982    2.271689    0.000000
      6          1           0       -0.902719    1.337222    0.000000
 ---------------------------------------------------------------------

 SCF Done:  E(RHF) =  -152.110023281     A.U. after   10 cycles
 E2 =    -0.5290925367D+00 EUMP2 =    -0.15263911581770D+03
 CCSD(T)
 CCSD(T)= -0.15266600969D+03

 The electronic state is 1-A'.
 Alpha  occ. eigenvalues --  -20.58760 -20.52540  -1.36336  -1.30139  -0.74037
 Alpha  occ. eigenvalues --   -0.68166  -0.59615  -0.53316  -0.53242  -0.47220
 Alpha virt. eigenvalues --    0.11560   0.16826   0.19958   0.31191   0.48364
 Alpha virt. eigenvalues --    0.54213   0.58618   0.59835   0.69328   0.72447
 Alpha virt. eigenvalues --    0.74523   0.77118   0.81177   0.82272   0.83826

 Mulliken charges:
               1
     1  O   -0.549550
     2  H    0.289575
     3  H    0.232857
     4  O   -0.456804
     5  H    0.240034
     6  H    0.243888
 Sum of Mulliken charges =  -0.00000

 Dipole moment (field-independent basis, Debye):
    X=             -2.6290    Y=              3.3423    Z=              0.0000  Tot=              4.2524
 Quadrupole moment (field-independent basis, Debye-Ang):
   XX=            -10.1396   YY=             -8.8647   ZZ=            -14.7072
   XY=              2.7739   XZ=              0.0000   YZ=              0.0000

 CCSD(T)=-152.6660097\RMSD=7.937e-09\PG=CS [SG(H4O2)]\\@
 Normal termination of Gaussian 16 at Fri Aug 26 21:51:36 2022.
