 Gaussian 16, Revision A.03,
 Gaussian 16:  ES64L-G16RevA.03 25-Dec-2016

 ------------------
 #p CCSD(T)/cc-pVTZ
 ------------------

 ------------
 H2O_H2O_3214
 ------------
 Symbolic Z-matrix:
 Charge =  0 Multiplicity = 1

                         Standard orientation:
 ---------------------------------------------------------------------
 Center     Atomic      Atomic             Coordinates (Angstroms)
 Number     Number       Type             X           Y           Z
 ---------------------------------------------------------------------
      1          8           0        0.048580    2.389140   -0.000000
      2          1           0        0.046942    1.406540   -0.000000
      3          1           0       -0.880380    2.709356   -0.000000
      4          8           0        0.048580   -2.208749    0.000000
      5          1           0        0.827133   -2.808218    0.000000
      6          1           0       -0.770980   -2.750808    0.000000
 ---------------------------------------------------------------------

 SCF Done:  E(RHF) =  -152.109553670     A.U. after   10 cycles
 E2 =    -0.5258996746D+00 EUMP2 =    -0.15263545334426D+03
 CCSD(T)
 CCSD(T)= -0.15266260679D+03

 The electronic state is 1-A'.
 Alpha  occ. eigenvalues --  -20.56554 -20.54532  -1.33838  -1.31850  -0.71239
 Alpha  occ. eigenvalues --   -0.69244  -0.57370  -0.55335  -0.50965  -0.48983
 Alpha virt. eigenvalues --    0.12607   0.15762   0.19506   0.22244   0.53293
 Alpha virt. eigenvalues --    0.55280   0.56407   0.58311   0.67632   0.69356
 Alpha virt. eigenvalues --    0.77940   0.79079   0.79329   0.79849   0.83158

 Mulliken charges:
               1
     1  O   -0.517876
     2  H    0.263775
     3  H    0.251937
     4  O   -0.514877
     5  H    0.259996
     6  H    0.257044
 Sum of Mulliken charges =  -0.00000

 Dipole moment (field-independent basis, Debye):
    X=             -1.6581    Y=             -3.2313    Z=              0.0000  Tot=              3.6319
 Quadrupole moment (field-independent basis, Debye-Ang):
   XX=             -9.1827   YY=             -7.0459   ZZ=            -14.7188
   XY=             -4.7791   XZ=              0.0000   YZ=             -0.0000

 CCSD(T)=-152.6626068\RMSD=6.925e-09\PG=CS [SG(H4O2)]\\@
 Normal termination of Gaussian 16 at Fri Aug 26 20:26:21 2022.
