 Gaussian 16, Revision A.03,
 Gaussian 16:  ES64L-G16RevA.03 25-Dec-2016

 ------------------
 #p CCSD(T)/cc-pVTZ
 ------------------

 -----------
 H2O_H2O_550
 -----------
 Symbolic Z-matrix:
 Charge =  0 Multiplicity = 1

                         Standard orientation:
 ---------------------------------------------------------------------
 Center     Atomic      Atomic             Coordinates (Angstroms)
 Number     Number       Type             X           Y           Z
 ---------------------------------------------------------------------
      1          8           0        0.092949   -1.306254    0.000000
      2          1           0        0.092949   -0.323653    0.000000
      3          1           0       -0.836544   -1.624921    0.000000
      4          8           0        0.092949    1.173467    0.000000
      5          1           0        0.092949    2.156069    0.000000
      6          1           0       -0.836544    0.854800    0.000000
 ---------------------------------------------------------------------

 SCF Done:  E(RHF) =  -152.090407379     A.U. after   11 cycles
 E2 =    -0.5331914447D+00 EUMP2 =    -0.15262359882333D+03
 CCSD(T)
 CCSD(T)= -0.15265018024D+03

 The electronic state is 1-A'.
 Alpha  occ. eigenvalues --  -20.59821 -20.51750  -1.38622  -1.29736  -0.77962
 Alpha  occ. eigenvalues --   -0.67758  -0.59720  -0.54860  -0.52506  -0.46710
 Alpha virt. eigenvalues --    0.11283   0.16336   0.21167   0.32119   0.48422
 Alpha virt. eigenvalues --    0.51718   0.58955   0.65107   0.70271   0.71037
 Alpha virt. eigenvalues --    0.73796   0.77678   0.78750   0.82463   0.83376

 Mulliken charges:
               1
     1  O   -0.555921
     2  H    0.283388
     3  H    0.215082
     4  O   -0.400869
     5  H    0.231420
     6  H    0.226900
 Sum of Mulliken charges =  -0.00000

 Dipole moment (field-independent basis, Debye):
    X=             -2.9984    Y=              3.1849    Z=              0.0000  Tot=              4.3743
 Quadrupole moment (field-independent basis, Debye-Ang):
   XX=            -10.8812   YY=             -9.4695   ZZ=            -14.6344
   XY=              2.0175   XZ=              0.0000   YZ=              0.0000

 Normal termination of Gaussian 16 at Fri Aug 26 18:59:35 2022.
