 Gaussian 16, Revision A.03,
 Gaussian 16:  ES64L-G16RevA.03 25-Dec-2016

 ------------------
 #p CCSD(T)/cc-pVTZ
 ------------------

 -----------
 H2O_H2O_310
 -----------
 Symbolic Z-matrix:
 Charge =  0 Multiplicity = 1

                         Standard orientation:
 ---------------------------------------------------------------------
 Center     Atomic      Atomic             Coordinates (Angstroms)
 Number     Number       Type             X           Y           Z
 ---------------------------------------------------------------------
      1          8           0        0.063334    1.229673   -0.000000
      2          1           0        0.061125    0.247074   -0.000000
      3          1           0       -0.865441    1.550427   -0.000000
      4          8           0        0.063334   -1.054306    0.000000
      5          1           0        0.659751   -1.835199    0.000000
      6          1           0       -0.868776   -1.365236    0.000000
 ---------------------------------------------------------------------

 SCF Done:  E(RHF) =  -152.083062491     A.U. after   11 cycles
 E2 =    -0.5338309048D+00 EUMP2 =    -0.15261689339545D+03
 CCSD(T)
 CCSD(T)= -0.15264294448D+03

 The electronic state is 1-A'.
 Alpha  occ. eigenvalues --  -20.60960 -20.47397  -1.40427  -1.26417  -0.77271
 Alpha  occ. eigenvalues --   -0.73053  -0.57106  -0.56520  -0.47921  -0.43218
 Alpha virt. eigenvalues --    0.10862   0.16765   0.20597   0.33124   0.48088
 Alpha virt. eigenvalues --    0.52791   0.61257   0.63808   0.71859   0.71912
 Alpha virt. eigenvalues --    0.76890   0.79376   0.79983   0.83314   0.84185

 Mulliken charges:
               1
     1  O   -0.625190
     2  H    0.302953
     3  H    0.212018
     4  O   -0.378928
     5  H    0.245024
     6  H    0.244122
 Sum of Mulliken charges =  -0.00000

 Dipole moment (field-independent basis, Debye):
    X=             -1.9784    Y=             -4.4833    Z=              0.0000  Tot=              4.9004
 Quadrupole moment (field-independent basis, Debye-Ang):
   XX=             -9.4412   YY=             -9.7053   ZZ=            -14.6255
   XY=             -2.8105   XZ=              0.0000   YZ=             -0.0000

 Normal termination of Gaussian 16 at Fri Aug 26 17:20:32 2022.
