 Gaussian 16, Revision A.03,
 Gaussian 16:  ES64L-G16RevA.03 25-Dec-2016

 ------------------
 #p CCSD(T)/cc-pVTZ
 ------------------

 ------------
 H2O_H2O_2015
 ------------
 Symbolic Z-matrix:
 Charge =  0 Multiplicity = 1

                         Standard orientation:
 ---------------------------------------------------------------------
 Center     Atomic      Atomic             Coordinates (Angstroms)
 Number     Number       Type             X           Y           Z
 ---------------------------------------------------------------------
      1          8           0        0.044898    1.910474   -0.000000
      2          1           0        0.042656    0.927875   -0.000000
      3          1           0       -0.883865    2.231261   -0.000000
      4          8           0        0.044898   -1.730114    0.000000
      5          1           0        0.860654   -2.277882    0.000000
      6          1           0       -0.737820   -2.324133    0.000000
 ---------------------------------------------------------------------

 SCF Done:  E(RHF) =  -152.112343154     A.U. after   10 cycles
 E2 =    -0.5264025296D+00 EUMP2 =    -0.15263874568343D+03
 CCSD(T)
 CCSD(T)= -0.15266580950D+03

 The electronic state is 1-A'.
 Alpha  occ. eigenvalues --  -20.57346 -20.53673  -1.34597  -1.31034  -0.71978
 Alpha  occ. eigenvalues --   -0.68465  -0.58292  -0.54493  -0.51738  -0.48186
 Alpha virt. eigenvalues --    0.12228   0.16998   0.19160   0.26201   0.51646
 Alpha virt. eigenvalues --    0.55024   0.56426   0.58986   0.69073   0.72326
 Alpha virt. eigenvalues --    0.76286   0.77561   0.80730   0.83442   0.84290

 Mulliken charges:
               1
     1  O   -0.529776
     2  H    0.269468
     3  H    0.249130
     4  O   -0.508337
     5  H    0.262077
     6  H    0.257438
 Sum of Mulliken charges =  -0.00000

 Dipole moment (field-independent basis, Debye):
    X=             -1.5184    Y=             -3.3920    Z=              0.0000  Tot=              3.7164
 Quadrupole moment (field-independent basis, Debye-Ang):
   XX=             -9.1601   YY=             -7.8564   ZZ=            -14.7290
   XY=             -4.1338   XZ=              0.0000   YZ=             -0.0000

 Normal termination of Gaussian 16 at Sun Aug 28 03:38:32 2022.
