 Gaussian 16, Revision A.03,
 Gaussian 16:  ES64L-G16RevA.03 25-Dec-2016

 ------------------
 #p CCSD(T)/cc-pVTZ
 ------------------

 ------------
 H2O_H2O_1370
 ------------
 Symbolic Z-matrix:
 Charge =  0 Multiplicity = 1

                         Standard orientation:
 ---------------------------------------------------------------------
 Center     Atomic      Atomic             Coordinates (Angstroms)
 Number     Number       Type             X           Y           Z
 ---------------------------------------------------------------------
      1          8           0        0.026755    1.647301    0.000000
      2          1           0        0.023151    0.664706    0.000000
      3          1           0       -0.901562    1.969376   -0.000000
      4          8           0        0.026755   -1.474137    0.000000
      5          1           0        0.974937   -1.731933    0.000000
      6          1           0       -0.524611   -2.287464   -0.000000
 ---------------------------------------------------------------------

 SCF Done:  E(RHF) =  -152.113949565     A.U. after   10 cycles
 E2 =    -0.5273800404D+00 EUMP2 =    -0.15264132960512D+03
 CCSD(T)
 CCSD(T)= -0.15266830319D+03

 The electronic state is 1-A'.
 Alpha  occ. eigenvalues --  -20.58109 -20.52772  -1.35444  -1.30257  -0.72831
 Alpha  occ. eigenvalues --   -0.67999  -0.59279  -0.53538  -0.52557  -0.47409
 Alpha virt. eigenvalues --    0.12103   0.17872   0.18895   0.29793   0.50062
 Alpha virt. eigenvalues --    0.54391   0.55854   0.60901   0.68741   0.72971
 Alpha virt. eigenvalues --    0.73756   0.77055   0.81717   0.82782   0.84558

 Mulliken charges:
               1
     1  O   -0.549743
     2  H    0.280298
     3  H    0.249557
     4  O   -0.500466
     5  H    0.264845
     6  H    0.255508
 Sum of Mulliken charges =  -0.00000

 Dipole moment (field-independent basis, Debye):
    X=             -0.8996    Y=             -3.4499    Z=              0.0000  Tot=              3.5652
 Quadrupole moment (field-independent basis, Debye-Ang):
   XX=             -9.2868   YY=             -8.4583   ZZ=            -14.7331
   XY=             -4.0234   XZ=              0.0000   YZ=             -0.0000

 Normal termination of Gaussian 16 at Sat Aug 27 00:10:22 2022.
