 Gaussian 16, Revision A.03,
 Gaussian 16:  ES64L-G16RevA.03 25-Dec-2016

 ------------------
 #p CCSD(T)/cc-pVTZ
 ------------------

 -----------
 H2O_H2O_256
 -----------
 Symbolic Z-matrix:
 Charge =  0 Multiplicity = 1

                         Standard orientation:
 ---------------------------------------------------------------------
 Center     Atomic      Atomic             Coordinates (Angstroms)
 Number     Number       Type             X           Y           Z
 ---------------------------------------------------------------------
      1          8           0        0.076810   -1.203068    0.000000
      2          1           0        0.075584   -0.220467    0.000000
      3          1           0       -0.852285   -1.522893    0.000000
      4          8           0        0.076810    1.039956    0.000000
      5          1           0        0.451702    1.948230    0.000000
      6          1           0       -0.903954    1.100025    0.000000
 ---------------------------------------------------------------------

 SCF Done:  E(RHF) =  -152.072978271     A.U. after   11 cycles
 E2 =    -0.5351673907D+00 EUMP2 =    -0.15260814566171D+03
 CCSD(T)
 CCSD(T)= -0.15263412013D+03

 The electronic state is 1-A'.
 Alpha  occ. eigenvalues --  -20.61086 -20.47718  -1.41121  -1.26732  -0.79260
 Alpha  occ. eigenvalues --   -0.71841  -0.57110  -0.56815  -0.48297  -0.43534
 Alpha virt. eigenvalues --    0.10785   0.16344   0.20992   0.32626   0.48999
 Alpha virt. eigenvalues --    0.52216   0.59882   0.64682   0.71713   0.72499
 Alpha virt. eigenvalues --    0.77187   0.77478   0.80226   0.84499   0.84991

 Mulliken charges:
               1
     1  O   -0.613338
     2  H    0.288350
     3  H    0.204822
     4  O   -0.350398
     5  H    0.232606
     6  H    0.237958
 Sum of Mulliken charges =  -0.00000

 Dipole moment (field-independent basis, Debye):
    X=             -2.3946    Y=              4.2794    Z=              0.0000  Tot=              4.9038
 Quadrupole moment (field-independent basis, Debye-Ang):
   XX=             -9.9430   YY=             -9.7058   ZZ=            -14.5960
   XY=              2.5897   XZ=              0.0000   YZ=              0.0000

 Normal termination of Gaussian 16 at Fri Aug 26 16:57:08 2022.
