 Gaussian 16, Revision A.03,
 Gaussian 16:  ES64L-G16RevA.03 25-Dec-2016

 ------------------
 #p CCSD(T)/cc-pVTZ
 ------------------

 -----------
 H2O_H2O_636
 -----------
 Symbolic Z-matrix:
 Charge =  0 Multiplicity = 1

                         Standard orientation:
 ---------------------------------------------------------------------
 Center     Atomic      Atomic             Coordinates (Angstroms)
 Number     Number       Type             X           Y           Z
 ---------------------------------------------------------------------
      1          8           0        0.059729    1.360372   -0.000000
      2          1           0        0.057505    0.377773   -0.000000
      3          1           0       -0.869041    1.681140   -0.000000
      4          8           0        0.059729   -1.183045    0.000000
      5          1           0        0.705930   -1.923268    0.000000
      6          1           0       -0.850055   -1.554259    0.000000
 ---------------------------------------------------------------------

 SCF Done:  E(RHF) =  -152.105700080     A.U. after   11 cycles
 E2 =    -0.5308634633D+00 EUMP2 =    -0.15263656354342D+03
 CCSD(T)
 CCSD(T)= -0.15266311029D+03

 The electronic state is 1-A'.
 Alpha  occ. eigenvalues --  -20.59793 -20.49902  -1.37880  -1.28062  -0.74890
 Alpha  occ. eigenvalues --   -0.69825  -0.59102  -0.54677  -0.50530  -0.45062
 Alpha virt. eigenvalues --    0.11380   0.17399   0.19774   0.33177   0.47869
 Alpha virt. eigenvalues --    0.53880   0.60833   0.61175   0.70815   0.72314
 Alpha virt. eigenvalues --    0.72987   0.78077   0.81101   0.83164   0.84276

 Mulliken charges:
               1
     1  O   -0.594661
     2  H    0.310963
     3  H    0.227292
     4  O   -0.449151
     5  H    0.255608
     6  H    0.249949
 Sum of Mulliken charges =  -0.00000

 Dipole moment (field-independent basis, Debye):
    X=             -1.9252    Y=             -4.0684    Z=              0.0000  Tot=              4.5009
 Quadrupole moment (field-independent basis, Debye-Ang):
   XX=             -9.3644   YY=             -9.2144   ZZ=            -14.6897
   XY=             -3.0469   XZ=              0.0000   YZ=              0.0000

 Normal termination of Gaussian 16 at Fri Aug 26 19:32:48 2022.
