 Gaussian 16, Revision A.03,
 Gaussian 16:  ES64L-G16RevA.03 25-Dec-2016

 ------------------
 #p CCSD(T)/cc-pVTZ
 ------------------

 ------------
 H2O_H2O_3882
 ------------
 Symbolic Z-matrix:
 Charge =  0 Multiplicity = 1

                         Standard orientation:
 ---------------------------------------------------------------------
 Center     Atomic      Atomic             Coordinates (Angstroms)
 Number     Number       Type             X           Y           Z
 ---------------------------------------------------------------------
      1          8           0        0.073528    2.651080   -0.000000
      2          1           0        0.072887    1.668479   -0.000000
      3          1           0       -0.855756    2.970353   -0.000000
      4          8           0        0.073528   -2.484126    0.000000
      5          1           0        0.507547   -3.365678    0.000000
      6          1           0       -0.901133   -2.608790    0.000000
 ---------------------------------------------------------------------

 SCF Done:  E(RHF) =  -152.108415429     A.U. after   10 cycles
 E2 =    -0.5258630584D+00 EUMP2 =    -0.15263427848778D+03
 CCSD(T)
 CCSD(T)= -0.15266146921D+03

 The electronic state is 1-A'.
 Alpha  occ. eigenvalues --  -20.56332 -20.54932  -1.33630  -1.32240  -0.71040
 Alpha  occ. eigenvalues --   -0.69634  -0.57120  -0.55707  -0.50747  -0.49361
 Alpha virt. eigenvalues --    0.12773   0.15179   0.19421   0.21518   0.53303
 Alpha virt. eigenvalues --    0.55015   0.56513   0.57900   0.66710   0.69060
 Alpha virt. eigenvalues --    0.78150   0.78944   0.79494   0.80474   0.82754

 Mulliken charges:
               1
     1  O   -0.512989
     2  H    0.260773
     3  H    0.251707
     4  O   -0.513652
     5  H    0.259470
     6  H    0.254690
 Sum of Mulliken charges =  -0.00000

 Dipole moment (field-independent basis, Debye):
    X=             -2.5164    Y=             -2.9509    Z=              0.0000  Tot=              3.8782
 Quadrupole moment (field-independent basis, Debye-Ang):
   XX=             -9.8110   YY=             -7.2958   ZZ=            -14.7147
   XY=             -3.7857   XZ=              0.0000   YZ=             -0.0000

 CCSD(T)=-152.6614692\RMSD=7.168e-09\PG=CS [SG(H4O2)]\\@
 Normal termination of Gaussian 16 at Sat Aug 27 00:15:36 2022.
