 Gaussian 16, Revision A.03,
 Gaussian 16:  ES64L-G16RevA.03 25-Dec-2016

 ------------------
 #p CCSD(T)/cc-pVTZ
 ------------------

 ------------
 H2O_H2O_2154
 ------------
 Symbolic Z-matrix:
 Charge =  0 Multiplicity = 1

                         Standard orientation:
 ---------------------------------------------------------------------
 Center     Atomic      Atomic             Coordinates (Angstroms)
 Number     Number       Type             X           Y           Z
 ---------------------------------------------------------------------
      1          8           0        0.082810   -1.956255    0.000000
      2          1           0        0.082352   -0.973654    0.000000
      3          1           0       -0.846535   -2.275355    0.000000
      4          8           0        0.082810    1.801750    0.000000
      5          1           0        0.336684    2.750990    0.000000
      6          1           0       -0.897457    1.734055    0.000000
 ---------------------------------------------------------------------

 SCF Done:  E(RHF) =  -152.110003742     A.U. after   10 cycles
 E2 =    -0.5264649644D+00 EUMP2 =    -0.15263646870659D+03
 CCSD(T)
 CCSD(T)= -0.15266358070D+03

 The electronic state is 1-A'.
 Alpha  occ. eigenvalues --  -20.57193 -20.54437  -1.34471  -1.31761  -0.71924
 Alpha  occ. eigenvalues --   -0.69125  -0.58019  -0.55206  -0.51585  -0.48886
 Alpha virt. eigenvalues --    0.11765   0.16278   0.19694   0.25075   0.52409
 Alpha virt. eigenvalues --    0.55774   0.56434   0.57873   0.68693   0.72594
 Alpha virt. eigenvalues --    0.76635   0.79072   0.80098   0.82133   0.83361

 Mulliken charges:
               1
     1  O   -0.518405
     2  H    0.265976
     3  H    0.245818
     4  O   -0.503559
     5  H    0.259219
     6  H    0.250952
 Sum of Mulliken charges =  -0.00000

 Dipole moment (field-independent basis, Debye):
    X=             -2.8000    Y=              2.8694    Z=              0.0000  Tot=              4.0092
 Quadrupole moment (field-independent basis, Debye-Ang):
   XX=            -10.2708   YY=             -8.4349   ZZ=            -14.7194
   XY=              2.8595   XZ=              0.0000   YZ=              0.0000

 Normal termination of Gaussian 16 at Sun Aug 28 04:53:03 2022.
