 Gaussian 16, Revision A.03,
 Gaussian 16:  ES64L-G16RevA.03 25-Dec-2016

 ------------------
 #p CCSD(T)/cc-pVTZ
 ------------------

 ------------
 H2O_H2O_4474
 ------------
 Symbolic Z-matrix:
 Charge =  0 Multiplicity = 1

                         Standard orientation:
 ---------------------------------------------------------------------
 Center     Atomic      Atomic             Coordinates (Angstroms)
 Number     Number       Type             X           Y           Z
 ---------------------------------------------------------------------
      1          8           0       -0.013473    2.876272    0.000000
      2          1           0       -0.011063    1.893674    0.000000
      3          1           0        0.915235    3.197217    0.000000
      4          8           0       -0.013473   -2.716995    0.000000
      5          1           0       -0.996072   -2.719405    0.000000
      6          1           0        0.307472   -3.645704    0.000000
 ---------------------------------------------------------------------

 SCF Done:  E(RHF) =  -152.108419312     A.U. after   10 cycles
 E2 =    -0.5258006786D+00 EUMP2 =    -0.15263421999094D+03
 CCSD(T)
 CCSD(T)= -0.15266141823D+03

 The electronic state is 1-A'.
 Alpha  occ. eigenvalues --  -20.56184 -20.55087  -1.33487  -1.32394  -0.70894
 Alpha  occ. eigenvalues --   -0.69802  -0.56979  -0.55868  -0.50606  -0.49518
 Alpha virt. eigenvalues --    0.13167   0.14902   0.19346   0.21363   0.53392
 Alpha virt. eigenvalues --    0.54931   0.56668   0.57769   0.66837   0.68646
 Alpha virt. eigenvalues --    0.78280   0.79340   0.79506   0.80829   0.82330

 Mulliken charges:
               1
     1  O   -0.514292
     2  H    0.259168
     3  H    0.255014
     4  O   -0.514773
     5  H    0.256812
     6  H    0.258072
 Sum of Mulliken charges =  -0.00000

 Dipole moment (field-independent basis, Debye):
    X=              0.4640    Y=             -2.7945    Z=              0.0000  Tot=              2.8328
 Quadrupole moment (field-independent basis, Debye-Ang):
   XX=             -9.6484   YY=             -7.4794   ZZ=            -14.7147
   XY=              7.7942   XZ=              0.0000   YZ=              0.0000

 Normal termination of Gaussian 16 at Sun Aug 28 03:13:19 2022.
