 Gaussian 16, Revision A.03,
 Gaussian 16:  ES64L-G16RevA.03 25-Dec-2016

 ------------------
 #p CCSD(T)/cc-pVTZ
 ------------------

 ------------
 H2O_H2O_3861
 ------------
 Symbolic Z-matrix:
 Charge =  0 Multiplicity = 1

                         Standard orientation:
 ---------------------------------------------------------------------
 Center     Atomic      Atomic             Coordinates (Angstroms)
 Number     Number       Type             X           Y           Z
 ---------------------------------------------------------------------
      1          8           0        0.059628    2.646817    0.000000
      2          1           0        0.058522    1.664216    0.000000
      3          1           0       -0.869506    2.966529   -0.000000
      4          8           0        0.059628   -2.469355    0.000000
      5          1           0        0.706671   -3.208842    0.000000
      6          1           0       -0.849734   -2.841603   -0.000000
 ---------------------------------------------------------------------

 SCF Done:  E(RHF) =  -152.108705196     A.U. after   10 cycles
 E2 =    -0.5258421869D+00 EUMP2 =    -0.15263454738333D+03
 CCSD(T)
 CCSD(T)= -0.15266173135D+03

 The electronic state is 1-A'.
 Alpha  occ. eigenvalues --  -20.56333 -20.54811  -1.33629  -1.32122  -0.71035
 Alpha  occ. eigenvalues --   -0.69518  -0.57132  -0.55595  -0.50750  -0.49246
 Alpha virt. eigenvalues --    0.12940   0.15253   0.19580   0.21423   0.53463
 Alpha virt. eigenvalues --    0.54959   0.56539   0.57877   0.66707   0.69158
 Alpha virt. eigenvalues --    0.78148   0.79130   0.79602   0.79900   0.82886

 Mulliken charges:
               1
     1  O   -0.514566
     2  H    0.261730
     3  H    0.252224
     4  O   -0.514919
     5  H    0.259453
     6  H    0.256077
 Sum of Mulliken charges =  -0.00000

 Dipole moment (field-independent basis, Debye):
    X=             -2.0407    Y=             -3.1387    Z=             -0.0000  Tot=              3.7437
 Quadrupole moment (field-independent basis, Debye-Ang):
   XX=             -9.3625   YY=             -6.7749   ZZ=            -14.7158
   XY=             -4.6018   XZ=             -0.0000   YZ=             -0.0000

 Normal termination of Gaussian 16 at Sat Aug 27 00:08:26 2022.
