 Gaussian 16, Revision A.03,
 Gaussian 16:  ES64L-G16RevA.03 25-Dec-2016

 ------------------
 #p CCSD(T)/cc-pVTZ
 ------------------

 ------------
 H2O_H2O_2544
 ------------
 Symbolic Z-matrix:
 Charge =  0 Multiplicity = 1

                         Standard orientation:
 ---------------------------------------------------------------------
 Center     Atomic      Atomic             Coordinates (Angstroms)
 Number     Number       Type             X           Y           Z
 ---------------------------------------------------------------------
      1          8           0        0.030213    2.117295   -0.000000
      2          1           0        0.027588    1.134697   -0.000000
      3          1           0       -0.898425    2.438443   -0.000000
      4          8           0        0.030213   -1.941704    0.000000
      5          1           0        0.959821   -2.260036    0.000000
      6          1           0       -0.572394   -2.717831    0.000000
 ---------------------------------------------------------------------

 SCF Done:  E(RHF) =  -152.110884758     A.U. after   10 cycles
 E2 =    -0.5260581725D+00 EUMP2 =    -0.15263694293039D+03
 CCSD(T)
 CCSD(T)= -0.15266405277D+03

 The electronic state is 1-A'.
 Alpha  occ. eigenvalues --  -20.56901 -20.54204  -1.34168  -1.31536  -0.71566
 Alpha  occ. eigenvalues --   -0.68940  -0.57761  -0.55027  -0.51303  -0.48681
 Alpha virt. eigenvalues --    0.12342   0.16406   0.19301   0.24079   0.53098
 Alpha virt. eigenvalues --    0.55539   0.56410   0.58731   0.69013   0.70486
 Alpha virt. eigenvalues --    0.77431   0.78916   0.80162   0.80845   0.83624

 Mulliken charges:
               1
     1  O   -0.524089
     2  H    0.265996
     3  H    0.252498
     4  O   -0.512401
     5  H    0.260297
     6  H    0.257699
 Sum of Mulliken charges =  -0.00000

 Dipole moment (field-independent basis, Debye):
    X=             -1.0287    Y=             -3.2122    Z=              0.0000  Tot=              3.3729
 Quadrupole moment (field-independent basis, Debye-Ang):
   XX=             -9.2296   YY=             -7.6215   ZZ=            -14.7230
   XY=             -4.9779   XZ=              0.0000   YZ=             -0.0000

 Normal termination of Gaussian 16 at Fri Aug 26 15:30:14 2022.
