 Gaussian 16, Revision A.03,
 Gaussian 16:  ES64L-G16RevA.03 25-Dec-2016

 ------------------
 #p CCSD(T)/cc-pVTZ
 ------------------

 ------------
 H2O_H2O_3662
 ------------
 Symbolic Z-matrix:
 Charge =  0 Multiplicity = 1

                         Standard orientation:
 ---------------------------------------------------------------------
 Center     Atomic      Atomic             Coordinates (Angstroms)
 Number     Number       Type             X           Y           Z
 ---------------------------------------------------------------------
      1          8           0        0.055979    2.567835   -0.000000
      2          1           0        0.054713    1.585235   -0.000000
      3          1           0       -0.873103    2.887699   -0.000000
      4          8           0        0.055979   -2.388913    0.000000
      5          1           0        0.749889   -3.084612    0.000000
      6          1           0       -0.827159   -2.819695    0.000000
 ---------------------------------------------------------------------

 SCF Done:  E(RHF) =  -152.108931353     A.U. after   10 cycles
 E2 =    -0.5258531161D+00 EUMP2 =    -0.15263478446870D+03
 CCSD(T)
 CCSD(T)= -0.15266196026D+03

 The electronic state is 1-A'.
 Alpha  occ. eigenvalues --  -20.56391 -20.54731  -1.33684  -1.32043  -0.71088
 Alpha  occ. eigenvalues --   -0.69438  -0.57194  -0.55520  -0.50806  -0.49170
 Alpha virt. eigenvalues --    0.12835   0.15398   0.19572   0.21603   0.53447
 Alpha virt. eigenvalues --    0.55006   0.56503   0.57949   0.66830   0.69268
 Alpha virt. eigenvalues --    0.78095   0.79074   0.79673   0.79683   0.82967

 Mulliken charges:
               1
     1  O   -0.515445
     2  H    0.262351
     3  H    0.252151
     4  O   -0.515162
     5  H    0.259663
     6  H    0.256442
 Sum of Mulliken charges =  -0.00000

 Dipole moment (field-independent basis, Debye):
    X=             -1.9144    Y=             -3.1749    Z=              0.0000  Tot=              3.7074
 Quadrupole moment (field-independent basis, Debye-Ang):
   XX=             -9.2859   YY=             -6.8268   ZZ=            -14.7167
   XY=             -4.6942   XZ=              0.0000   YZ=             -0.0000

 Normal termination of Gaussian 16 at Fri Aug 26 22:57:18 2022.
