 Gaussian 16, Revision A.03,
 Gaussian 16:  ES64L-G16RevA.03 25-Dec-2016

 ------------------
 #p CCSD(T)/cc-pVTZ
 ------------------

 ------------
 H2O_H2O_2983
 ------------
 Symbolic Z-matrix:
 Charge =  0 Multiplicity = 1

                         Standard orientation:
 ---------------------------------------------------------------------
 Center     Atomic      Atomic             Coordinates (Angstroms)
 Number     Number       Type             X           Y           Z
 ---------------------------------------------------------------------
      1          8           0        0.070200    2.293878   -0.000000
      2          1           0        0.069326    1.311276   -0.000000
      3          1           0       -0.859009    2.613371   -0.000000
      4          8           0        0.070200   -2.123636    0.000000
      5          1           0        0.560744   -2.975030    0.000000
      6          1           0       -0.894266   -2.311550    0.000000
 ---------------------------------------------------------------------

 SCF Done:  E(RHF) =  -152.109386053     A.U. after   10 cycles
 E2 =    -0.5259908584D+00 EUMP2 =    -0.15263537691154D+03
 CCSD(T)
 CCSD(T)= -0.15266252768D+03

 The electronic state is 1-A'.
 Alpha  occ. eigenvalues --  -20.56664 -20.54590  -1.33946  -1.31906  -0.71356
 Alpha  occ. eigenvalues --   -0.69291  -0.57467  -0.55380  -0.51069  -0.49034
 Alpha virt. eigenvalues --    0.12271   0.15842   0.19436   0.22691   0.53540
 Alpha virt. eigenvalues --    0.55277   0.56293   0.58535   0.68175   0.69324
 Alpha virt. eigenvalues --    0.77822   0.78900   0.79807   0.80040   0.83072

 Mulliken charges:
               1
     1  O   -0.516367
     2  H    0.263600
     3  H    0.250018
     4  O   -0.512071
     5  H    0.260056
     6  H    0.254765
 Sum of Mulliken charges =  -0.00000

 Dipole moment (field-independent basis, Debye):
    X=             -2.3922    Y=             -3.0659    Z=              0.0000  Tot=              3.8887
 Quadrupole moment (field-independent basis, Debye-Ang):
   XX=             -9.6858   YY=             -7.5698   ZZ=            -14.7180
   XY=             -3.7148   XZ=              0.0000   YZ=             -0.0000

 Normal termination of Gaussian 16 at Fri Aug 26 18:59:17 2022.
