 Gaussian 16, Revision A.03,
 Gaussian 16:  ES64L-G16RevA.03 25-Dec-2016

 ------------------
 #p CCSD(T)/cc-pVTZ
 ------------------

 ------------
 H2O_H2O_1200
 ------------
 Symbolic Z-matrix:
 Charge =  0 Multiplicity = 1

                         Standard orientation:
 ---------------------------------------------------------------------
 Center     Atomic      Atomic             Coordinates (Angstroms)
 Number     Number       Type             X           Y           Z
 ---------------------------------------------------------------------
      1          8           0        0.092949   -1.565524    0.000000
      2          1           0        0.092949   -0.582923    0.000000
      3          1           0       -0.836544   -1.884191    0.000000
      4          8           0        0.092949    1.432737    0.000000
      5          1           0        0.092949    2.415339    0.000000
      6          1           0       -0.836544    1.114071    0.000000
 ---------------------------------------------------------------------

 SCF Done:  E(RHF) =  -152.107640152     A.U. after   10 cycles
 E2 =    -0.5286993998D+00 EUMP2 =    -0.15263633955167D+03
 CCSD(T)
 CCSD(T)= -0.15266338535D+03

 The electronic state is 1-A'.
 Alpha  occ. eigenvalues --  -20.58311 -20.54040  -1.35816  -1.31466  -0.73899
 Alpha  occ. eigenvalues --   -0.68578  -0.59180  -0.54750  -0.52789  -0.48539
 Alpha virt. eigenvalues --    0.11468   0.16349   0.20681   0.29402   0.48712
 Alpha virt. eigenvalues --    0.53475   0.57976   0.59543   0.67945   0.72272
 Alpha virt. eigenvalues --    0.73950   0.78241   0.80623   0.81268   0.83116

 Mulliken charges:
               1
     1  O   -0.526289
     2  H    0.278019
     3  H    0.234774
     4  O   -0.461989
     5  H    0.241132
     6  H    0.234352
 Sum of Mulliken charges =  -0.00000

 Dipole moment (field-independent basis, Debye):
    X=             -3.0798    Y=              2.6974    Z=              0.0000  Tot=              4.0940
 Quadrupole moment (field-independent basis, Debye-Ang):
   XX=            -10.9032   YY=             -9.1806   ZZ=            -14.7001
   XY=              2.0988   XZ=              0.0000   YZ=              0.0000

 Normal termination of Gaussian 16 at Fri Aug 26 23:05:10 2022.
