 Gaussian 16, Revision A.03,
 Gaussian 16:  ES64L-G16RevA.03 25-Dec-2016

 ------------------
 #p CCSD(T)/cc-pVTZ
 ------------------

 -----------
 H2O_H2O_920
 -----------
 Symbolic Z-matrix:
 Charge =  0 Multiplicity = 1

                         Standard orientation:
 ---------------------------------------------------------------------
 Center     Atomic      Atomic             Coordinates (Angstroms)
 Number     Number       Type             X           Y           Z
 ---------------------------------------------------------------------
      1          8           0        0.026797    1.467795    0.000000
      2          1           0        0.022723    0.485202    0.000000
      3          1           0       -0.901367    1.790313    0.000000
      4          8           0        0.026797   -1.294657   -0.000000
      5          1           0        0.974854   -1.552905   -0.000000
      6          1           0       -0.524959   -2.107720   -0.000000
 ---------------------------------------------------------------------

 SCF Done:  E(RHF) =  -152.112195918     A.U. after   10 cycles
 E2 =    -0.5289890317D+00 EUMP2 =    -0.15264118495009D+03
 CCSD(T)
 CCSD(T)= -0.15266797781D+03

 The electronic state is 1-A'.
 Alpha  occ. eigenvalues --  -20.58973 -20.51347  -1.36600  -1.29123  -0.73955
 Alpha  occ. eigenvalues --   -0.68137  -0.59865  -0.53602  -0.52005  -0.46226
 Alpha virt. eigenvalues --    0.11866   0.18472   0.18712   0.32482   0.48483
 Alpha virt. eigenvalues --    0.54555   0.56636   0.63691   0.68289   0.72546
 Alpha virt. eigenvalues --    0.72926   0.77262   0.81641   0.82966   0.84379

 Mulliken charges:
               1
     1  O   -0.578287
     2  H    0.297077
     3  H    0.244861
     4  O   -0.475850
     5  H    0.263817
     6  H    0.248382
 Sum of Mulliken charges =   0.00000

 Dipole moment (field-independent basis, Debye):
    X=             -0.8879    Y=             -3.7198    Z=             -0.0000  Tot=              3.8243
 Quadrupole moment (field-independent basis, Debye-Ang):
   XX=             -9.2746   YY=             -8.8806   ZZ=            -14.7172
   XY=             -3.5950   XZ=             -0.0000   YZ=              0.0000

 Normal termination of Gaussian 16 at Fri Aug 26 21:20:54 2022.
