 Gaussian 16, Revision A.03,
 Gaussian 16:  ES64L-G16RevA.03 25-Dec-2016

 ------------------
 #p CCSD(T)/cc-pVTZ
 ------------------

 ------------
 H2O_H2O_4912
 ------------
 Symbolic Z-matrix:
 Charge =  0 Multiplicity = 1

                         Standard orientation:
 ---------------------------------------------------------------------
 Center     Atomic      Atomic             Coordinates (Angstroms)
 Number     Number       Type             X           Y           Z
 ---------------------------------------------------------------------
      1          8           0        0.055960    3.066444   -0.000000
      2          1           0        0.054906    2.083843   -0.000000
      3          1           0       -0.873191    3.386107   -0.000000
      4          8           0        0.055960   -2.887498    0.000000
      5          1           0        0.750019   -3.583047    0.000000
      6          1           0       -0.827085   -3.318470    0.000000
 ---------------------------------------------------------------------

 SCF Done:  E(RHF) =  -152.108188804     A.U. after   10 cycles
 E2 =    -0.5258137813D+00 EUMP2 =    -0.15263400258560D+03
 CCSD(T)
 CCSD(T)= -0.15266120618D+03

 The electronic state is 1-A'.
 Alpha  occ. eigenvalues --  -20.56122 -20.55039  -1.33424  -1.32345  -0.70830
 Alpha  occ. eigenvalues --   -0.69746  -0.56908  -0.55811  -0.50541  -0.49465
 Alpha virt. eigenvalues --    0.13514   0.14762   0.19724   0.20893   0.53712
 Alpha virt. eigenvalues --    0.54799   0.56708   0.57754   0.67056   0.68515
 Alpha virt. eigenvalues --    0.78342   0.79396   0.79738   0.80511   0.82230

 Mulliken charges:
               1
     1  O   -0.512796
     2  H    0.259522
     3  H    0.253236
     4  O   -0.513502
     5  H    0.257830
     6  H    0.255710
 Sum of Mulliken charges =  -0.00000

 Dipole moment (field-independent basis, Debye):
    X=             -1.9209    Y=             -3.1316    Z=              0.0000  Tot=              3.6738
 Quadrupole moment (field-independent basis, Debye-Ang):
   XX=             -9.2849   YY=             -6.0409   ZZ=            -14.7141
   XY=             -5.3336   XZ=              0.0000   YZ=             -0.0000

 Normal termination of Gaussian 16 at Sun Aug 28 06:50:41 2022.
