 Gaussian 16, Revision A.03,
 Gaussian 16:  ES64L-G16RevA.03 25-Dec-2016

 ------------------
 #p CCSD(T)/cc-pVTZ
 ------------------

 -----------
 H2O_H2O_303
 -----------
 Symbolic Z-matrix:
 Charge =  0 Multiplicity = 1

                         Standard orientation:
 ---------------------------------------------------------------------
 Center     Atomic      Atomic             Coordinates (Angstroms)
 Number     Number       Type             X           Y           Z
 ---------------------------------------------------------------------
      1          8           0        0.085622   -1.215642    0.000000
      2          1           0        0.085075   -0.233041    0.000000
      3          1           0       -0.843694   -1.534825    0.000000
      4          8           0        0.085622    1.066092    0.000000
      5          1           0        0.276782    2.029920    0.000000
      6          1           0       -0.888107    0.934343    0.000000
 ---------------------------------------------------------------------

 SCF Done:  E(RHF) =  -152.074374958     A.U. after   11 cycles
 E2 =    -0.5353107843D+00 EUMP2 =    -0.15260968574266D+03
 CCSD(T)
 CCSD(T)= -0.15263579297D+03

 The electronic state is 1-A'.
 Alpha  occ. eigenvalues --  -20.60789 -20.49009  -1.40721  -1.27691  -0.79711
 Alpha  occ. eigenvalues --   -0.69939  -0.58040  -0.56384  -0.49701  -0.44564
 Alpha virt. eigenvalues --    0.10926   0.16252   0.21140   0.32426   0.49112
 Alpha virt. eigenvalues --    0.51775   0.59509   0.65501   0.71633   0.72831
 Alpha virt. eigenvalues --    0.75899   0.76673   0.79483   0.83493   0.85271

 Mulliken charges:
               1
     1  O   -0.591981
     2  H    0.280680
     3  H    0.204595
     4  O   -0.354822
     5  H    0.228128
     6  H    0.233399
 Sum of Mulliken charges =  -0.00000

 Dipole moment (field-independent basis, Debye):
    X=             -2.6976    Y=              3.8903    Z=              0.0000  Tot=              4.7341
 Quadrupole moment (field-independent basis, Debye-Ang):
   XX=            -10.4017   YY=             -9.6164   ZZ=            -14.5950
   XY=              2.3431   XZ=              0.0000   YZ=              0.0000

 Normal termination of Gaussian 16 at Fri Aug 26 17:17:37 2022.
