 Gaussian 16, Revision A.03,
 Gaussian 16:  ES64L-G16RevA.03 25-Dec-2016

 ------------------
 #p CCSD(T)/cc-pVTZ
 ------------------

 ------------
 H2O_H2O_1315
 ------------
 Symbolic Z-matrix:
 Charge =  0 Multiplicity = 1

                         Standard orientation:
 ---------------------------------------------------------------------
 Center     Atomic      Atomic             Coordinates (Angstroms)
 Number     Number       Type             X           Y           Z
 ---------------------------------------------------------------------
      1          8           0        0.044936    1.631242    0.000000
      2          1           0        0.042287    0.648644    0.000000
      3          1           0       -0.883695    1.952413    0.000000
      4          8           0        0.044936   -1.450920   -0.000000
      5          1           0        0.860465   -1.999024   -0.000000
      6          1           0       -0.738028   -2.044615   -0.000000
 ---------------------------------------------------------------------

 SCF Done:  E(RHF) =  -152.114216212     A.U. after   10 cycles
 E2 =    -0.5275685650D+00 EUMP2 =    -0.15264178477673D+03
 CCSD(T)
 CCSD(T)= -0.15266874064D+03

 The electronic state is 1-A'.
 Alpha  occ. eigenvalues --  -20.58244 -20.52494  -1.35573  -1.30005  -0.72874
 Alpha  occ. eigenvalues --   -0.67910  -0.59375  -0.53257  -0.52690  -0.47148
 Alpha virt. eigenvalues --    0.12001   0.17857   0.18895   0.30175   0.49384
 Alpha virt. eigenvalues --    0.54678   0.56025   0.60162   0.68961   0.71700
 Alpha virt. eigenvalues --    0.73613   0.76984   0.81923   0.82839   0.84954

 Mulliken charges:
               1
     1  O   -0.550181
     2  H    0.284363
     3  H    0.244616
     4  O   -0.503903
     5  H    0.266104
     6  H    0.259001
 Sum of Mulliken charges =  -0.00000

 Dipole moment (field-independent basis, Debye):
    X=             -1.4994    Y=             -3.6163    Z=             -0.0000  Tot=              3.9148
 Quadrupole moment (field-independent basis, Debye-Ang):
   XX=             -9.1597   YY=             -8.4386   ZZ=            -14.7349
   XY=             -3.6558   XZ=             -0.0000   YZ=              0.0000

 Normal termination of Gaussian 16 at Fri Aug 26 23:47:50 2022.
