 Gaussian 16, Revision A.03,
 Gaussian 16:  ES64L-G16RevA.03 25-Dec-2016

 ------------------
 #p CCSD(T)/cc-pVTZ
 ------------------

 -----------
 H2O_H2O_787
 -----------
 Symbolic Z-matrix:
 Charge =  0 Multiplicity = 1

                         Standard orientation:
 ---------------------------------------------------------------------
 Center     Atomic      Atomic             Coordinates (Angstroms)
 Number     Number       Type             X           Y           Z
 ---------------------------------------------------------------------
      1          8           0        0.056078    1.421003   -0.000000
      2          1           0        0.053722    0.438404   -0.000000
      3          1           0       -0.872648    1.741897   -0.000000
      4          8           0        0.056078   -1.242205    0.000000
      5          1           0        0.749214   -1.938673    0.000000
      6          1           0       -0.827538   -1.672007    0.000000
 ---------------------------------------------------------------------

 SCF Done:  E(RHF) =  -152.110171661     A.U. after   10 cycles
 E2 =    -0.5298080752D+00 EUMP2 =    -0.15263997973600D+03
 CCSD(T)
 CCSD(T)= -0.15266667405D+03

 The electronic state is 1-A'.
 Alpha  occ. eigenvalues --  -20.59366 -20.50678  -1.37136  -1.28606  -0.74216
 Alpha  occ. eigenvalues --   -0.68907  -0.59533  -0.54077  -0.51338  -0.45661
 Alpha virt. eigenvalues --    0.11569   0.17655   0.19444   0.32828   0.47946
 Alpha virt. eigenvalues --    0.54260   0.59361   0.60805   0.70177   0.72214
 Alpha virt. eigenvalues --    0.72437   0.77728   0.81789   0.82979   0.84514

 Mulliken charges:
               1
     1  O   -0.582781
     2  H    0.307883
     3  H    0.232752
     4  O   -0.472042
     5  H    0.260645
     6  H    0.253542
 Sum of Mulliken charges =  -0.00000

 Dipole moment (field-independent basis, Debye):
    X=             -1.8270    Y=             -3.9439    Z=              0.0000  Tot=              4.3466
 Quadrupole moment (field-independent basis, Debye-Ang):
   XX=             -9.2881   YY=             -9.0203   ZZ=            -14.7087
   XY=             -3.1752   XZ=              0.0000   YZ=             -0.0000

 Normal termination of Gaussian 16 at Fri Aug 26 20:30:34 2022.
