 Gaussian 16, Revision A.03,
 Gaussian 16:  ES64L-G16RevA.03 25-Dec-2016

 ------------------
 #p CCSD(T)/cc-pVTZ
 ------------------

 ------------
 H2O_H2O_3068
 ------------
 Symbolic Z-matrix:
 Charge =  0 Multiplicity = 1

                         Standard orientation:
 ---------------------------------------------------------------------
 Center     Atomic      Atomic             Coordinates (Angstroms)
 Number     Number       Type             X           Y           Z
 ---------------------------------------------------------------------
      1          8           0        0.033793    2.327752    0.000000
      2          1           0        0.031550    1.345154    0.000000
      3          1           0       -0.894971    2.648539   -0.000000
      4          8           0        0.033793   -2.150231    0.000000
      5          1           0        0.940738   -2.528327    0.000000
      6          1           0       -0.617999   -2.885537   -0.000000
 ---------------------------------------------------------------------

 SCF Done:  E(RHF) =  -152.109865616     A.U. after   10 cycles
 E2 =    -0.5259112051D+00 EUMP2 =    -0.15263577682142D+03
 CCSD(T)
 CCSD(T)= -0.15266292104D+03

 The electronic state is 1-A'.
 Alpha  occ. eigenvalues --  -20.56611 -20.54485  -1.33892  -1.31805  -0.71293
 Alpha  occ. eigenvalues --   -0.69204  -0.57437  -0.55295  -0.51022  -0.48942
 Alpha virt. eigenvalues --    0.12522   0.15902   0.19432   0.22617   0.53288
 Alpha virt. eigenvalues --    0.55456   0.56429   0.58403   0.68054   0.69343
 Alpha virt. eigenvalues --    0.77874   0.78954   0.79675   0.79887   0.83215

 Mulliken charges:
               1
     1  O   -0.519595
     2  H    0.264021
     3  H    0.252903
     4  O   -0.515064
     5  H    0.259742
     6  H    0.257993
 Sum of Mulliken charges =  -0.00000

 Dipole moment (field-independent basis, Debye):
    X=             -1.1534    Y=             -3.1911    Z=              0.0000  Tot=              3.3931
 Quadrupole moment (field-independent basis, Debye-Ang):
   XX=             -9.1859   YY=             -7.2421   ZZ=            -14.7198
   XY=             -5.2798   XZ=              0.0000   YZ=              0.0000

 Normal termination of Gaussian 16 at Fri Aug 26 19:35:39 2022.
