 Gaussian 16, Revision A.03,
 Gaussian 16:  ES64L-G16RevA.03 25-Dec-2016

 ------------------
 #p CCSD(T)/cc-pVTZ
 ------------------

 ------------
 H2O_H2O_1551
 ------------
 Symbolic Z-matrix:
 Charge =  0 Multiplicity = 1

                         Standard orientation:
 ---------------------------------------------------------------------
 Center     Atomic      Atomic             Coordinates (Angstroms)
 Number     Number       Type             X           Y           Z
 ---------------------------------------------------------------------
      1          8           0        0.090687   -1.708345    0.000000
      2          1           0        0.090569   -0.725743    0.000000
      3          1           0       -0.838768   -2.027122    0.000000
      4          8           0        0.090687    1.569642    0.000000
      5          1           0        0.154835    2.550148    0.000000
      6          1           0       -0.857628    1.312336    0.000000
 ---------------------------------------------------------------------

 SCF Done:  E(RHF) =  -152.109436184     A.U. after   10 cycles
 E2 =    -0.5274809433D+00 EUMP2 =    -0.15263691712691D+03
 CCSD(T)
 CCSD(T)= -0.15266400671D+03

 The electronic state is 1-A'.
 Alpha  occ. eigenvalues --  -20.57799 -20.54346  -1.35147  -1.31700  -0.72835
 Alpha  occ. eigenvalues --   -0.68960  -0.58661  -0.55071  -0.52210  -0.48802
 Alpha virt. eigenvalues --    0.11521   0.16340   0.20328   0.27586   0.50105
 Alpha virt. eigenvalues --    0.54623   0.57618   0.57981   0.68045   0.74090
 Alpha virt. eigenvalues --    0.74478   0.77829   0.80533   0.82077   0.83404

 Mulliken charges:
               1
     1  O   -0.521510
     2  H    0.272027
     3  H    0.240245
     4  O   -0.485384
     5  H    0.251339
     6  H    0.243283
 Sum of Mulliken charges =  -0.00000

 Dipole moment (field-independent basis, Debye):
    X=             -3.0326    Y=              2.6893    Z=              0.0000  Tot=              4.0532
 Quadrupole moment (field-independent basis, Debye-Ang):
   XX=            -10.7494   YY=             -8.9908   ZZ=            -14.7131
   XY=              2.2929   XZ=              0.0000   YZ=              0.0000

 Normal termination of Gaussian 16 at Sat Aug 27 23:05:16 2022.
