 Gaussian 16, Revision A.03,
 Gaussian 16:  ES64L-G16RevA.03 25-Dec-2016

 ------------------
 #p CCSD(T)/cc-pVTZ
 ------------------

 ------------
 H2O_H2O_4925
 ------------
 Symbolic Z-matrix:
 Charge =  0 Multiplicity = 1

                         Standard orientation:
 ---------------------------------------------------------------------
 Center     Atomic      Atomic             Coordinates (Angstroms)
 Number     Number       Type             X           Y           Z
 ---------------------------------------------------------------------
      1          8           0        0.092949   -3.051342    0.000000
      2          1           0        0.092949   -2.068741    0.000000
      3          1           0       -0.836544   -3.370009    0.000000
      4          8           0        0.092949    2.918555    0.000000
      5          1           0        0.092949    3.901157    0.000000
      6          1           0       -0.836544    2.599888    0.000000
 ---------------------------------------------------------------------

 SCF Done:  E(RHF) =  -152.107580019     A.U. after   10 cycles
 E2 =    -0.5258675627D+00 EUMP2 =    -0.15263344758162D+03
 CCSD(T)
 CCSD(T)= -0.15266066450D+03

 The electronic state is 1-A'.
 Alpha  occ. eigenvalues --  -20.56144 -20.55388  -1.33445  -1.32688  -0.70858
 Alpha  occ. eigenvalues --   -0.70087  -0.56902  -0.56139  -0.50556  -0.49801
 Alpha virt. eigenvalues --    0.13095   0.14545   0.19029   0.21293   0.53445
 Alpha virt. eigenvalues --    0.54661   0.56602   0.57540   0.67106   0.68238
 Alpha virt. eigenvalues --    0.78333   0.79075   0.79657   0.80930   0.81678

 Mulliken charges:
               1
     1  O   -0.509401
     2  H    0.256816
     3  H    0.252569
     4  O   -0.510194
     5  H    0.257550
     6  H    0.252660
 Sum of Mulliken charges =  -0.00000

 Dipole moment (field-independent basis, Debye):
    X=             -3.1911    Y=              2.3228    Z=              0.0000  Tot=              3.9469
 Quadrupole moment (field-independent basis, Debye-Ang):
   XX=            -10.8439   YY=             -9.2971   ZZ=            -14.7117
   XY=              2.1599   XZ=              0.0000   YZ=              0.0000

 Normal termination of Gaussian 16 at Sun Aug 28 06:57:19 2022.
