 Gaussian 16, Revision A.03,
 Gaussian 16:  ES64L-G16RevA.03 25-Dec-2016

 ------------------
 #p CCSD(T)/cc-pVTZ
 ------------------

 ------------
 H2O_H2O_4520
 ------------
 Symbolic Z-matrix:
 Charge =  0 Multiplicity = 1

                         Standard orientation:
 ---------------------------------------------------------------------
 Center     Atomic      Atomic             Coordinates (Angstroms)
 Number     Number       Type             X           Y           Z
 ---------------------------------------------------------------------
      1          8           0        0.026614    2.903804   -0.000000
      2          1           0        0.024616    1.921205   -0.000000
      3          1           0       -0.902230    3.224359   -0.000000
      4          8           0        0.026614   -2.730552    0.000000
      5          1           0        0.975214   -2.986797    0.000000
      6          1           0       -0.523422   -3.544781    0.000000
 ---------------------------------------------------------------------

 SCF Done:  E(RHF) =  -152.108468506     A.U. after   10 cycles
 E2 =    -0.5257991192D+00 EUMP2 =    -0.15263426762500D+03
 CCSD(T)
 CCSD(T)= -0.15266146431D+03

 The electronic state is 1-A'.
 Alpha  occ. eigenvalues --  -20.56177 -20.54990  -1.33479  -1.32298  -0.70883
 Alpha  occ. eigenvalues --   -0.69703  -0.56974  -0.55771  -0.50598  -0.49422
 Alpha virt. eigenvalues --    0.13333   0.14920   0.19614   0.21111   0.53570
 Alpha virt. eigenvalues --    0.54882   0.56676   0.57792   0.66846   0.68705
 Alpha virt. eigenvalues --    0.78287   0.79434   0.79540   0.80440   0.82579

 Mulliken charges:
               1
     1  O   -0.514383
     2  H    0.260006
     3  H    0.254261
     4  O   -0.514963
     5  H    0.257574
     6  H    0.257506
 Sum of Mulliken charges =  -0.00000

 Dipole moment (field-independent basis, Debye):
    X=             -0.9135    Y=             -3.0400    Z=              0.0000  Tot=              3.1742
 Quadrupole moment (field-independent basis, Debye-Ang):
   XX=             -9.2893   YY=             -6.6128   ZZ=            -14.7150
   XY=             -6.9133   XZ=              0.0000   YZ=             -0.0000

 Normal termination of Gaussian 16 at Sun Aug 28 03:35:35 2022.
