 Gaussian 16, Revision A.03,
 Gaussian 16:  ES64L-G16RevA.03 25-Dec-2016

 ------------------
 #p CCSD(T)/cc-pVTZ
 ------------------

 ------------
 H2O_H2O_2037
 ------------
 Symbolic Z-matrix:
 Charge =  0 Multiplicity = 1

                         Standard orientation:
 ---------------------------------------------------------------------
 Center     Atomic      Atomic             Coordinates (Angstroms)
 Number     Number       Type             X           Y           Z
 ---------------------------------------------------------------------
      1          8           0        0.056020    1.919635    0.000000
      2          1           0        0.054305    0.937035    0.000000
      3          1           0       -0.872916    2.239922    0.000000
      4          8           0        0.056020   -1.740764   -0.000000
      5          1           0        0.749611   -2.436779   -0.000000
      6          1           0       -0.827315   -2.171143   -0.000000
 ---------------------------------------------------------------------

 SCF Done:  E(RHF) =  -152.111999481     A.U. after   10 cycles
 E2 =    -0.5264164358D+00 EUMP2 =    -0.15263841591641D+03
 CCSD(T)
 CCSD(T)= -0.15266548597D+03

 The electronic state is 1-A'.
 Alpha  occ. eigenvalues --  -20.57328 -20.53757  -1.34581  -1.31112  -0.71969
 Alpha  occ. eigenvalues --   -0.68529  -0.58252  -0.54568  -0.51718  -0.48259
 Alpha virt. eigenvalues --    0.12168   0.16874   0.19223   0.26005   0.51586
 Alpha virt. eigenvalues --    0.55271   0.56291   0.58922   0.69004   0.72276
 Alpha virt. eigenvalues --    0.76354   0.77745   0.80661   0.83435   0.84088

 Mulliken charges:
               1
     1  O   -0.527527
     2  H    0.269131
     3  H    0.247753
     4  O   -0.507364
     5  H    0.261761
     6  H    0.256247
 Sum of Mulliken charges =  -0.00000

 Dipole moment (field-independent basis, Debye):
    X=             -1.8941    Y=             -3.3581    Z=             -0.0000  Tot=              3.8554
 Quadrupole moment (field-independent basis, Debye-Ang):
   XX=             -9.2934   YY=             -7.8708   ZZ=            -14.7276
   XY=             -3.8604   XZ=             -0.0000   YZ=             -0.0000

 Normal termination of Gaussian 16 at Sun Aug 28 03:46:38 2022.
