 Gaussian 16, Revision A.03,
 Gaussian 16:  ES64L-G16RevA.03 25-Dec-2016

 ------------------
 #p CCSD(T)/cc-pVTZ
 ------------------

 -----------
 H2O_H2O_131
 -----------
 Symbolic Z-matrix:
 Charge =  0 Multiplicity = 1

                         Standard orientation:
 ---------------------------------------------------------------------
 Center     Atomic      Atomic             Coordinates (Angstroms)
 Number     Number       Type             X           Y           Z
 ---------------------------------------------------------------------
      1          8           0        0.076814   -1.153204    0.000000
      2          1           0        0.075532   -0.170603    0.000000
      3          1           0       -0.852262   -1.473082    0.000000
      4          8           0        0.076814    0.990101    0.000000
      5          1           0        0.451656    1.898396    0.000000
      6          1           0       -0.903953    1.050114    0.000000
 ---------------------------------------------------------------------

 SCF Done:  E(RHF) =  -152.051657342     A.U. after   11 cycles
 E2 =    -0.5366943929D+00 EUMP2 =    -0.15258835173492D+03
 CCSD(T)
 CCSD(T)= -0.15261405023D+03

 The electronic state is 1-A'.
 Alpha  occ. eigenvalues --  -20.61623 -20.46340  -1.42863  -1.25880  -0.81094
 Alpha  occ. eigenvalues --   -0.73197  -0.57847  -0.55913  -0.46825  -0.42572
 Alpha virt. eigenvalues --    0.10547   0.16067   0.21354   0.32217   0.49238
 Alpha virt. eigenvalues --    0.51741   0.60082   0.64724   0.71176   0.72166
 Alpha virt. eigenvalues --    0.76894   0.78745   0.81072   0.85114   0.86428

 Mulliken charges:
               1
     1  O   -0.628799
     2  H    0.279489
     3  H    0.196252
     4  O   -0.317774
     5  H    0.231556
     6  H    0.239276
 Sum of Mulliken charges =  -0.00000

 Dipole moment (field-independent basis, Debye):
    X=             -2.3593    Y=              4.5093    Z=              0.0000  Tot=              5.0892
 Quadrupole moment (field-independent basis, Debye-Ang):
   XX=             -9.9226   YY=             -9.9237   ZZ=            -14.5559
   XY=              2.5224   XZ=              0.0000   YZ=              0.0000

 Normal termination of Gaussian 16 at Fri Aug 26 16:05:08 2022.
