 Gaussian 16, Revision A.03,
 Gaussian 16:  ES64L-G16RevA.03 25-Dec-2016

 ------------------
 #p CCSD(T)/cc-pVTZ
 ------------------

 ------------
 H2O_H2O_3347
 ------------
 Symbolic Z-matrix:
 Charge =  0 Multiplicity = 1

                         Standard orientation:
 ---------------------------------------------------------------------
 Center     Atomic      Atomic             Coordinates (Angstroms)
 Number     Number       Type             X           Y           Z
 ---------------------------------------------------------------------
      1          8           0       -0.019853    2.431789    0.000000
      2          1           0       -0.017211    1.449191    0.000000
      3          1           0        0.908780    2.752953    0.000000
      4          8           0       -0.019853   -2.264682    0.000000
      5          1           0       -0.993701   -2.395554    0.000000
      6          1           0        0.419774   -3.143450    0.000000
 ---------------------------------------------------------------------

 SCF Done:  E(RHF) =  -152.109376237     A.U. after   10 cycles
 E2 =    -0.5258624658D+00 EUMP2 =    -0.15263523870309D+03
 CCSD(T)
 CCSD(T)= -0.15266240107D+03

 The electronic state is 1-A'.
 Alpha  occ. eigenvalues --  -20.56483 -20.54721  -1.33774  -1.32036  -0.71180
 Alpha  occ. eigenvalues --   -0.69442  -0.57299  -0.55524  -0.50899  -0.49170
 Alpha virt. eigenvalues --    0.12502   0.15638   0.19319   0.22346   0.53399
 Alpha virt. eigenvalues --    0.55394   0.56512   0.58056   0.67250   0.69313
 Alpha virt. eigenvalues --    0.78002   0.78704   0.79669   0.80421   0.83009

 Mulliken charges:
               1
     1  O   -0.518054
     2  H    0.262124
     3  H    0.254417
     4  O   -0.515898
     5  H    0.258554
     6  H    0.258857
 Sum of Mulliken charges =  -0.00000

 Dipole moment (field-independent basis, Debye):
    X=              0.6806    Y=             -2.9806    Z=              0.0000  Tot=              3.0573
 Quadrupole moment (field-independent basis, Debye-Ang):
   XX=             -9.4466   YY=             -7.5140   ZZ=            -14.7181
   XY=              6.1935   XZ=              0.0000   YZ=              0.0000

 Normal termination of Gaussian 16 at Fri Aug 26 21:11:55 2022.
