 Gaussian 16, Revision A.03,
 Gaussian 16:  ES64L-G16RevA.03 25-Dec-2016

 ------------------
 #p CCSD(T)/cc-pVTZ
 ------------------

 ------------
 H2O_H2O_1832
 ------------
 Symbolic Z-matrix:
 Charge =  0 Multiplicity = 1

                         Standard orientation:
 ---------------------------------------------------------------------
 Center     Atomic      Atomic             Coordinates (Angstroms)
 Number     Number       Type             X           Y           Z
 ---------------------------------------------------------------------
      1          8           0        0.073554    1.833360   -0.000000
      2          1           0        0.072612    0.850759   -0.000000
      3          1           0       -0.855633    2.152917   -0.000000
      4          8           0        0.073554   -1.666450    0.000000
      5          1           0        0.507302   -2.548135    0.000000
      6          1           0       -0.901146   -1.790816    0.000000
 ---------------------------------------------------------------------

 SCF Done:  E(RHF) =  -152.111553469     A.U. after   10 cycles
 E2 =    -0.5267308078D+00 EUMP2 =    -0.15263828427656D+03
 CCSD(T)
 CCSD(T)= -0.15266535047D+03

 The electronic state is 1-A'.
 Alpha  occ. eigenvalues --  -20.57519 -20.53853  -1.34792  -1.31212  -0.72224
 Alpha  occ. eigenvalues --   -0.68623  -0.58440  -0.54633  -0.51912  -0.48347
 Alpha virt. eigenvalues --    0.11907   0.16727   0.19477   0.26687   0.50885
 Alpha virt. eigenvalues --    0.55483   0.56403   0.58393   0.69163   0.73176
 Alpha virt. eigenvalues --    0.75610   0.77900   0.80690   0.83188   0.83814

 Mulliken charges:
               1
     1  O   -0.525691
     2  H    0.269911
     3  H    0.244490
     4  O   -0.502620
     5  H    0.260360
     6  H    0.253548
 Sum of Mulliken charges =  -0.00000

 Dipole moment (field-independent basis, Debye):
    X=             -2.4779    Y=             -3.1705    Z=              0.0000  Tot=              4.0239
 Quadrupole moment (field-independent basis, Debye-Ang):
   XX=             -9.8343   YY=             -8.2475   ZZ=            -14.7257
   XY=             -3.2262   XZ=              0.0000   YZ=             -0.0000

 Normal termination of Gaussian 16 at Sun Aug 28 01:58:55 2022.
