 Gaussian 16, Revision A.03,
 Gaussian 16:  ES64L-G16RevA.03 25-Dec-2016

 ------------------
 #p CCSD(T)/cc-pVTZ
 ------------------

 ------------
 H2O_H2O_3500
 ------------
 Symbolic Z-matrix:
 Charge =  0 Multiplicity = 1

                         Standard orientation:
 ---------------------------------------------------------------------
 Center     Atomic      Atomic             Coordinates (Angstroms)
 Number     Number       Type             X           Y           Z
 ---------------------------------------------------------------------
      1          8           0        0.092949   -2.482942    0.000000
      2          1           0        0.092949   -1.500341    0.000000
      3          1           0       -0.836544   -2.801609    0.000000
      4          8           0        0.092949    2.350155    0.000000
      5          1           0        0.092949    3.332757    0.000000
      6          1           0       -0.836544    2.031488    0.000000
 ---------------------------------------------------------------------

 SCF Done:  E(RHF) =  -152.107825325     A.U. after   10 cycles
 E2 =    -0.5259675120D+00 EUMP2 =    -0.15263379283659D+03
 CCSD(T)
 CCSD(T)= -0.15266099341D+03

 The electronic state is 1-A'.
 Alpha  occ. eigenvalues --  -20.56458 -20.55240  -1.33756  -1.32541  -0.71181
 Alpha  occ. eigenvalues --   -0.69929  -0.57219  -0.55992  -0.50865  -0.49654
 Alpha virt. eigenvalues --    0.11757   0.15274   0.19010   0.22792   0.53477
 Alpha virt. eigenvalues --    0.54854   0.56463   0.57958   0.67012   0.68825
 Alpha virt. eigenvalues --    0.78041   0.78694   0.79220   0.81345   0.82430

 Mulliken charges:
               1
     1  O   -0.509680
     2  H    0.258536
     3  H    0.250590
     4  O   -0.509851
     5  H    0.259531
     6  H    0.250874
 Sum of Mulliken charges =   0.00000

 Dipole moment (field-independent basis, Debye):
    X=             -3.1749    Y=              2.3574    Z=              0.0000  Tot=              3.9544
 Quadrupole moment (field-independent basis, Debye-Ang):
   XX=            -10.8520   YY=             -9.2456   ZZ=            -14.7121
   XY=              2.1520   XZ=              0.0000   YZ=              0.0000

 CCSD(T)=-152.6609934\RMSD=7.270e-09\PG=CS [SG(H4O2)]\\@
 Normal termination of Gaussian 16 at Fri Aug 26 22:03:37 2022.
