 Gaussian 16, Revision A.03,
 Gaussian 16:  ES64L-G16RevA.03 25-Dec-2016

 ------------------
 #p CCSD(T)/cc-pVTZ
 ------------------

 ------------
 H2O_H2O_1675
 ------------
 Symbolic Z-matrix:
 Charge =  0 Multiplicity = 1

                         Standard orientation:
 ---------------------------------------------------------------------
 Center     Atomic      Atomic             Coordinates (Angstroms)
 Number     Number       Type             X           Y           Z
 ---------------------------------------------------------------------
      1          8           0        0.092949   -1.754991    0.000000
      2          1           0        0.092949   -0.772390    0.000000
      3          1           0       -0.836544   -2.073658    0.000000
      4          8           0        0.092949    1.622204    0.000000
      5          1           0        0.092950    2.604806    0.000000
      6          1           0       -0.836544    1.303538    0.000000
 ---------------------------------------------------------------------

 SCF Done:  E(RHF) =  -152.108922341     A.U. after   10 cycles
 E2 =    -0.5272741692D+00 EUMP2 =    -0.15263619651000D+03
 CCSD(T)
 CCSD(T)= -0.15266331187D+03

 The electronic state is 1-A'.
 Alpha  occ. eigenvalues --  -20.57638 -20.54638  -1.34970  -1.31968  -0.72645
 Alpha  occ. eigenvalues --   -0.69205  -0.58459  -0.55360  -0.52039  -0.49070
 Alpha virt. eigenvalues --    0.11457   0.16220   0.20438   0.26894   0.50633
 Alpha virt. eigenvalues --    0.54672   0.57420   0.57799   0.67793   0.74182
 Alpha virt. eigenvalues --    0.74580   0.78063   0.80236   0.82156   0.83345

 Mulliken charges:
               1
     1  O   -0.517682
     2  H    0.269397
     3  H    0.241476
     4  O   -0.489362
     5  H    0.254087
     6  H    0.242084
 Sum of Mulliken charges =  -0.00000

 Dipole moment (field-independent basis, Debye):
    X=             -3.1152    Y=              2.5413    Z=              0.0000  Tot=              4.0203
 Quadrupole moment (field-independent basis, Debye-Ang):
   XX=            -10.8920   YY=             -9.1436   ZZ=            -14.7118
   XY=              2.1245   XZ=              0.0000   YZ=              0.0000

 Normal termination of Gaussian 16 at Sun Aug 28 00:30:02 2022.
