 Gaussian 16, Revision A.03,
 Gaussian 16:  ES64L-G16RevA.03 25-Dec-2016

 ------------------
 #p CCSD(T)/cc-pVTZ
 ------------------

 ------------
 H2O_H2O_2782
 ------------
 Symbolic Z-matrix:
 Charge =  0 Multiplicity = 1

                         Standard orientation:
 ---------------------------------------------------------------------
 Center     Atomic      Atomic             Coordinates (Angstroms)
 Number     Number       Type             X           Y           Z
 ---------------------------------------------------------------------
      1          8           0        0.073540    2.212305    0.000000
      2          1           0        0.072766    1.229704    0.000000
      3          1           0       -0.855702    2.531704   -0.000000
      4          8           0        0.073540   -2.045371    0.000000
      5          1           0        0.507439   -2.926982    0.000000
      6          1           0       -0.901139   -2.169903   -0.000000
 ---------------------------------------------------------------------

 SCF Done:  E(RHF) =  -152.109547966     A.U. after   10 cycles
 E2 =    -0.5260617223D+00 EUMP2 =    -0.15263560968812D+03
 CCSD(T)
 CCSD(T)= -0.15266275144D+03

 The electronic state is 1-A'.
 Alpha  occ. eigenvalues --  -20.56769 -20.54550  -1.34047  -1.31867  -0.71461
 Alpha  occ. eigenvalues --   -0.69249  -0.57573  -0.55339  -0.51170  -0.48995
 Alpha virt. eigenvalues --    0.12126   0.15971   0.19440   0.23165   0.53633
 Alpha virt. eigenvalues --    0.55339   0.56251   0.58606   0.68686   0.69492
 Alpha virt. eigenvalues --    0.77680   0.79020   0.79855   0.80273   0.83101

 Mulliken charges:
               1
     1  O   -0.516882
     2  H    0.264145
     3  H    0.249203
     4  O   -0.510430
     5  H    0.259870
     6  H    0.254093
 Sum of Mulliken charges =  -0.00000

 Dipole moment (field-independent basis, Debye):
    X=             -2.5024    Y=             -3.0239    Z=             -0.0000  Tot=              3.9251
 Quadrupole moment (field-independent basis, Debye-Ang):
   XX=             -9.8189   YY=             -7.7888   ZZ=            -14.7183
   XY=             -3.4874   XZ=              0.0000   YZ=             -0.0000

 Normal termination of Gaussian 16 at Fri Aug 26 17:16:55 2022.
