 Gaussian 16, Revision A.03,
 Gaussian 16:  ES64L-G16RevA.03 25-Dec-2016

 ------------------
 #p CCSD(T)/cc-pVTZ
 ------------------

 ------------
 H2O_H2O_4643
 ------------
 Symbolic Z-matrix:
 Charge =  0 Multiplicity = 1

                         Standard orientation:
 ---------------------------------------------------------------------
 Center     Atomic      Atomic             Coordinates (Angstroms)
 Number     Number       Type             X           Y           Z
 ---------------------------------------------------------------------
      1          8           0        0.033748    2.956000   -0.000000
      2          1           0        0.031997    1.973400   -0.000000
      3          1           0       -0.895175    3.276322   -0.000000
      4          8           0        0.033748   -2.778445    0.000000
      5          1           0        0.940882   -3.156087    0.000000
      6          1           0       -0.617675   -3.514076    0.000000
 ---------------------------------------------------------------------

 SCF Done:  E(RHF) =  -152.108409992     A.U. after   10 cycles
 E2 =    -0.5258005360D+00 EUMP2 =    -0.15263421052811D+03
 CCSD(T)
 CCSD(T)= -0.15266140885D+03

 The electronic state is 1-A'.
 Alpha  occ. eigenvalues --  -20.56157 -20.54986  -1.33459  -1.32293  -0.70863
 Alpha  occ. eigenvalues --   -0.69697  -0.56952  -0.55765  -0.50578  -0.49417
 Alpha virt. eigenvalues --    0.13421   0.14879   0.19692   0.21013   0.53655
 Alpha virt. eigenvalues --    0.54845   0.56690   0.57790   0.66908   0.68656
 Alpha virt. eigenvalues --    0.78306   0.79440   0.79654   0.80364   0.82528

 Mulliken charges:
               1
     1  O   -0.514049
     2  H    0.260016
     3  H    0.253947
     4  O   -0.514668
     5  H    0.257706
     6  H    0.257049
 Sum of Mulliken charges =   0.00000

 Dipole moment (field-independent basis, Debye):
    X=             -1.1582    Y=             -3.1127    Z=              0.0000  Tot=              3.3212
 Quadrupole moment (field-independent basis, Debye-Ang):
   XX=             -9.1870   YY=             -6.2882   ZZ=            -14.7148
   XY=             -6.5643   XZ=              0.0000   YZ=             -0.0000

 8772\MP4DQ=-152.6433333\MP4SDQ=-152.6463799\CCSD=-152.6457956\CCSD(T)=
 Normal termination of Gaussian 16 at Sun Aug 28 04:35:08 2022.
