 Gaussian 16, Revision A.03,
 Gaussian 16:  ES64L-G16RevA.03 25-Dec-2016

 ------------------
 #p CCSD(T)/cc-pVTZ
 ------------------

 ------------
 H2O_H2O_2493
 ------------
 Symbolic Z-matrix:
 Charge =  0 Multiplicity = 1

                         Standard orientation:
 ---------------------------------------------------------------------
 Center     Atomic      Atomic             Coordinates (Angstroms)
 Number     Number       Type             X           Y           Z
 ---------------------------------------------------------------------
      1          8           0        0.033816    2.098390    0.000000
      2          1           0        0.031317    1.115791    0.000000
      3          1           0       -0.894864    2.419419    0.000000
      4          8           0        0.033816   -1.920886    0.000000
      5          1           0        0.940662   -2.299218    0.000000
      6          1           0       -0.618166   -2.656022    0.000000
 ---------------------------------------------------------------------

 SCF Done:  E(RHF) =  -152.111026802     A.U. after   10 cycles
 E2 =    -0.5260814235D+00 EUMP2 =    -0.15263710822536D+03
 CCSD(T)
 CCSD(T)= -0.15266421352D+03

 The electronic state is 1-A'.
 Alpha  occ. eigenvalues --  -20.56940 -20.54141  -1.34204  -1.31474  -0.71600
 Alpha  occ. eigenvalues --   -0.68878  -0.57806  -0.54964  -0.51341  -0.48621
 Alpha virt. eigenvalues --    0.12346   0.16468   0.19297   0.24231   0.52901
 Alpha virt. eigenvalues --    0.55513   0.56420   0.58808   0.69035   0.70737
 Alpha virt. eigenvalues --    0.77360   0.78773   0.80224   0.81076   0.83713

 Mulliken charges:
               1
     1  O   -0.524460
     2  H    0.266404
     3  H    0.251961
     4  O   -0.511912
     5  H    0.260493
     6  H    0.257515
 Sum of Mulliken charges =  -0.00000

 Dipole moment (field-independent basis, Debye):
    X=             -1.1502    Y=             -3.2550    Z=             -0.0000  Tot=              3.4523
 Quadrupole moment (field-independent basis, Debye-Ang):
   XX=             -9.1862   YY=             -7.5979   ZZ=            -14.7235
   XY=             -4.8099   XZ=             -0.0000   YZ=             -0.0000

 Normal termination of Gaussian 16 at Sun Aug 28 07:43:02 2022.
