 Gaussian 16, Revision A.03,
 Gaussian 16:  ES64L-G16RevA.03 25-Dec-2016

 ------------------
 #p CCSD(T)/cc-pVTZ
 ------------------

 ------------
 H2O_H2O_4655
 ------------
 Symbolic Z-matrix:
 Charge =  0 Multiplicity = 1

                         Standard orientation:
 ---------------------------------------------------------------------
 Center     Atomic      Atomic             Coordinates (Angstroms)
 Number     Number       Type             X           Y           Z
 ---------------------------------------------------------------------
      1          8           0        0.079844    2.955931   -0.000000
      2          1           0        0.079457    1.973330   -0.000000
      3          1           0       -0.849524    3.274963   -0.000000
      4          8           0        0.079844   -2.796853    0.000000
      5          1           0        0.395324   -3.727432    0.000000
      6          1           0       -0.902753   -2.793487    0.000000
 ---------------------------------------------------------------------

 SCF Done:  E(RHF) =  -152.107946543     A.U. after   10 cycles
 E2 =    -0.5258437079D+00 EUMP2 =    -0.15263379025083D+03
 CCSD(T)
 CCSD(T)= -0.15266099812D+03

 The electronic state is 1-A'.
 Alpha  occ. eigenvalues --  -20.56173 -20.55156  -1.33475  -1.32460  -0.70885
 Alpha  occ. eigenvalues --   -0.69858  -0.56947  -0.55919  -0.50589  -0.49577
 Alpha virt. eigenvalues --    0.13221   0.14742   0.19402   0.21113   0.53472
 Alpha virt. eigenvalues --    0.54819   0.56624   0.57706   0.66959   0.68524
 Alpha virt. eigenvalues --    0.78299   0.79289   0.79598   0.80792   0.82099

 Mulliken charges:
               1
     1  O   -0.511260
     2  H    0.258760
     3  H    0.252438
     4  O   -0.512207
     5  H    0.258232
     6  H    0.254036
 Sum of Mulliken charges =  -0.00000

 Dipole moment (field-independent basis, Debye):
    X=             -2.7391    Y=             -2.7885    Z=              0.0000  Tot=              3.9087
 Quadrupole moment (field-independent basis, Debye-Ang):
   XX=            -10.0934   YY=             -7.4519   ZZ=            -14.7131
   XY=             -3.4838   XZ=              0.0000   YZ=             -0.0000

 Normal termination of Gaussian 16 at Sun Aug 28 04:40:34 2022.
