 Gaussian 16, Revision A.03,
 Gaussian 16:  ES64L-G16RevA.03 25-Dec-2016

 ------------------
 #p CCSD(T)/cc-pVTZ
 ------------------

 ------------
 H2O_H2O_2957
 ------------
 Symbolic Z-matrix:
 Charge =  0 Multiplicity = 1

                         Standard orientation:
 ---------------------------------------------------------------------
 Center     Atomic      Atomic             Coordinates (Angstroms)
 Number     Number       Type             X           Y           Z
 ---------------------------------------------------------------------
      1          8           0        0.073538    2.282111   -0.000000
      2          1           0        0.072788    1.299510   -0.000000
      3          1           0       -0.855712    2.601486    0.000000
      4          8           0        0.073538   -2.115172   -0.000000
      5          1           0        0.507459   -2.996772   -0.000000
      6          1           0       -0.901137   -2.239730    0.000000
 ---------------------------------------------------------------------

 SCF Done:  E(RHF) =  -152.109291963     A.U. after   10 cycles
 E2 =    -0.5260078845D+00 EUMP2 =    -0.15263529984726D+03
 CCSD(T)
 CCSD(T)= -0.15266245200D+03

 The electronic state is 1-A'.
 Alpha  occ. eigenvalues --  -20.56676 -20.54629  -1.33959  -1.31944  -0.71372
 Alpha  occ. eigenvalues --   -0.69329  -0.57475  -0.55416  -0.51081  -0.49071
 Alpha virt. eigenvalues --    0.12192   0.15832   0.19433   0.22762   0.53661
 Alpha virt. eigenvalues --    0.55224   0.56302   0.58513   0.68220   0.69315
 Alpha virt. eigenvalues --    0.77806   0.78874   0.79774   0.80223   0.83025

 Mulliken charges:
               1
     1  O   -0.515882
     2  H    0.263387
     3  H    0.249757
     4  O   -0.511495
     5  H    0.259977
     6  H    0.254255
 Sum of Mulliken charges =  -0.00000

 Dipole moment (field-independent basis, Debye):
    X=             -2.5053    Y=             -3.0077    Z=              0.0000  Tot=              3.9144
 Quadrupole moment (field-independent basis, Debye-Ang):
   XX=             -9.8171   YY=             -7.7097   ZZ=            -14.7176
   XY=             -3.5349   XZ=              0.0000   YZ=              0.0000

 Normal termination of Gaussian 16 at Fri Aug 26 18:44:25 2022.
