 Gaussian 16, Revision A.03,
 Gaussian 16:  ES64L-G16RevA.03 25-Dec-2016

 ------------------
 #p CCSD(T)/cc-pVTZ
 ------------------

 ------------
 H2O_H2O_3835
 ------------
 Symbolic Z-matrix:
 Charge =  0 Multiplicity = 1

                         Standard orientation:
 ---------------------------------------------------------------------
 Center     Atomic      Atomic             Coordinates (Angstroms)
 Number     Number       Type             X           Y           Z
 ---------------------------------------------------------------------
      1          8           0        0.063225    2.635792    0.000000
      2          1           0        0.062235    1.653191    0.000000
      3          1           0       -0.865947    2.955395    0.000000
      4          8           0        0.063225   -2.460269   -0.000000
      5          1           0        0.660609   -3.240420   -0.000000
      6          1           0       -0.868498   -2.772354   -0.000000
 ---------------------------------------------------------------------

 SCF Done:  E(RHF) =  -152.108665882     A.U. after   10 cycles
 E2 =    -0.5258490029D+00 EUMP2 =    -0.15263451488532D+03
 CCSD(T)
 CCSD(T)= -0.15266169929D+03

 The electronic state is 1-A'.
 Alpha  occ. eigenvalues --  -20.56342 -20.54826  -1.33638  -1.32136  -0.71044
 Alpha  occ. eigenvalues --   -0.69531  -0.57138  -0.55608  -0.50758  -0.49260
 Alpha virt. eigenvalues --    0.12889   0.15256   0.19549   0.21457   0.53423
 Alpha virt. eigenvalues --    0.54980   0.56526   0.57892   0.66717   0.69157
 Alpha virt. eigenvalues --    0.78140   0.79039   0.79589   0.80023   0.82870

 Mulliken charges:
               1
     1  O   -0.514286
     2  H    0.261620
     3  H    0.252035
     4  O   -0.514652
     5  H    0.259520
     6  H    0.255763
 Sum of Mulliken charges =  -0.00000

 Dipole moment (field-independent basis, Debye):
    X=             -2.1635    Y=             -3.1054    Z=             -0.0000  Tot=              3.7848
 Quadrupole moment (field-independent basis, Debye-Ang):
   XX=             -9.4549   YY=             -6.8852   ZZ=            -14.7157
   XY=             -4.3929   XZ=             -0.0000   YZ=              0.0000

 Normal termination of Gaussian 16 at Fri Aug 26 23:57:26 2022.
