 Gaussian 16, Revision A.03,
 Gaussian 16:  ES64L-G16RevA.03 25-Dec-2016

 ------------------
 #p CCSD(T)/cc-pVTZ
 ------------------

 ------------
 H2O_H2O_3928
 ------------
 Symbolic Z-matrix:
 Charge =  0 Multiplicity = 1

                         Standard orientation:
 ---------------------------------------------------------------------
 Center     Atomic      Atomic             Coordinates (Angstroms)
 Number     Number       Type             X           Y           Z
 ---------------------------------------------------------------------
      1          8           0        0.085598   -2.661599    0.000000
      2          1           0        0.085357   -1.678997    0.000000
      3          1           0       -0.843817   -2.980493    0.000000
      4          8           0        0.085598    2.511996    0.000000
      5          1           0        0.277059    3.475765    0.000000
      6          1           0       -0.888171    2.380549    0.000000
 ---------------------------------------------------------------------

 SCF Done:  E(RHF) =  -152.108026709     A.U. after   10 cycles
 E2 =    -0.5258878581D+00 EUMP2 =    -0.15263391456698D+03
 CCSD(T)
 CCSD(T)= -0.15266111529D+03

 The electronic state is 1-A'.
 Alpha  occ. eigenvalues --  -20.56327 -20.55123  -1.33627  -1.32428  -0.71042
 Alpha  occ. eigenvalues --   -0.69821  -0.57100  -0.55886  -0.50740  -0.49544
 Alpha virt. eigenvalues --    0.12482   0.15081   0.19126   0.21841   0.53167
 Alpha virt. eigenvalues --    0.55005   0.56496   0.57890   0.66735   0.68879
 Alpha virt. eigenvalues --    0.78158   0.79021   0.79321   0.81118   0.82517

 Mulliken charges:
               1
     1  O   -0.511036
     2  H    0.259225
     3  H    0.251465
     4  O   -0.511952
     5  H    0.259255
     6  H    0.253043
 Sum of Mulliken charges =  -0.00000

 Dipole moment (field-independent basis, Debye):
    X=             -2.9297    Y=              2.6411    Z=              0.0000  Tot=              3.9444
 Quadrupole moment (field-independent basis, Debye-Ang):
   XX=            -10.3997   YY=             -8.2410   ZZ=            -14.7132
   XY=              2.8811   XZ=              0.0000   YZ=              0.0000

 Normal termination of Gaussian 16 at Sat Aug 27 00:31:13 2022.
