 Gaussian 16, Revision A.03,
 Gaussian 16:  ES64L-G16RevA.03 25-Dec-2016

 ------------------
 #p CCSD(T)/cc-pVTZ
 ------------------

 ------------
 H2O_H2O_3409
 ------------
 Symbolic Z-matrix:
 Charge =  0 Multiplicity = 1

                         Standard orientation:
 ---------------------------------------------------------------------
 Center     Atomic      Atomic             Coordinates (Angstroms)
 Number     Number       Type             X           Y           Z
 ---------------------------------------------------------------------
      1          8           0        0.066756    2.464958   -0.000000
      2          1           0        0.065822    1.482357   -0.000000
      3          1           0       -0.862433    2.784509   -0.000000
      4          8           0        0.066756   -2.291848    0.000000
      5          1           0        0.611883   -3.109370    0.000000
      6          1           0       -0.883370   -2.542382    0.000000
 ---------------------------------------------------------------------

 SCF Done:  E(RHF) =  -152.108972765     A.U. after   10 cycles
 E2 =    -0.5258998761D+00 EUMP2 =    -0.15263487264067D+03
 CCSD(T)
 CCSD(T)= -0.15266204248D+03

 The electronic state is 1-A'.
 Alpha  occ. eigenvalues --  -20.56481 -20.54718  -1.33771  -1.32031  -0.71179
 Alpha  occ. eigenvalues --   -0.69422  -0.57279  -0.55505  -0.50892  -0.49157
 Alpha virt. eigenvalues --    0.12557   0.15535   0.19476   0.21938   0.53399
 Alpha virt. eigenvalues --    0.55114   0.56419   0.58145   0.67138   0.69306
 Alpha virt. eigenvalues --    0.78014   0.78783   0.79686   0.80005   0.82967

 Mulliken charges:
               1
     1  O   -0.515066
     2  H    0.262450
     3  H    0.251199
     4  O   -0.513955
     5  H    0.259978
     6  H    0.255394
 Sum of Mulliken charges =  -0.00000

 Dipole moment (field-independent basis, Debye):
    X=             -2.2802    Y=             -3.0858    Z=              0.0000  Tot=              3.8369
 Quadrupole moment (field-independent basis, Debye-Ang):
   XX=             -9.5632   YY=             -7.2325   ZZ=            -14.7168
   XY=             -4.0363   XZ=              0.0000   YZ=             -0.0000

 Normal termination of Gaussian 16 at Fri Aug 26 21:32:19 2022.
