 Gaussian 16, Revision A.03,
 Gaussian 16:  ES64L-G16RevA.03 25-Dec-2016

 ------------------
 #p CCSD(T)/cc-pVTZ
 ------------------

 ------------
 H2O_H2O_2608
 ------------
 Symbolic Z-matrix:
 Charge =  0 Multiplicity = 1

                         Standard orientation:
 ---------------------------------------------------------------------
 Center     Atomic      Atomic             Coordinates (Angstroms)
 Number     Number       Type             X           Y           Z
 ---------------------------------------------------------------------
      1          8           0        0.070206    2.144294   -0.000000
      2          1           0        0.069268    1.161693   -0.000000
      3          1           0       -0.858983    2.463847   -0.000000
      4          8           0        0.070206   -1.974061    0.000000
      5          1           0        0.560694   -2.825487    0.000000
      6          1           0       -0.894272   -2.161914    0.000000
 ---------------------------------------------------------------------

 SCF Done:  E(RHF) =  -152.110001682     A.U. after   10 cycles
 E2 =    -0.5261158593D+00 EUMP2 =    -0.15263611754154D+03
 CCSD(T)
 CCSD(T)= -0.15266324464D+03

 The electronic state is 1-A'.
 Alpha  occ. eigenvalues --  -20.56874 -20.54400  -1.34146  -1.31722  -0.71558
 Alpha  occ. eigenvalues --   -0.69104  -0.57693  -0.55195  -0.51272  -0.48854
 Alpha virt. eigenvalues --    0.12139   0.16154   0.19422   0.23648   0.53316
 Alpha virt. eigenvalues --    0.55568   0.56139   0.58716   0.68865   0.70097
 Alpha virt. eigenvalues --    0.77507   0.79039   0.80001   0.80523   0.83268

 Mulliken charges:
               1
     1  O   -0.518752
     2  H    0.265246
     3  H    0.248804
     4  O   -0.509643
     5  H    0.259891
     6  H    0.254454
 Sum of Mulliken charges =  -0.00000

 Dipole moment (field-independent basis, Debye):
    X=             -2.3862    Y=             -3.1040    Z=              0.0000  Tot=              3.9152
 Quadrupole moment (field-independent basis, Debye-Ang):
   XX=             -9.6893   YY=             -7.7588   ZZ=            -14.7198
   XY=             -3.5959   XZ=              0.0000   YZ=             -0.0000

 Normal termination of Gaussian 16 at Fri Aug 26 15:58:25 2022.
