 Gaussian 16, Revision A.03,
 Gaussian 16:  ES64L-G16RevA.03 25-Dec-2016

 ------------------
 #p CCSD(T)/cc-pVTZ
 ------------------

 ------------
 H2O_H2O_1265
 ------------
 Symbolic Z-matrix:
 Charge =  0 Multiplicity = 1

                         Standard orientation:
 ---------------------------------------------------------------------
 Center     Atomic      Atomic             Coordinates (Angstroms)
 Number     Number       Type             X           Y           Z
 ---------------------------------------------------------------------
      1          8           0        0.044939    1.611297    0.000000
      2          1           0        0.042255    0.628699    0.000000
      3          1           0       -0.883680    1.932500    0.000000
      4          8           0        0.044939   -1.430977    0.000000
      5          1           0        0.860448   -1.979111    0.000000
      6          1           0       -0.738046   -2.024645    0.000000
 ---------------------------------------------------------------------

 SCF Done:  E(RHF) =  -152.114227874     A.U. after   10 cycles
 E2 =    -0.5277083737D+00 EUMP2 =    -0.15264193624730D+03
 CCSD(T)
 CCSD(T)= -0.15266887820D+03

 The electronic state is 1-A'.
 Alpha  occ. eigenvalues --  -20.58329 -20.52364  -1.35677  -1.29898  -0.72965
 Alpha  occ. eigenvalues --   -0.67902  -0.59454  -0.53119  -0.52788  -0.47038
 Alpha virt. eigenvalues --    0.11978   0.17913   0.18882   0.30482   0.49223
 Alpha virt. eigenvalues --    0.54713   0.56045   0.60311   0.68971   0.71648
 Alpha virt. eigenvalues --    0.73442   0.77049   0.82035   0.82779   0.84963

 Mulliken charges:
               1
     1  O   -0.552694
     2  H    0.286349
     3  H    0.244075
     4  O   -0.502826
     5  H    0.266216
     6  H    0.258880
 Sum of Mulliken charges =  -0.00000

 Dipole moment (field-independent basis, Debye):
    X=             -1.4973    Y=             -3.6410    Z=              0.0000  Tot=              3.9368
 Quadrupole moment (field-independent basis, Debye-Ang):
   XX=             -9.1590   YY=             -8.4872   ZZ=            -14.7342
   XY=             -3.6207   XZ=              0.0000   YZ=              0.0000

 Normal termination of Gaussian 16 at Fri Aug 26 23:28:56 2022.
