 Gaussian 16, Revision A.03,
 Gaussian 16:  ES64L-G16RevA.03 25-Dec-2016

 ------------------
 #p CCSD(T)/cc-pVTZ
 ------------------

 ------------
 H2O_H2O_4693
 ------------
 Symbolic Z-matrix:
 Charge =  0 Multiplicity = 1

                         Standard orientation:
 ---------------------------------------------------------------------
 Center     Atomic      Atomic             Coordinates (Angstroms)
 Number     Number       Type             X           Y           Z
 ---------------------------------------------------------------------
      1          8           0        0.033747    2.975944    0.000000
      2          1           0        0.032008    1.993344    0.000000
      3          1           0       -0.895180    3.296255   -0.000000
      4          8           0        0.033747   -2.798388    0.000000
      5          1           0        0.940886   -3.176019    0.000000
      6          1           0       -0.617667   -3.534028   -0.000000
 ---------------------------------------------------------------------

 SCF Done:  E(RHF) =  -152.108386929     A.U. after   10 cycles
 E2 =    -0.5258006634D+00 EUMP2 =    -0.15263418759191D+03
 CCSD(T)
 CCSD(T)= -0.15266138662D+03

 The electronic state is 1-A'.
 Alpha  occ. eigenvalues --  -20.56149 -20.54996  -1.33452  -1.32303  -0.70856
 Alpha  occ. eigenvalues --   -0.69707  -0.56944  -0.55775  -0.50570  -0.49426
 Alpha virt. eigenvalues --    0.13442   0.14859   0.19699   0.20992   0.53666
 Alpha virt. eigenvalues --    0.54837   0.56696   0.57786   0.66935   0.68626
 Alpha virt. eigenvalues --    0.78314   0.79431   0.79672   0.80398   0.82471

 Mulliken charges:
               1
     1  O   -0.513950
     2  H    0.259912
     3  H    0.253963
     4  O   -0.514561
     5  H    0.257642
     6  H    0.256994
 Sum of Mulliken charges =  -0.00000

 Dipole moment (field-independent basis, Debye):
    X=             -1.1583    Y=             -3.1116    Z=             -0.0000  Tot=              3.3202
 Quadrupole moment (field-independent basis, Debye-Ang):
   XX=             -9.1870   YY=             -6.2574   ZZ=            -14.7147
   XY=             -6.6051   XZ=              0.0000   YZ=             -0.0000

 Normal termination of Gaussian 16 at Sun Aug 28 05:07:18 2022.
