 Gaussian 16, Revision A.03,
 Gaussian 16:  ES64L-G16RevA.03 25-Dec-2016

 ------------------
 #p CCSD(T)/cc-pVTZ
 ------------------

 ------------
 H2O_H2O_3441
 ------------
 Symbolic Z-matrix:
 Charge =  0 Multiplicity = 1

                         Standard orientation:
 ---------------------------------------------------------------------
 Center     Atomic      Atomic             Coordinates (Angstroms)
 Number     Number       Type             X           Y           Z
 ---------------------------------------------------------------------
      1          8           0        0.041131    2.478640    0.000000
      2          1           0        0.039290    1.496040    0.000000
      3          1           0       -0.887763    2.799047    0.000000
      4          8           0        0.041131   -2.298707   -0.000000
      5          1           0        0.891168   -2.791600   -0.000000
      6          1           0       -0.700797   -2.942949   -0.000000
 ---------------------------------------------------------------------

 SCF Done:  E(RHF) =  -152.109322732     A.U. after   10 cycles
 E2 =    -0.5258598878D+00 EUMP2 =    -0.15263518262009D+03
 CCSD(T)
 CCSD(T)= -0.15266234621D+03

 The electronic state is 1-A'.
 Alpha  occ. eigenvalues --  -20.56461 -20.54625  -1.33750  -1.31941  -0.71151
 Alpha  occ. eigenvalues --   -0.69339  -0.57275  -0.55425  -0.50876  -0.49072
 Alpha virt. eigenvalues --    0.12737   0.15590   0.19540   0.21909   0.53382
 Alpha virt. eigenvalues --    0.55158   0.56485   0.58066   0.67133   0.69343
 Alpha virt. eigenvalues --    0.78029   0.79021   0.79526   0.79763   0.83073

 Mulliken charges:
               1
     1  O   -0.517296
     2  H    0.263060
     3  H    0.252773
     4  O   -0.515725
     5  H    0.259588
     6  H    0.257600
 Sum of Mulliken charges =  -0.00000

 Dipole moment (field-independent basis, Debye):
    X=             -1.4057    Y=             -3.2063    Z=             -0.0000  Tot=              3.5009
 Quadrupole moment (field-independent basis, Debye-Ang):
   XX=             -9.1491   YY=             -6.9179   ZZ=            -14.7181
   XY=             -5.2500   XZ=             -0.0000   YZ=              0.0000

 Normal termination of Gaussian 16 at Fri Aug 26 21:43:00 2022.
