 Gaussian 16, Revision A.03,
 Gaussian 16:  ES64L-G16RevA.03 25-Dec-2016

 ------------------
 #p CCSD(T)/cc-pVTZ
 ------------------

 ------------
 H2O_H2O_3719
 ------------
 Symbolic Z-matrix:
 Charge =  0 Multiplicity = 1

                         Standard orientation:
 ---------------------------------------------------------------------
 Center     Atomic      Atomic             Coordinates (Angstroms)
 Number     Number       Type             X           Y           Z
 ---------------------------------------------------------------------
      1          8           0        0.030169    2.585990    0.000000
      2          1           0        0.028037    1.603391    0.000000
      3          1           0       -0.898630    2.906672    0.000000
      4          8           0        0.030169   -2.410369   -0.000000
      5          1           0        0.959937   -2.728234   -0.000000
      6          1           0       -0.572047   -3.186797   -0.000000
 ---------------------------------------------------------------------

 SCF Done:  E(RHF) =  -152.109043109     A.U. after   10 cycles
 E2 =    -0.5258269814D+00 EUMP2 =    -0.15263487009022D+03
 CCSD(T)
 CCSD(T)= -0.15266204546D+03

 The electronic state is 1-A'.
 Alpha  occ. eigenvalues --  -20.56364 -20.54762  -1.33659  -1.32075  -0.71061
 Alpha  occ. eigenvalues --   -0.69477  -0.57174  -0.55557  -0.50782  -0.49205
 Alpha virt. eigenvalues --    0.12858   0.15385   0.19515   0.21661   0.53388
 Alpha virt. eigenvalues --    0.55105   0.56561   0.57902   0.66782   0.69227
 Alpha virt. eigenvalues --    0.78116   0.78958   0.79638   0.80019   0.82946

 Mulliken charges:
               1
     1  O   -0.516550
     2  H    0.261962
     3  H    0.253766
     4  O   -0.516152
     5  H    0.258800
     6  H    0.258175
 Sum of Mulliken charges =  -0.00000

 Dipole moment (field-independent basis, Debye):
    X=             -1.0329    Y=             -3.1123    Z=             -0.0000  Tot=              3.2792
 Quadrupole moment (field-independent basis, Debye-Ang):
   XX=             -9.2297   YY=             -6.9385   ZZ=            -14.7170
   XY=             -5.9951   XZ=             -0.0000   YZ=              0.0000

 Normal termination of Gaussian 16 at Fri Aug 26 23:17:34 2022.
