 Gaussian 16, Revision A.03,
 Gaussian 16:  ES64L-G16RevA.03 25-Dec-2016

 ------------------
 #p CCSD(T)/cc-pVTZ
 ------------------

 ------------
 H2O_H2O_3498
 ------------
 Symbolic Z-matrix:
 Charge =  0 Multiplicity = 1

                         Standard orientation:
 ---------------------------------------------------------------------
 Center     Atomic      Atomic             Coordinates (Angstroms)
 Number     Number       Type             X           Y           Z
 ---------------------------------------------------------------------
      1          8           0       -0.016612    2.489605    0.000000
      2          1           0       -0.013923    1.507007    0.000000
      3          1           0        0.912005    2.810815    0.000000
      4          8           0       -0.016612   -2.326209    0.000000
      5          1           0       -0.996931   -2.393157    0.000000
      6          1           0        0.364644   -3.231831    0.000000
 ---------------------------------------------------------------------

 SCF Done:  E(RHF) =  -152.109160102     A.U. after   10 cycles
 E2 =    -0.5258452113D+00 EUMP2 =    -0.15263500531376D+03
 CCSD(T)
 CCSD(T)= -0.15266217582D+03

 The electronic state is 1-A'.
 Alpha  occ. eigenvalues --  -20.56426 -20.54813  -1.33722  -1.32127  -0.71128
 Alpha  occ. eigenvalues --   -0.69534  -0.57239  -0.55612  -0.50845  -0.49258
 Alpha virt. eigenvalues --    0.12527   0.15512   0.19263   0.22231   0.53325
 Alpha virt. eigenvalues --    0.55349   0.56545   0.57963   0.66988   0.69251
 Alpha virt. eigenvalues --    0.78055   0.78705   0.79585   0.80630   0.82924

 Mulliken charges:
               1
     1  O   -0.517252
     2  H    0.261384
     3  H    0.254766
     4  O   -0.515982
     5  H    0.258084
     6  H    0.259000
 Sum of Mulliken charges =  -0.00000

 Dipole moment (field-independent basis, Debye):
    X=              0.5707    Y=             -2.9046    Z=              0.0000  Tot=              2.9601
 Quadrupole moment (field-independent basis, Debye-Ang):
   XX=             -9.5428   YY=             -7.6188   ZZ=            -14.7173
   XY=              6.5347   XZ=              0.0000   YZ=              0.0000

 CCSD(T)=-152.6621758\RMSD=6.996e-09\PG=CS [SG(H4O2)]\\@
 Normal termination of Gaussian 16 at Fri Aug 26 22:02:34 2022.
