 Gaussian 16, Revision A.03,
 Gaussian 16:  ES64L-G16RevA.03 25-Dec-2016

 ------------------
 #p CCSD(T)/cc-pVTZ
 ------------------

 ------------
 H2O_H2O_1711
 ------------
 Symbolic Z-matrix:
 Charge =  0 Multiplicity = 1

                         Standard orientation:
 ---------------------------------------------------------------------
 Center     Atomic      Atomic             Coordinates (Angstroms)
 Number     Number       Type             X           Y           Z
 ---------------------------------------------------------------------
      1          8           0        0.059678    1.789198   -0.000000
      2          1           0        0.058016    0.806598   -0.000000
      3          1           0       -0.869274    2.109437   -0.000000
      4          8           0        0.059678   -1.611804    0.000000
      5          1           0        0.706301   -2.351658    0.000000
      6          1           0       -0.849894   -1.983536    0.000000
 ---------------------------------------------------------------------

 SCF Done:  E(RHF) =  -152.112832076     A.U. after   10 cycles
 E2 =    -0.5268176415D+00 EUMP2 =    -0.15263964971774D+03
 CCSD(T)
 CCSD(T)= -0.15266668574D+03

 The electronic state is 1-A'.
 Alpha  occ. eigenvalues --  -20.57677 -20.53396  -1.34941  -1.30786  -0.72321
 Alpha  occ. eigenvalues --   -0.68277  -0.58682  -0.54190  -0.52073  -0.47932
 Alpha virt. eigenvalues --    0.12043   0.17146   0.19189   0.27642   0.50400
 Alpha virt. eigenvalues --    0.55070   0.56328   0.58962   0.69216   0.72555
 Alpha virt. eigenvalues --    0.75177   0.77060   0.81081   0.83182   0.84403

 Mulliken charges:
               1
     1  O   -0.532650
     2  H    0.272944
     3  H    0.245355
     4  O   -0.505259
     5  H    0.263136
     6  H    0.256474
 Sum of Mulliken charges =  -0.00000

 Dipole moment (field-independent basis, Debye):
    X=             -2.0075    Y=             -3.4082    Z=              0.0000  Tot=              3.9554
 Quadrupole moment (field-independent basis, Debye-Ang):
   XX=             -9.3756   YY=             -8.1341   ZZ=            -14.7313
   XY=             -3.6042   XZ=              0.0000   YZ=             -0.0000

 Normal termination of Gaussian 16 at Sun Aug 28 00:52:59 2022.
