 Gaussian 16, Revision A.03,
 Gaussian 16:  ES64L-G16RevA.03 25-Dec-2016

 ------------------
 #p CCSD(T)/cc-pVTZ
 ------------------

 ------------
 H2O_H2O_2208
 ------------
 Symbolic Z-matrix:
 Charge =  0 Multiplicity = 1

                         Standard orientation:
 ---------------------------------------------------------------------
 Center     Atomic      Atomic             Coordinates (Angstroms)
 Number     Number       Type             X           Y           Z
 ---------------------------------------------------------------------
      1          8           0        0.070213    1.984738    0.000000
      2          1           0        0.069196    1.002137    0.000000
      3          1           0       -0.858950    2.304365   -0.000000
      4          8           0        0.070213   -1.814516    0.000000
      5          1           0        0.560633   -2.665982    0.000000
      6          1           0       -0.894280   -2.002291   -0.000000
 ---------------------------------------------------------------------

 SCF Done:  E(RHF) =  -152.110864576     A.U. after   10 cycles
 E2 =    -0.5263405337D+00 EUMP2 =    -0.15263720510951D+03
 CCSD(T)
 CCSD(T)= -0.15266430176D+03

 The electronic state is 1-A'.
 Alpha  occ. eigenvalues --  -20.57166 -20.54128  -1.34429  -1.31462  -0.71843
 Alpha  occ. eigenvalues --   -0.68849  -0.58026  -0.54923  -0.51557  -0.48599
 Alpha virt. eigenvalues --    0.12041   0.16500   0.19404   0.25051   0.52345
 Alpha virt. eigenvalues --    0.55831   0.55945   0.58534   0.68854   0.71899
 Alpha virt. eigenvalues --    0.76809   0.78590   0.80315   0.83148   0.83495

 Mulliken charges:
               1
     1  O   -0.522039
     2  H    0.267083
     3  H    0.247088
     4  O   -0.506553
     5  H    0.260249
     6  H    0.254171
 Sum of Mulliken charges =  -0.00000

 Dipole moment (field-independent basis, Debye):
    X=             -2.3777    Y=             -3.1600    Z=             -0.0000  Tot=              3.9547
 Quadrupole moment (field-independent basis, Debye-Ang):
   XX=             -9.6947   YY=             -7.9684   ZZ=            -14.7229
   XY=             -3.4684   XZ=              0.0000   YZ=             -0.0000

 36994\MP4DQ=-152.6461316\MP4SDQ=-152.649213\CCSD=-152.6486069\CCSD(T)=
 Normal termination of Gaussian 16 at Sun Aug 28 05:26:26 2022.
