 Gaussian 16, Revision A.03,
 Gaussian 16:  ES64L-G16RevA.03 25-Dec-2016

 ------------------
 #p CCSD(T)/cc-pVTZ
 ------------------

 ------------
 H2O_H2O_3748
 ------------
 Symbolic Z-matrix:
 Charge =  0 Multiplicity = 1

                         Standard orientation:
 ---------------------------------------------------------------------
 Center     Atomic      Atomic             Coordinates (Angstroms)
 Number     Number       Type             X           Y           Z
 ---------------------------------------------------------------------
      1          8           0       -0.016603    2.589326    0.000000
      2          1           0       -0.014021    1.606728    0.000000
      3          1           0        0.912049    2.910434    0.000000
      4          8           0       -0.016603   -2.425926    0.000000
      5          1           0       -0.996928   -2.492768    0.000000
      6          1           0        0.364555   -3.331590    0.000000
 ---------------------------------------------------------------------

 SCF Done:  E(RHF) =  -152.108923217     A.U. after   10 cycles
 E2 =    -0.5258237235D+00 EUMP2 =    -0.15263474694013D+03
 CCSD(T)
 CCSD(T)= -0.15266192674D+03

 The electronic state is 1-A'.
 Alpha  occ. eigenvalues --  -20.56349 -20.54888  -1.33647  -1.32199  -0.71053
 Alpha  occ. eigenvalues --   -0.69606  -0.57157  -0.55681  -0.50769  -0.49329
 Alpha virt. eigenvalues --    0.12693   0.15336   0.19282   0.21926   0.53243
 Alpha virt. eigenvalues --    0.55230   0.56586   0.57886   0.66753   0.69136
 Alpha virt. eigenvalues --    0.78128   0.78849   0.79519   0.80663   0.82836

 Mulliken charges:
               1
     1  O   -0.516311
     2  H    0.260835
     3  H    0.254803
     4  O   -0.515995
     5  H    0.257819
     6  H    0.258850
 Sum of Mulliken charges =  -0.00000

 Dipole moment (field-independent basis, Debye):
    X=              0.5705    Y=             -2.8921    Z=              0.0000  Tot=              2.9479
 Quadrupole moment (field-independent basis, Debye-Ang):
   XX=             -9.5428   YY=             -7.5189   ZZ=            -14.7165
   XY=              6.7972   XZ=              0.0000   YZ=              0.0000

 Normal termination of Gaussian 16 at Fri Aug 26 23:27:20 2022.
