 Gaussian 16, Revision A.03,
 Gaussian 16:  ES64L-G16RevA.03 25-Dec-2016

 ------------------
 #p CCSD(T)/cc-pVTZ
 ------------------

 ------------
 H2O_H2O_3533
 ------------
 Symbolic Z-matrix:
 Charge =  0 Multiplicity = 1

                         Standard orientation:
 ---------------------------------------------------------------------
 Center     Atomic      Atomic             Coordinates (Angstroms)
 Number     Number       Type             X           Y           Z
 ---------------------------------------------------------------------
      1          8           0        0.070193    2.513265    0.000000
      2          1           0        0.069398    1.530664    0.000000
      3          1           0       -0.859041    2.832684   -0.000000
      4          8           0        0.070193   -2.343012    0.000000
      5          1           0        0.560806   -3.194367    0.000000
      6          1           0       -0.894257   -2.531005   -0.000000
 ---------------------------------------------------------------------

 SCF Done:  E(RHF) =  -152.108763686     A.U. after   10 cycles
 E2 =    -0.5258904598D+00 EUMP2 =    -0.15263465414558D+03
 CCSD(T)
 CCSD(T)= -0.15266183114D+03

 The electronic state is 1-A'.
 Alpha  occ. eigenvalues --  -20.56437 -20.54796  -1.33730  -1.32107  -0.71139
 Alpha  occ. eigenvalues --   -0.69499  -0.57231  -0.55578  -0.50850  -0.49231
 Alpha virt. eigenvalues --    0.12581   0.15426   0.19452   0.21809   0.53369
 Alpha virt. eigenvalues --    0.55078   0.56445   0.58059   0.66947   0.69250
 Alpha virt. eigenvalues --    0.78054   0.78763   0.79616   0.80216   0.82890

 Mulliken charges:
               1
     1  O   -0.514210
     2  H    0.261852
     3  H    0.251271
     4  O   -0.513811
     5  H    0.259871
     6  H    0.255027
 Sum of Mulliken charges =  -0.00000

 Dipole moment (field-independent basis, Debye):
    X=             -2.3988    Y=             -3.0270    Z=             -0.0000  Tot=              3.8623
 Quadrupole moment (field-independent basis, Debye-Ang):
   XX=             -9.6822   YY=             -7.2974   ZZ=            -14.7160
   XY=             -3.8892   XZ=             -0.0000   YZ=             -0.0000

 Normal termination of Gaussian 16 at Fri Aug 26 22:14:41 2022.
