 Gaussian 16, Revision A.03,
 Gaussian 16:  ES64L-G16RevA.03 25-Dec-2016

 ------------------
 #p CCSD(T)/cc-pVTZ
 ------------------

 ------------
 H2O_H2O_1401
 ------------
 Symbolic Z-matrix:
 Charge =  0 Multiplicity = 1

                         Standard orientation:
 ---------------------------------------------------------------------
 Center     Atomic      Atomic             Coordinates (Angstroms)
 Number     Number       Type             X           Y           Z
 ---------------------------------------------------------------------
      1          8           0        0.090687   -1.648513    0.000000
      2          1           0        0.090565   -0.665911    0.000000
      3          1           0       -0.838766   -1.967294    0.000000
      4          8           0        0.090687    1.509811    0.000000
      5          1           0        0.154832    2.490317    0.000000
      6          1           0       -0.857625    1.252501    0.000000
 ---------------------------------------------------------------------

 SCF Done:  E(RHF) =  -152.109249667     A.U. after   10 cycles
 E2 =    -0.5278835913D+00 EUMP2 =    -0.15263713325790D+03
 CCSD(T)
 CCSD(T)= -0.15266420297D+03

 The electronic state is 1-A'.
 Alpha  occ. eigenvalues --  -20.58005 -20.54160  -1.35395  -1.31541  -0.73181
 Alpha  occ. eigenvalues --   -0.68782  -0.58889  -0.54879  -0.52436  -0.48636
 Alpha virt. eigenvalues --    0.11515   0.16383   0.20395   0.28396   0.49503
 Alpha virt. eigenvalues --    0.54252   0.57764   0.58479   0.68047   0.73369
 Alpha virt. eigenvalues --    0.74397   0.77844   0.80765   0.81708   0.83367

 Mulliken charges:
               1
     1  O   -0.524277
     2  H    0.274790
     3  H    0.238302
     4  O   -0.477024
     5  H    0.246943
     6  H    0.241267
 Sum of Mulliken charges =  -0.00000

 Dipole moment (field-independent basis, Debye):
    X=             -3.0218    Y=              2.7363    Z=              0.0000  Tot=              4.0766
 Quadrupole moment (field-independent basis, Debye-Ang):
   XX=            -10.7533   YY=             -9.0137   ZZ=            -14.7103
   XY=              2.2813   XZ=              0.0000   YZ=              0.0000

 Normal termination of Gaussian 16 at Sat Aug 27 00:21:35 2022.
