 Gaussian 16, Revision A.03,
 Gaussian 16:  ES64L-G16RevA.03 25-Dec-2016

 ------------------
 #p CCSD(T)/cc-pVTZ
 ------------------

 ------------
 H2O_H2O_1077
 ------------
 Symbolic Z-matrix:
 Charge =  0 Multiplicity = 1

                         Standard orientation:
 ---------------------------------------------------------------------
 Center     Atomic      Atomic             Coordinates (Angstroms)
 Number     Number       Type             X           Y           Z
 ---------------------------------------------------------------------
      1          8           0        0.088239   -1.521920    0.000000
      2          1           0        0.087963   -0.539318    0.000000
      3          1           0       -0.841164   -1.840848    0.000000
      4          8           0        0.088239    1.377618    0.000000
      5          1           0        0.216221    2.351850    0.000000
      6          1           0       -0.874842    1.182730    0.000000
 ---------------------------------------------------------------------

 SCF Done:  E(RHF) =  -152.108447508     A.U. after   10 cycles
 E2 =    -0.5290266834D+00 EUMP2 =    -0.15263747419180D+03
 CCSD(T)
 CCSD(T)= -0.15266444451D+03

 The electronic state is 1-A'.
 Alpha  occ. eigenvalues --  -20.58566 -20.53339  -1.36129  -1.30847  -0.74112
 Alpha  occ. eigenvalues --   -0.68279  -0.59455  -0.54049  -0.53090  -0.47921
 Alpha virt. eigenvalues --    0.11503   0.16528   0.20371   0.30377   0.48546
 Alpha virt. eigenvalues --    0.53675   0.58209   0.59962   0.68455   0.72239
 Alpha virt. eigenvalues --    0.74305   0.77775   0.80753   0.81750   0.83342

 Mulliken charges:
               1
     1  O   -0.536844
     2  H    0.283233
     3  H    0.232997
     4  O   -0.454507
     5  H    0.237359
     6  H    0.237761
 Sum of Mulliken charges =  -0.00000

 Dipole moment (field-independent basis, Debye):
    X=             -2.9121    Y=              2.9941    Z=              0.0000  Tot=              4.1767
 Quadrupole moment (field-independent basis, Debye-Ang):
   XX=            -10.6063   YY=             -9.0050   ZZ=            -14.7013
   XY=              2.4010   XZ=              0.0000   YZ=              0.0000

 Normal termination of Gaussian 16 at Fri Aug 26 22:19:09 2022.
