 Gaussian 16, Revision A.03,
 Gaussian 16:  ES64L-G16RevA.03 25-Dec-2016

 ------------------
 #p CCSD(T)/cc-pVTZ
 ------------------

 ----------
 H2O_H2O_40
 ----------
 Symbolic Z-matrix:
 Charge =  0 Multiplicity = 1

                         Standard orientation:
 ---------------------------------------------------------------------
 Center     Atomic      Atomic             Coordinates (Angstroms)
 Number     Number       Type             X           Y           Z
 ---------------------------------------------------------------------
      1          8           0        0.045055    1.122617   -0.000000
      2          1           0        0.041102    0.140023   -0.000000
      3          1           0       -0.883148    1.445020    0.000000
      4          8           0        0.045055   -0.942413   -0.000000
      5          1           0        0.859856   -1.491601   -0.000000
      6          1           0       -0.738696   -1.535068    0.000000
 ---------------------------------------------------------------------

 SCF Done:  E(RHF) =  -152.034664625     A.U. after   11 cycles
 E2 =    -0.5359048551D+00 EUMP2 =    -0.15257056948023D+03
 CCSD(T)
 CCSD(T)= -0.15259607154D+03

 The electronic state is 1-A'.
 Alpha  occ. eigenvalues --  -20.62199 -20.43591  -1.44262  -1.24149  -0.79783
 Alpha  occ. eigenvalues --   -0.78269  -0.58931  -0.54258  -0.43725  -0.40556
 Alpha virt. eigenvalues --    0.10257   0.16346   0.21282   0.32902   0.46785
 Alpha virt. eigenvalues --    0.51806   0.63023   0.65159   0.70368   0.70591
 Alpha virt. eigenvalues --    0.78481   0.79407   0.81666   0.82443   0.88998

 Mulliken charges:
               1
     1  O   -0.681142
     2  H    0.282530
     3  H    0.201035
     4  O   -0.297371
     5  H    0.254344
     6  H    0.240605
 Sum of Mulliken charges =  -0.00000

 Dipole moment (field-independent basis, Debye):
    X=             -1.3516    Y=             -5.1573    Z=              0.0000  Tot=              5.3315
 Quadrupole moment (field-independent basis, Debye-Ang):
   XX=             -9.0946   YY=            -10.3044   ZZ=            -14.5473
   XY=             -2.6411   XZ=             -0.0000   YZ=              0.0000

 Normal termination of Gaussian 16 at Fri Aug 26 15:27:35 2022.
