 Gaussian 16, Revision A.03,
 Gaussian 16:  ES64L-G16RevA.03 25-Dec-2016

 ------------------
 #p CCSD(T)/cc-pVTZ
 ------------------

 ------------
 H2O_H2O_1903
 ------------
 Symbolic Z-matrix:
 Charge =  0 Multiplicity = 1

                         Standard orientation:
 ---------------------------------------------------------------------
 Center     Atomic      Atomic             Coordinates (Angstroms)
 Number     Number       Type             X           Y           Z
 ---------------------------------------------------------------------
      1          8           0        0.085607   -1.853862    0.000000
      2          1           0        0.085256   -0.871261    0.000000
      3          1           0       -0.843773   -2.172860    0.000000
      4          8           0        0.085607    1.704278    0.000000
      5          1           0        0.276960    2.668069    0.000000
      6          1           0       -0.888149    1.572723    0.000000
 ---------------------------------------------------------------------

 SCF Done:  E(RHF) =  -152.110102029     A.U. after   10 cycles
 E2 =    -0.5267578167D+00 EUMP2 =    -0.15263685984561D+03
 CCSD(T)
 CCSD(T)= -0.15266395977D+03

 The electronic state is 1-A'.
 Alpha  occ. eigenvalues --  -20.57417 -20.54371  -1.34707  -1.31703  -0.72206
 Alpha  occ. eigenvalues --   -0.69051  -0.58263  -0.55126  -0.51810  -0.48824
 Alpha virt. eigenvalues --    0.11668   0.16353   0.19885   0.26047   0.51434
 Alpha virt. eigenvalues --    0.55555   0.56877   0.57717   0.68634   0.73873
 Alpha virt. eigenvalues --    0.75784   0.78440   0.80277   0.83029   0.83182

 Mulliken charges:
               1
     1  O   -0.519748
     2  H    0.267817
     3  H    0.243950
     4  O   -0.499326
     5  H    0.258047
     6  H    0.249260
 Sum of Mulliken charges =   0.00000

 Dipole moment (field-independent basis, Debye):
    X=             -2.8837    Y=              2.8190    Z=              0.0000  Tot=              4.0326
 Quadrupole moment (field-independent basis, Debye-Ang):
   XX=            -10.4325   YY=             -8.6420   ZZ=            -14.7192
   XY=              2.6605   XZ=              0.0000   YZ=              0.0000

 3304\MP4DQ=-152.6457018\MP4SDQ=-152.6488142\CCSD=-152.6481967\CCSD(T)=
 Normal termination of Gaussian 16 at Sun Aug 28 02:40:54 2022.
