 Gaussian 16, Revision A.03,
 Gaussian 16:  ES64L-G16RevA.03 25-Dec-2016

 ------------------
 #p CCSD(T)/cc-pVTZ
 ------------------

 ------------
 H2O_H2O_1714
 ------------
 Symbolic Z-matrix:
 Charge =  0 Multiplicity = 1

                         Standard orientation:
 ---------------------------------------------------------------------
 Center     Atomic      Atomic             Coordinates (Angstroms)
 Number     Number       Type             X           Y           Z
 ---------------------------------------------------------------------
      1          8           0        0.048633    1.790797    0.000000
      2          1           0        0.046419    0.808198    0.000000
      3          1           0       -0.880139    2.111557    0.000000
      4          8           0        0.048633   -1.610463   -0.000000
      5          1           0        0.826834   -2.210388   -0.000000
      6          1           0       -0.771245   -2.152041   -0.000000
 ---------------------------------------------------------------------

 SCF Done:  E(RHF) =  -152.113244922     A.U. after   10 cycles
 E2 =    -0.5267684127D+00 EUMP2 =    -0.15264001333436D+03
 CCSD(T)
 CCSD(T)= -0.15266704365D+03

 The electronic state is 1-A'.
 Alpha  occ. eigenvalues --  -20.57676 -20.53291  -1.34935  -1.30688  -0.72298
 Alpha  occ. eigenvalues --   -0.68200  -0.58707  -0.54096  -0.52073  -0.47841
 Alpha virt. eigenvalues --    0.12124   0.17323   0.19067   0.27765   0.50623
 Alpha virt. eigenvalues --    0.54759   0.56299   0.59203   0.69064   0.72273
 Alpha virt. eigenvalues --    0.75196   0.76948   0.81152   0.83221   0.84624

 Mulliken charges:
               1
     1  O   -0.535290
     2  H    0.273279
     3  H    0.247083
     4  O   -0.507115
     5  H    0.263940
     6  H    0.258102
 Sum of Mulliken charges =  -0.00000

 Dipole moment (field-independent basis, Debye):
    X=             -1.6369    Y=             -3.4663    Z=             -0.0000  Tot=              3.8333
 Quadrupole moment (field-independent basis, Debye-Ang):
   XX=             -9.1884   YY=             -8.0887   ZZ=            -14.7331
   XY=             -3.8529   XZ=             -0.0000   YZ=             -0.0000

 Normal termination of Gaussian 16 at Sun Aug 28 00:54:11 2022.
