 Gaussian 16, Revision A.03,
 Gaussian 16:  ES64L-G16RevA.03 25-Dec-2016

 ------------------
 #p CCSD(T)/cc-pVTZ
 ------------------

 ------------
 H2O_H2O_2103
 ------------
 Symbolic Z-matrix:
 Charge =  0 Multiplicity = 1

                         Standard orientation:
 ---------------------------------------------------------------------
 Center     Atomic      Atomic             Coordinates (Angstroms)
 Number     Number       Type             X           Y           Z
 ---------------------------------------------------------------------
      1          8           0        0.085606   -1.933639    0.000000
      2          1           0        0.085270   -0.951038    0.000000
      3          1           0       -0.843779   -2.252623    0.000000
      4          8           0        0.085606    1.784053    0.000000
      5          1           0        0.276973    2.747839    0.000000
      6          1           0       -0.888152    1.652512    0.000000
 ---------------------------------------------------------------------

 SCF Done:  E(RHF) =  -152.109786776     A.U. after   10 cycles
 E2 =    -0.5265369058D+00 EUMP2 =    -0.15263632368154D+03
 CCSD(T)
 CCSD(T)= -0.15266343889D+03

 The electronic state is 1-A'.
 Alpha  occ. eigenvalues --  -20.57231 -20.54515  -1.34514  -1.31836  -0.71985
 Alpha  occ. eigenvalues --   -0.69191  -0.58051  -0.55275  -0.51623  -0.48958
 Alpha virt. eigenvalues --    0.11682   0.16240   0.19810   0.25231   0.52257
 Alpha virt. eigenvalues --    0.55754   0.56620   0.57704   0.68594   0.73018
 Alpha virt. eigenvalues --    0.76470   0.79037   0.80063   0.82057   0.83264

 Mulliken charges:
               1
     1  O   -0.517699
     2  H    0.265970
     3  H    0.245336
     4  O   -0.502217
     5  H    0.258901
     6  H    0.249709
 Sum of Mulliken charges =  -0.00000

 Dipole moment (field-independent basis, Debye):
    X=             -2.8918    Y=              2.7837    Z=              0.0000  Tot=              4.0139
 Quadrupole moment (field-independent basis, Debye-Ang):
   XX=            -10.4270   YY=             -8.5978   ZZ=            -14.7184
   XY=              2.6843   XZ=              0.0000   YZ=              0.0000

 Normal termination of Gaussian 16 at Sun Aug 28 04:20:28 2022.
