 Gaussian 16, Revision A.03,
 Gaussian 16:  ES64L-G16RevA.03 25-Dec-2016

 ------------------
 #p CCSD(T)/cc-pVTZ
 ------------------

 ------------
 H2O_H2O_1868
 ------------
 Symbolic Z-matrix:
 Charge =  0 Multiplicity = 1

                         Standard orientation:
 ---------------------------------------------------------------------
 Center     Atomic      Atomic             Coordinates (Angstroms)
 Number     Number       Type             X           Y           Z
 ---------------------------------------------------------------------
      1          8           0        0.033848    1.849080    0.000000
      2          1           0        0.030995    0.866483    0.000000
      3          1           0       -0.894716    2.170444   -0.000000
      4          8           0        0.033848   -1.671601    0.000000
      5          1           0        0.940557   -2.050260    0.000000
      6          1           0       -0.618400   -2.406502   -0.000000
 ---------------------------------------------------------------------

 SCF Done:  E(RHF) =  -152.112859815     A.U. after   10 cycles
 E2 =    -0.5265314284D+00 EUMP2 =    -0.15263939124370D+03
 CCSD(T)
 CCSD(T)= -0.15266643948D+03

 The electronic state is 1-A'.
 Alpha  occ. eigenvalues --  -20.57482 -20.53534  -1.34739  -1.30911  -0.72120
 Alpha  occ. eigenvalues --   -0.68375  -0.58478  -0.54352  -0.51879  -0.48067
 Alpha virt. eigenvalues --    0.12219   0.17206   0.19095   0.26955   0.51584
 Alpha virt. eigenvalues --    0.54613   0.56286   0.59136   0.69077   0.72561
 Alpha virt. eigenvalues --    0.75769   0.77460   0.80897   0.83351   0.84497

 Mulliken charges:
               1
     1  O   -0.533578
     2  H    0.270433
     3  H    0.250338
     4  O   -0.508498
     5  H    0.262719
     6  H    0.258587
 Sum of Mulliken charges =  -0.00000

 Dipole moment (field-independent basis, Debye):
    X=             -1.1444    Y=             -3.3706    Z=             -0.0000  Tot=              3.5595
 Quadrupole moment (field-independent basis, Debye-Ang):
   XX=             -9.1877   YY=             -8.0187   ZZ=            -14.7312
   XY=             -4.2957   XZ=             -0.0000   YZ=             -0.0000

 Normal termination of Gaussian 16 at Sun Aug 28 02:19:15 2022.
