 Gaussian 16, Revision A.03,
 Gaussian 16:  ES64L-G16RevA.03 25-Dec-2016

 ------------------
 #p CCSD(T)/cc-pVTZ
 ------------------

 ------------
 H2O_H2O_2036
 ------------
 Symbolic Z-matrix:
 Charge =  0 Multiplicity = 1

                         Standard orientation:
 ---------------------------------------------------------------------
 Center     Atomic      Atomic             Coordinates (Angstroms)
 Number     Number       Type             X           Y           Z
 ---------------------------------------------------------------------
      1          8           0        0.059668    1.918840    0.000000
      2          1           0        0.058123    0.936240    0.000000
      3          1           0       -0.869323    2.238967    0.000000
      4          8           0        0.059668   -1.741431    0.000000
      5          1           0        0.706379   -2.481208    0.000000
      6          1           0       -0.849860   -2.113273    0.000000
 ---------------------------------------------------------------------

 SCF Done:  E(RHF) =  -152.111861617     A.U. after   10 cycles
 E2 =    -0.5264316405D+00 EUMP2 =    -0.15263829325762D+03
 CCSD(T)
 CCSD(T)= -0.15266536542D+03

 The electronic state is 1-A'.
 Alpha  occ. eigenvalues --  -20.57328 -20.53796  -1.34582  -1.31149  -0.71975
 Alpha  occ. eigenvalues --   -0.68562  -0.58244  -0.54604  -0.51717  -0.48295
 Alpha virt. eigenvalues --    0.12135   0.16827   0.19255   0.25963   0.51590
 Alpha virt. eigenvalues --    0.55360   0.56227   0.58850   0.68985   0.72294
 Alpha virt. eigenvalues --    0.76349   0.77849   0.80632   0.83424   0.84020

 Mulliken charges:
               1
     1  O   -0.526736
     2  H    0.268961
     3  H    0.247310
     4  O   -0.506925
     5  H    0.261590
     6  H    0.255800
 Sum of Mulliken charges =  -0.00000

 Dipole moment (field-independent basis, Debye):
    X=             -2.0172    Y=             -3.3299    Z=              0.0000  Tot=              3.8932
 Quadrupole moment (field-independent basis, Debye-Ang):
   XX=             -9.3722   YY=             -7.9021   ZZ=            -14.7270
   XY=             -3.7572   XZ=              0.0000   YZ=              0.0000

 Normal termination of Gaussian 16 at Sun Aug 28 03:46:17 2022.
