 Gaussian 16, Revision A.03,
 Gaussian 16:  ES64L-G16RevA.03 25-Dec-2016

 ------------------
 #p CCSD(T)/cc-pVTZ
 ------------------

 ------------
 H2O_H2O_2855
 ------------
 Symbolic Z-matrix:
 Charge =  0 Multiplicity = 1

                         Standard orientation:
 ---------------------------------------------------------------------
 Center     Atomic      Atomic             Coordinates (Angstroms)
 Number     Number       Type             X           Y           Z
 ---------------------------------------------------------------------
      1          8           0        0.079854    2.237942   -0.000000
      2          1           0        0.079339    1.255340   -0.000000
      3          1           0       -0.849472    2.557095   -0.000000
      4          8           0        0.079854   -2.078884    0.000000
      5          1           0        0.395213   -3.009505    0.000000
      6          1           0       -0.902742   -2.075390    0.000000
 ---------------------------------------------------------------------

 SCF Done:  E(RHF) =  -152.109121549     A.U. after   10 cycles
 E2 =    -0.5260618018D+00 EUMP2 =    -0.15263518335070D+03
 CCSD(T)
 CCSD(T)= -0.15266233678D+03

 The electronic state is 1-A'.
 Alpha  occ. eigenvalues --  -20.56726 -20.54711  -1.34010  -1.32023  -0.71431
 Alpha  occ. eigenvalues --   -0.69404  -0.57518  -0.55489  -0.51129  -0.49147
 Alpha virt. eigenvalues --    0.11991   0.15838   0.19454   0.23038   0.53957
 Alpha virt. eigenvalues --    0.55092   0.56347   0.58429   0.68453   0.69339
 Alpha virt. eigenvalues --    0.77737   0.78854   0.79711   0.80564   0.82936

 Mulliken charges:
               1
     1  O   -0.515014
     2  H    0.263064
     3  H    0.249117
     4  O   -0.509909
     5  H    0.259755
     6  H    0.252987
 Sum of Mulliken charges =  -0.00000

 Dipole moment (field-independent basis, Debye):
    X=             -2.7179    Y=             -2.8721    Z=              0.0000  Tot=              3.9543
 Quadrupole moment (field-independent basis, Debye-Ang):
   XX=            -10.1055   YY=             -8.0597   ZZ=            -14.7168
   XY=             -3.1515   XZ=              0.0000   YZ=             -0.0000

 Normal termination of Gaussian 16 at Fri Aug 26 17:47:35 2022.
