 Gaussian 16, Revision A.03,
 Gaussian 16:  ES64L-G16RevA.03 25-Dec-2016

 ------------------
 #p CCSD(T)/cc-pVTZ
 ------------------

 ------------
 H2O_H2O_2138
 ------------
 Symbolic Z-matrix:
 Charge =  0 Multiplicity = 1

                         Standard orientation:
 ---------------------------------------------------------------------
 Center     Atomic      Atomic             Coordinates (Angstroms)
 Number     Number       Type             X           Y           Z
 ---------------------------------------------------------------------
      1          8           0        0.052328    1.960058    0.000000
      2          1           0        0.050483    0.977459    0.000000
      3          1           0       -0.876565    2.280470    0.000000
      4          8           0        0.052328   -1.780202   -0.000000
      5          1           0        0.789869   -2.429462   -0.000000
      6          1           0       -0.801032   -2.267319   -0.000000
 ---------------------------------------------------------------------

 SCF Done:  E(RHF) =  -152.111808025     A.U. after   10 cycles
 E2 =    -0.5263200040D+00 EUMP2 =    -0.15263812802859D+03
 CCSD(T)
 CCSD(T)= -0.15266520590D+03

 The electronic state is 1-A'.
 Alpha  occ. eigenvalues --  -20.57235 -20.53830  -1.34487  -1.31179  -0.71875
 Alpha  occ. eigenvalues --   -0.68590  -0.58143  -0.54647  -0.51625  -0.48327
 Alpha virt. eigenvalues --    0.12222   0.16804   0.19230   0.25573   0.51887
 Alpha virt. eigenvalues --    0.55311   0.56332   0.58971   0.69012   0.72074
 Alpha virt. eigenvalues --    0.76644   0.77913   0.80567   0.83504   0.83783

 Mulliken charges:
               1
     1  O   -0.526790
     2  H    0.268519
     3  H    0.248650
     4  O   -0.508273
     5  H    0.261410
     6  H    0.256485
 Sum of Mulliken charges =  -0.00000

 Dipole moment (field-independent basis, Debye):
    X=             -1.7716    Y=             -3.3572    Z=             -0.0000  Tot=              3.7960
 Quadrupole moment (field-independent basis, Debye-Ang):
   XX=             -9.2305   YY=             -7.7779   ZZ=            -14.7267
   XY=             -4.0162   XZ=             -0.0000   YZ=             -0.0000

 Normal termination of Gaussian 16 at Sun Aug 28 04:38:55 2022.
