 Gaussian 16, Revision A.03,
 Gaussian 16:  ES64L-G16RevA.03 25-Dec-2016

 ------------------
 #p CCSD(T)/cc-pVTZ
 ------------------

 -----------
 H2O_H2O_135
 -----------
 Symbolic Z-matrix:
 Charge =  0 Multiplicity = 1

                         Standard orientation:
 ---------------------------------------------------------------------
 Center     Atomic      Atomic             Coordinates (Angstroms)
 Number     Number       Type             X           Y           Z
 ---------------------------------------------------------------------
      1          8           0        0.063347    1.159860    0.000000
      2          1           0        0.060994    0.177261    0.000000
      3          1           0       -0.865381    1.480750    0.000000
      4          8           0        0.063347   -0.984511   -0.000000
      5          1           0        0.659649   -1.765492   -0.000000
      6          1           0       -0.868809   -1.295306   -0.000000
 ---------------------------------------------------------------------

 SCF Done:  E(RHF) =  -152.056389810     A.U. after   11 cycles
 E2 =    -0.5356561240D+00 EUMP2 =    -0.15259204593351D+03
 CCSD(T)
 CCSD(T)= -0.15261774228D+03

 The electronic state is 1-A'.
 Alpha  occ. eigenvalues --  -20.61726 -20.45445  -1.42667  -1.25240  -0.79456
 Alpha  occ. eigenvalues --   -0.75367  -0.57935  -0.55426  -0.45823  -0.41851
 Alpha virt. eigenvalues --    0.10494   0.16323   0.21137   0.32665   0.48218
 Alpha virt. eigenvalues --    0.52079   0.61513   0.64058   0.71152   0.71568
 Alpha virt. eigenvalues --    0.78644   0.79125   0.81341   0.83310   0.86651

 Mulliken charges:
               1
     1  O   -0.648118
     2  H    0.291909
     3  H    0.200940
     4  O   -0.328864
     5  H    0.240850
     6  H    0.243283
 Sum of Mulliken charges =  -0.00000

 Dipole moment (field-independent basis, Debye):
    X=             -1.9343    Y=             -4.8080    Z=             -0.0000  Tot=              5.1825
 Quadrupole moment (field-independent basis, Debye-Ang):
   XX=             -9.4237   YY=            -10.0299   ZZ=            -14.5737
   XY=             -2.6881   XZ=             -0.0000   YZ=             -0.0000

 Normal termination of Gaussian 16 at Fri Aug 26 16:06:42 2022.
