 Gaussian 16, Revision A.03,
 Gaussian 16:  ES64L-G16RevA.03 25-Dec-2016

 ------------------
 #p CCSD(T)/cc-pVTZ
 ------------------

 ------------
 H2O_H2O_2161
 ------------
 Symbolic Z-matrix:
 Charge =  0 Multiplicity = 1

                         Standard orientation:
 ---------------------------------------------------------------------
 Center     Atomic      Atomic             Coordinates (Angstroms)
 Number     Number       Type             X           Y           Z
 ---------------------------------------------------------------------
      1          8           0        0.059664    1.968702    0.000000
      2          1           0        0.058160    0.986102    0.000000
      3          1           0       -0.869340    2.288791   -0.000000
      4          8           0        0.059664   -1.791288    0.000000
      5          1           0        0.706407   -2.531038    0.000000
      6          1           0       -0.849847   -2.163168   -0.000000
 ---------------------------------------------------------------------

 SCF Done:  E(RHF) =  -152.111501540     A.U. after   10 cycles
 E2 =    -0.5263279919D+00 EUMP2 =    -0.15263782953180D+03
 CCSD(T)
 CCSD(T)= -0.15266491326D+03

 The electronic state is 1-A'.
 Alpha  occ. eigenvalues --  -20.57214 -20.53919  -1.34469  -1.31263  -0.71865
 Alpha  occ. eigenvalues --   -0.68664  -0.58105  -0.54728  -0.51604  -0.48407
 Alpha virt. eigenvalues --    0.12168   0.16702   0.19282   0.25394   0.51990
 Alpha virt. eigenvalues --    0.55491   0.56182   0.58870   0.68948   0.71990
 Alpha virt. eigenvalues --    0.76702   0.78125   0.80492   0.83501   0.83630

 Mulliken charges:
               1
     1  O   -0.525099
     2  H    0.268107
     3  H    0.247907
     4  O   -0.507644
     5  H    0.261058
     6  H    0.255672
 Sum of Mulliken charges =  -0.00000

 Dipole moment (field-independent basis, Debye):
    X=             -2.0201    Y=             -3.3059    Z=             -0.0000  Tot=              3.8742
 Quadrupole moment (field-independent basis, Debye-Ang):
   XX=             -9.3709   YY=             -7.8179   ZZ=            -14.7254
   XY=             -3.8155   XZ=              0.0000   YZ=             -0.0000

 Normal termination of Gaussian 16 at Sun Aug 28 04:58:49 2022.
