 Gaussian 16, Revision A.03,
 Gaussian 16:  ES64L-G16RevA.03 25-Dec-2016

 ------------------
 #p CCSD(T)/cc-pVTZ
 ------------------

 ------------
 H2O_H2O_3094
 ------------
 Symbolic Z-matrix:
 Charge =  0 Multiplicity = 1

                         Standard orientation:
 ---------------------------------------------------------------------
 Center     Atomic      Atomic             Coordinates (Angstroms)
 Number     Number       Type             X           Y           Z
 ---------------------------------------------------------------------
      1          8           0        0.030190    2.336685   -0.000000
      2          1           0        0.027821    1.354086   -0.000000
      3          1           0       -0.898532    2.657591   -0.000000
      4          8           0        0.030190   -2.161078    0.000000
      5          1           0        0.959882   -2.479167    0.000000
      6          1           0       -0.572214   -2.937362    0.000000
 ---------------------------------------------------------------------

 SCF Done:  E(RHF) =  -152.109816086     A.U. after   10 cycles
 E2 =    -0.5259042672D+00 EUMP2 =    -0.15263572035331D+03
 CCSD(T)
 CCSD(T)= -0.15266286652D+03

 The electronic state is 1-A'.
 Alpha  occ. eigenvalues --  -20.56596 -20.54518  -1.33879  -1.31838  -0.71280
 Alpha  occ. eigenvalues --   -0.69239  -0.57422  -0.55328  -0.51008  -0.48975
 Alpha virt. eigenvalues --    0.12509   0.15874   0.19413   0.22601   0.53345
 Alpha virt. eigenvalues --    0.55458   0.56445   0.58344   0.67951   0.69348
 Alpha virt. eigenvalues --    0.77889   0.78898   0.79834   0.79855   0.83185

 Mulliken charges:
               1
     1  O   -0.519528
     2  H    0.263746
     3  H    0.253263
     4  O   -0.515248
     5  H    0.259552
     6  H    0.258215
 Sum of Mulliken charges =  -0.00000

 Dipole moment (field-independent basis, Debye):
    X=             -1.0310    Y=             -3.1538    Z=              0.0000  Tot=              3.3181
 Quadrupole moment (field-independent basis, Debye-Ang):
   XX=             -9.2294   YY=             -7.2978   ZZ=            -14.7197
   XY=             -5.4543   XZ=              0.0000   YZ=             -0.0000

 Normal termination of Gaussian 16 at Fri Aug 26 19:44:09 2022.
