 Gaussian 16, Revision A.03,
 Gaussian 16:  ES64L-G16RevA.03 25-Dec-2016

 ------------------
 #p CCSD(T)/cc-pVTZ
 ------------------

 ------------
 H2O_H2O_4073
 ------------
 Symbolic Z-matrix:
 Charge =  0 Multiplicity = 1

                         Standard orientation:
 ---------------------------------------------------------------------
 Center     Atomic      Atomic             Coordinates (Angstroms)
 Number     Number       Type             X           Y           Z
 ---------------------------------------------------------------------
      1          8           0       -0.016593    2.718963    0.000000
      2          1           0       -0.014137    1.736364    0.000000
      3          1           0        0.912101    3.039951    0.000000
      4          8           0       -0.016593   -2.555559    0.000000
      5          1           0       -0.996927   -2.622274    0.000000
      6          1           0        0.364448   -3.461271    0.000000
 ---------------------------------------------------------------------

 SCF Done:  E(RHF) =  -152.108676266     A.U. after   10 cycles
 E2 =    -0.5258072851D+00 EUMP2 =    -0.15263448355130D+03
 CCSD(T)
 CCSD(T)= -0.15266167287D+03

 The electronic state is 1-A'.
 Alpha  occ. eigenvalues --  -20.56265 -20.54971  -1.33566  -1.32280  -0.70972
 Alpha  occ. eigenvalues --   -0.69687  -0.57068  -0.55758  -0.50687  -0.49407
 Alpha virt. eigenvalues --    0.12933   0.15130   0.19332   0.21604   0.53278
 Alpha virt. eigenvalues --    0.55084   0.56625   0.57831   0.66691   0.68938
 Alpha virt. eigenvalues --    0.78204   0.79134   0.79446   0.80695   0.82719

 Mulliken charges:
               1
     1  O   -0.515344
     2  H    0.260196
     3  H    0.254821
     4  O   -0.515648
     5  H    0.257470
     6  H    0.258506
 Sum of Mulliken charges =  -0.00000

 Dipole moment (field-independent basis, Debye):
    X=              0.5703    Y=             -2.8792    Z=              0.0000  Tot=              2.9352
 Quadrupole moment (field-independent basis, Debye-Ang):
   XX=             -9.5431   YY=             -7.3881   ZZ=            -14.7156
   XY=              7.1383   XZ=              0.0000   YZ=              0.0000

 Normal termination of Gaussian 16 at Sat Aug 27 23:17:35 2022.
