 Gaussian 16, Revision A.03,
 Gaussian 16:  ES64L-G16RevA.03 25-Dec-2016

 ------------------
 #p CCSD(T)/cc-pVTZ
 ------------------

 -----------
 H2O_H2O_803
 -----------
 Symbolic Z-matrix:
 Charge =  0 Multiplicity = 1

                         Standard orientation:
 ---------------------------------------------------------------------
 Center     Atomic      Atomic             Coordinates (Angstroms)
 Number     Number       Type             X           Y           Z
 ---------------------------------------------------------------------
      1          8           0        0.085615   -1.415088    0.000000
      2          1           0        0.085150   -0.432486    0.000000
      3          1           0       -0.843727   -1.734194    0.000000
      4          8           0        0.085615    1.265524    0.000000
      5          1           0        0.276856    2.229336    0.000000
      6          1           0       -0.888124    1.133854    0.000000
 ---------------------------------------------------------------------

 SCF Done:  E(RHF) =  -152.105250033     A.U. after   10 cycles
 E2 =    -0.5304817938D+00 EUMP2 =    -0.15263573182714D+03
 CCSD(T)
 CCSD(T)= -0.15266253093D+03

 The electronic state is 1-A'.
 Alpha  occ. eigenvalues --  -20.59193 -20.52216  -1.37089  -1.29948  -0.75259
 Alpha  occ. eigenvalues --   -0.68142  -0.59726  -0.53892  -0.52916  -0.46985
 Alpha virt. eigenvalues --    0.11407   0.16609   0.20404   0.31865   0.48254
 Alpha virt. eigenvalues --    0.53219   0.58623   0.61912   0.69168   0.71824
 Alpha virt. eigenvalues --    0.74215   0.77911   0.79796   0.82742   0.83369

 Mulliken charges:
               1
     1  O   -0.554267
     2  H    0.291037
     3  H    0.226584
     4  O   -0.432930
     5  H    0.234613
     6  H    0.234963
 Sum of Mulliken charges =  -0.00000

 Dipole moment (field-independent basis, Debye):
    X=             -2.7923    Y=              3.2935    Z=              0.0000  Tot=              4.3179
 Quadrupole moment (field-independent basis, Debye-Ang):
   XX=            -10.4475   YY=             -9.0998   ZZ=            -14.6837
   XY=              2.4876   XZ=              0.0000   YZ=              0.0000

 Normal termination of Gaussian 16 at Fri Aug 26 20:36:32 2022.
