 Gaussian 16, Revision A.03,
 Gaussian 16:  ES64L-G16RevA.03 25-Dec-2016

 ------------------
 #p CCSD(T)/cc-pVTZ
 ------------------

 ------------
 H2O_H2O_1978
 ------------
 Symbolic Z-matrix:
 Charge =  0 Multiplicity = 1

                         Standard orientation:
 ---------------------------------------------------------------------
 Center     Atomic      Atomic             Coordinates (Angstroms)
 Number     Number       Type             X           Y           Z
 ---------------------------------------------------------------------
      1          8           0        0.085606   -1.883779    0.000000
      2          1           0        0.085261   -0.901177    0.000000
      3          1           0       -0.843775   -2.202771    0.000000
      4          8           0        0.085606    1.734194    0.000000
      5          1           0        0.276964    2.697982    0.000000
      6          1           0       -0.888149    1.602644    0.000000
 ---------------------------------------------------------------------

 SCF Done:  E(RHF) =  -152.109985860     A.U. after   10 cycles
 E2 =    -0.5266671453D+00 EUMP2 =    -0.15263665300495D+03
 CCSD(T)
 CCSD(T)= -0.15266375887D+03

 The electronic state is 1-A'.
 Alpha  occ. eigenvalues --  -20.57344 -20.54429  -1.34631  -1.31756  -0.72118
 Alpha  occ. eigenvalues --   -0.69106  -0.58180  -0.55186  -0.51736  -0.48878
 Alpha virt. eigenvalues --    0.11674   0.16312   0.19858   0.25726   0.51745
 Alpha virt. eigenvalues --    0.55646   0.56767   0.57698   0.68617   0.73583
 Alpha virt. eigenvalues --    0.76060   0.78674   0.80192   0.82874   0.83125

 Mulliken charges:
               1
     1  O   -0.518890
     2  H    0.267028
     3  H    0.244502
     4  O   -0.500565
     5  H    0.258490
     6  H    0.249436
 Sum of Mulliken charges =  -0.00000

 Dipole moment (field-independent basis, Debye):
    X=             -2.8869    Y=              2.8049    Z=              0.0000  Tot=              4.0251
 Quadrupole moment (field-independent basis, Debye-Ang):
   XX=            -10.4304   YY=             -8.6249   ZZ=            -14.7189
   XY=              2.6695   XZ=              0.0000   YZ=              0.0000

 Normal termination of Gaussian 16 at Sun Aug 28 03:17:44 2022.
