 Gaussian 16, Revision A.03,
 Gaussian 16:  ES64L-G16RevA.03 25-Dec-2016

 ------------------
 #p CCSD(T)/cc-pVTZ
 ------------------

 ------------
 H2O_H2O_4618
 ------------
 Symbolic Z-matrix:
 Charge =  0 Multiplicity = 1

                         Standard orientation:
 ---------------------------------------------------------------------
 Center     Atomic      Atomic             Coordinates (Angstroms)
 Number     Number       Type             X           Y           Z
 ---------------------------------------------------------------------
      1          8           0        0.033749    2.946028    0.000000
      2          1           0        0.031991    1.963428    0.000000
      3          1           0       -0.895173    3.266356    0.000000
      4          8           0        0.033749   -2.768473    0.000000
      5          1           0        0.940881   -3.146121    0.000000
      6          1           0       -0.617679   -3.504101    0.000000
 ---------------------------------------------------------------------

 SCF Done:  E(RHF) =  -152.108421712     A.U. after   10 cycles
 E2 =    -0.5258005923D+00 EUMP2 =    -0.15263422230412D+03
 CCSD(T)
 CCSD(T)= -0.15266142026D+03

 The electronic state is 1-A'.
 Alpha  occ. eigenvalues --  -20.56162 -20.54981  -1.33464  -1.32288  -0.70867
 Alpha  occ. eigenvalues --   -0.69692  -0.56957  -0.55760  -0.50583  -0.49412
 Alpha virt. eigenvalues --    0.13410   0.14889   0.19689   0.21023   0.53649
 Alpha virt. eigenvalues --    0.54849   0.56687   0.57792   0.66895   0.68671
 Alpha virt. eigenvalues --    0.78302   0.79445   0.79644   0.80347   0.82554

 Mulliken charges:
               1
     1  O   -0.514100
     2  H    0.260068
     3  H    0.253939
     4  O   -0.514723
     5  H    0.257738
     6  H    0.257077
 Sum of Mulliken charges =  -0.00000

 Dipole moment (field-independent basis, Debye):
    X=             -1.1582    Y=             -3.1134    Z=             -0.0000  Tot=              3.3218
 Quadrupole moment (field-independent basis, Debye-Ang):
   XX=             -9.1869   YY=             -6.3036   ZZ=            -14.7148
   XY=             -6.5440   XZ=             -0.0000   YZ=             -0.0000

 Normal termination of Gaussian 16 at Sun Aug 28 04:23:57 2022.
