 Gaussian 16, Revision A.03,
 Gaussian 16:  ES64L-G16RevA.03 25-Dec-2016

 ------------------
 #p CCSD(T)/cc-pVTZ
 ------------------

 ------------
 H2O_H2O_2370
 ------------
 Symbolic Z-matrix:
 Charge =  0 Multiplicity = 1

                         Standard orientation:
 ---------------------------------------------------------------------
 Center     Atomic      Atomic             Coordinates (Angstroms)
 Number     Number       Type             X           Y           Z
 ---------------------------------------------------------------------
      1          8           0        0.026691    2.046197    0.000000
      2          1           0        0.023820    1.063599    0.000000
      3          1           0       -0.901867    2.367577    0.000000
      4          8           0        0.026691   -1.872992   -0.000000
      5          1           0        0.975064   -2.130081   -0.000000
      6          1           0       -0.524068   -2.686731   -0.000000
 ---------------------------------------------------------------------

 SCF Done:  E(RHF) =  -152.111275765     A.U. after   10 cycles
 E2 =    -0.5261365521D+00 EUMP2 =    -0.15263741231696D+03
 CCSD(T)
 CCSD(T)= -0.15266450972D+03

 The electronic state is 1-A'.
 Alpha  occ. eigenvalues --  -20.57018 -20.54113  -1.34282  -1.31450  -0.71682
 Alpha  occ. eigenvalues --   -0.68859  -0.57899  -0.54936  -0.51419  -0.48599
 Alpha virt. eigenvalues --    0.12291   0.16582   0.19254   0.24722   0.53069
 Alpha virt. eigenvalues --    0.55361   0.56369   0.58676   0.68956   0.71317
 Alpha virt. eigenvalues --    0.77153   0.78773   0.80269   0.81964   0.83658

 Mulliken charges:
               1
     1  O   -0.526064
     2  H    0.266489
     3  H    0.252680
     4  O   -0.511392
     5  H    0.260494
     6  H    0.257793
 Sum of Mulliken charges =  -0.00000

 Dipole moment (field-independent basis, Debye):
    X=             -0.9088    Y=             -3.1919    Z=             -0.0000  Tot=              3.3187
 Quadrupole moment (field-independent basis, Debye-Ang):
   XX=             -9.2887   YY=             -7.7927   ZZ=            -14.7244
   XY=             -4.9491   XZ=             -0.0000   YZ=              0.0000

 Normal termination of Gaussian 16 at Sun Aug 28 06:43:57 2022.
