 Gaussian 16, Revision A.03,
 Gaussian 16:  ES64L-G16RevA.03 25-Dec-2016

 ------------------
 #p CCSD(T)/cc-pVTZ
 ------------------

 -----------
 H2O_H2O_279
 -----------
 Symbolic Z-matrix:
 Charge =  0 Multiplicity = 1

                         Standard orientation:
 ---------------------------------------------------------------------
 Center     Atomic      Atomic             Coordinates (Angstroms)
 Number     Number       Type             X           Y           Z
 ---------------------------------------------------------------------
      1          8           0        0.082834   -1.208335    0.000000
      2          1           0        0.082072   -0.225734    0.000000
      3          1           0       -0.846412   -1.527721    0.000000
      4          8           0        0.082834    1.053881    0.000000
      5          1           0        0.336414    2.003198    0.000000
      6          1           0       -0.897412    0.985884    0.000000
 ---------------------------------------------------------------------

 SCF Done:  E(RHF) =  -152.073132704     A.U. after   11 cycles
 E2 =    -0.5353601443D+00 EUMP2 =    -0.15260849284820D+03
 CCSD(T)
 CCSD(T)= -0.15263453755D+03

 The electronic state is 1-A'.
 Alpha  occ. eigenvalues --  -20.60922 -20.48492  -1.40939  -1.27307  -0.79668
 Alpha  occ. eigenvalues --   -0.70624  -0.57656  -0.56585  -0.49144  -0.44154
 Alpha virt. eigenvalues --    0.10862   0.16266   0.21096   0.32481   0.49128
 Alpha virt. eigenvalues --    0.51940   0.59607   0.65206   0.71683   0.72770
 Alpha virt. eigenvalues --    0.76476   0.76848   0.79765   0.83911   0.85436

 Mulliken charges:
               1
     1  O   -0.600119
     2  H    0.282761
     3  H    0.204174
     4  O   -0.350926
     5  H    0.229193
     6  H    0.234916
 Sum of Mulliken charges =  -0.00000

 Dipole moment (field-independent basis, Debye):
    X=             -2.5983    Y=              4.0403    Z=              0.0000  Tot=              4.8037
 Quadrupole moment (field-independent basis, Debye-Ang):
   XX=            -10.2450   YY=             -9.6471   ZZ=            -14.5933
   XY=              2.4362   XZ=              0.0000   YZ=              0.0000

 Normal termination of Gaussian 16 at Fri Aug 26 17:07:45 2022.
