 Gaussian 16, Revision A.03,
 Gaussian 16:  ES64L-G16RevA.03 25-Dec-2016

 ------------------
 #p CCSD(T)/cc-pVTZ
 ------------------

 ------------
 H2O_H2O_3006
 ------------
 Symbolic Z-matrix:
 Charge =  0 Multiplicity = 1

                         Standard orientation:
 ---------------------------------------------------------------------
 Center     Atomic      Atomic             Coordinates (Angstroms)
 Number     Number       Type             X           Y           Z
 ---------------------------------------------------------------------
      1          8           0        0.076759    2.300027    0.000000
      2          1           0        0.076140    1.317426    0.000000
      3          1           0       -0.852533    2.619280    0.000000
      4          8           0        0.076759   -2.136821   -0.000000
      5          1           0        0.452212   -3.044863   -0.000000
      6          1           0       -0.903968   -2.197494   -0.000000
 ---------------------------------------------------------------------

 SCF Done:  E(RHF) =  -152.109088093     A.U. after   10 cycles
 E2 =    -0.5260054555D+00 EUMP2 =    -0.15263509354816D+03
 CCSD(T)
 CCSD(T)= -0.15266225159D+03

 The electronic state is 1-A'.
 Alpha  occ. eigenvalues --  -20.56652 -20.54706  -1.33937  -1.32019  -0.71353
 Alpha  occ. eigenvalues --   -0.69403  -0.57445  -0.55489  -0.51057  -0.49144
 Alpha virt. eigenvalues --    0.12135   0.15763   0.19425   0.22691   0.53768
 Alpha virt. eigenvalues --    0.55124   0.56337   0.58430   0.68042   0.69280
 Alpha virt. eigenvalues --    0.77835   0.78785   0.79705   0.80418   0.82945

 Mulliken charges:
               1
     1  O   -0.514980
     2  H    0.262829
     3  H    0.249739
     4  O   -0.511282
     5  H    0.259929
     6  H    0.253766
 Sum of Mulliken charges =  -0.00000

 Dipole moment (field-independent basis, Debye):
    X=             -2.6155    Y=             -2.9354    Z=             -0.0000  Tot=              3.9316
 Quadrupole moment (field-independent basis, Debye-Ang):
   XX=             -9.9567   YY=             -7.8378   ZZ=            -14.7169
   XY=             -3.3673   XZ=             -0.0000   YZ=              0.0000

 CCSD(T)=-152.6622516\RMSD=7.026e-09\PG=CS [SG(H4O2)]\\@
 Normal termination of Gaussian 16 at Fri Aug 26 19:12:36 2022.
