 Gaussian 16, Revision A.03,
 Gaussian 16:  ES64L-G16RevA.03 25-Dec-2016

 ------------------
 #p CCSD(T)/cc-pVTZ
 ------------------

 -----------
 H2O_H2O_582
 -----------
 Symbolic Z-matrix:
 Charge =  0 Multiplicity = 1

                         Standard orientation:
 ---------------------------------------------------------------------
 Center     Atomic      Atomic             Coordinates (Angstroms)
 Number     Number       Type             X           Y           Z
 ---------------------------------------------------------------------
      1          8           0        0.073586    1.334735   -0.000000
      2          1           0        0.072269    0.352135   -0.000000
      3          1           0       -0.855479    1.654647   -0.000000
      4          8           0        0.073586   -1.167882    0.000000
      5          1           0        0.506999   -2.049732    0.000000
      6          1           0       -0.901161   -1.291876    0.000000
 ---------------------------------------------------------------------

 SCF Done:  E(RHF) =  -152.101419970     A.U. after   11 cycles
 E2 =    -0.5316794955D+00 EUMP2 =    -0.15263309946568D+03
 CCSD(T)
 CCSD(T)= -0.15265961429D+03

 The electronic state is 1-A'.
 Alpha  occ. eigenvalues --  -20.59903 -20.50181  -1.38212  -1.28342  -0.75838
 Alpha  occ. eigenvalues --   -0.69501  -0.59086  -0.54863  -0.50826  -0.45321
 Alpha virt. eigenvalues --    0.11258   0.16884   0.20203   0.32940   0.48277
 Alpha virt. eigenvalues --    0.53423   0.59536   0.62845   0.71180   0.72127
 Alpha virt. eigenvalues --    0.73920   0.78182   0.79716   0.83831   0.83985

 Mulliken charges:
               1
     1  O   -0.586557
     2  H    0.301927
     3  H    0.221901
     4  O   -0.419192
     5  H    0.240377
     6  H    0.241543
 Sum of Mulliken charges =  -0.00000

 Dipole moment (field-independent basis, Debye):
    X=             -2.3628    Y=             -3.8915    Z=              0.0000  Tot=              4.5526
 Quadrupole moment (field-independent basis, Debye-Ang):
   XX=             -9.8321   YY=             -9.2493   ZZ=            -14.6702
   XY=             -2.8113   XZ=              0.0000   YZ=             -0.0000

 Normal termination of Gaussian 16 at Fri Aug 26 19:12:41 2022.
