 Gaussian 16, Revision A.03,
 Gaussian 16:  ES64L-G16RevA.03 25-Dec-2016

 ------------------
 #p CCSD(T)/cc-pVTZ
 ------------------

 -----------
 H2O_H2O_134
 -----------
 Symbolic Z-matrix:
 Charge =  0 Multiplicity = 1

                         Standard orientation:
 ---------------------------------------------------------------------
 Center     Atomic      Atomic             Coordinates (Angstroms)
 Number     Number       Type             X           Y           Z
 ---------------------------------------------------------------------
      1          8           0        0.066856    1.158559    0.000000
      2          1           0        0.064783    0.175960    0.000000
      3          1           0       -0.861962    1.479186    0.000000
      4          8           0        0.066856   -0.985603   -0.000000
      5          1           0        0.611036   -1.803757   -0.000000
      6          1           0       -0.883559   -1.235036   -0.000000
 ---------------------------------------------------------------------

 SCF Done:  E(RHF) =  -152.055532395     A.U. after   11 cycles
 E2 =    -0.5358836991D+00 EUMP2 =    -0.15259141609381D+03
 CCSD(T)
 CCSD(T)= -0.15261711195D+03

 The electronic state is 1-A'.
 Alpha  occ. eigenvalues --  -20.61707 -20.45635  -1.42702  -1.25374  -0.79877
 Alpha  occ. eigenvalues --   -0.74842  -0.57917  -0.55515  -0.46034  -0.42002
 Alpha virt. eigenvalues --    0.10502   0.16253   0.21185   0.32550   0.48542
 Alpha virt. eigenvalues --    0.52013   0.60982   0.64192   0.71157   0.71730
 Alpha virt. eigenvalues --    0.78213   0.79049   0.81347   0.83743   0.86689

 Mulliken charges:
               1
     1  O   -0.643793
     2  H    0.289385
     3  H    0.199771
     4  O   -0.325820
     5  H    0.238020
     6  H    0.242437
 Sum of Mulliken charges =  -0.00000

 Dipole moment (field-independent basis, Debye):
    X=             -2.0435    Y=             -4.7476    Z=             -0.0000  Tot=              5.1687
 Quadrupole moment (field-independent basis, Debye-Ang):
   XX=             -9.5324   YY=            -10.0035   ZZ=            -14.5698
   XY=             -2.6619   XZ=              0.0000   YZ=              0.0000

 Normal termination of Gaussian 16 at Fri Aug 26 16:06:19 2022.
