 Gaussian 16, Revision A.03,
 Gaussian 16:  ES64L-G16RevA.03 25-Dec-2016

 ------------------
 #p CCSD(T)/cc-pVTZ
 ------------------

 ------------
 H2O_H2O_2755
 ------------
 Symbolic Z-matrix:
 Charge =  0 Multiplicity = 1

                         Standard orientation:
 ---------------------------------------------------------------------
 Center     Atomic      Atomic             Coordinates (Angstroms)
 Number     Number       Type             X           Y           Z
 ---------------------------------------------------------------------
      1          8           0        0.079855    2.198053   -0.000000
      2          1           0        0.079330    1.215452   -0.000000
      3          1           0       -0.849468    2.517216   -0.000000
      4          8           0        0.079855   -2.038997    0.000000
      5          1           0        0.395205   -2.969621    0.000000
      6          1           0       -0.902740   -2.035494    0.000000
 ---------------------------------------------------------------------

 SCF Done:  E(RHF) =  -152.109255378     A.U. after   10 cycles
 E2 =    -0.5260970491D+00 EUMP2 =    -0.15263535242698D+03
 CCSD(T)
 CCSD(T)= -0.15266250008D+03

 The electronic state is 1-A'.
 Alpha  occ. eigenvalues --  -20.56781 -20.54669  -1.34063  -1.31983  -0.71485
 Alpha  occ. eigenvalues --   -0.69361  -0.57575  -0.55448  -0.51182  -0.49107
 Alpha virt. eigenvalues --    0.11959   0.15911   0.19478   0.23262   0.53918
 Alpha virt. eigenvalues --    0.55176   0.56337   0.58432   0.68649   0.69545
 Alpha virt. eigenvalues --    0.77655   0.78957   0.79756   0.80559   0.82983

 Mulliken charges:
               1
     1  O   -0.515545
     2  H    0.263510
     3  H    0.248766
     4  O   -0.509233
     5  H    0.259661
     6  H    0.252840
 Sum of Mulliken charges =  -0.00000

 Dipole moment (field-independent basis, Debye):
    X=             -2.7160    Y=             -2.8812    Z=              0.0000  Tot=              3.9596
 Quadrupole moment (field-independent basis, Debye-Ang):
   XX=            -10.1069   YY=             -8.0932   ZZ=            -14.7171
   XY=             -3.1330   XZ=              0.0000   YZ=             -0.0000

 CCSD(T)=-152.6625001\RMSD=6.994e-09\PG=CS [SG(H4O2)]\\@
 Normal termination of Gaussian 16 at Fri Aug 26 17:05:15 2022.
