 Gaussian 16, Revision A.03,
 Gaussian 16:  ES64L-G16RevA.03 25-Dec-2016

 ------------------
 #p CCSD(T)/cc-pVTZ
 ------------------

 ------------
 H2O_H2O_2797
 ------------
 Symbolic Z-matrix:
 Charge =  0 Multiplicity = 1

                         Standard orientation:
 ---------------------------------------------------------------------
 Center     Atomic      Atomic             Coordinates (Angstroms)
 Number     Number       Type             X           Y           Z
 ---------------------------------------------------------------------
      1          8           0       -0.019876    2.212402    0.000000
      2          1           0       -0.016962    1.229805    0.000000
      3          1           0        0.908668    2.533823    0.000000
      4          8           0       -0.019876   -2.045306    0.000000
      5          1           0       -0.993687   -2.176449    0.000000
      6          1           0        0.419995   -2.923951    0.000000
 ---------------------------------------------------------------------

 SCF Done:  E(RHF) =  -152.110206623     A.U. after   10 cycles
 E2 =    -0.5259714651D+00 EUMP2 =    -0.15263617808799D+03
 CCSD(T)
 CCSD(T)= -0.15266331009D+03

 The electronic state is 1-A'.
 Alpha  occ. eigenvalues --  -20.56733 -20.54479  -1.34013  -1.31803  -0.71419
 Alpha  occ. eigenvalues --   -0.69209  -0.57571  -0.55295  -0.51143  -0.48943
 Alpha virt. eigenvalues --    0.12297   0.16109   0.19289   0.23470   0.53681
 Alpha virt. eigenvalues --    0.55590   0.56374   0.58450   0.68697   0.69551
 Alpha virt. eigenvalues --    0.77701   0.79029   0.79895   0.80427   0.83303

 Mulliken charges:
               1
     1  O   -0.521778
     2  H    0.264092
     3  H    0.254087
     4  O   -0.514100
     5  H    0.259253
     6  H    0.258446
 Sum of Mulliken charges =  -0.00000

 Dipole moment (field-independent basis, Debye):
    X=              0.6805    Y=             -3.0249    Z=              0.0000  Tot=              3.1005
 Quadrupole moment (field-independent basis, Debye-Ang):
   XX=             -9.4468   YY=             -7.7652   ZZ=            -14.7207
   XY=              5.6401   XZ=              0.0000   YZ=              0.0000

 Normal termination of Gaussian 16 at Fri Aug 26 17:23:18 2022.
