 Gaussian 16, Revision A.03,
 Gaussian 16:  ES64L-G16RevA.03 25-Dec-2016

 ------------------
 #p CCSD(T)/cc-pVTZ
 ------------------

 -----------
 H2O_H2O_420
 -----------
 Symbolic Z-matrix:
 Charge =  0 Multiplicity = 1

                         Standard orientation:
 ---------------------------------------------------------------------
 Center     Atomic      Atomic             Coordinates (Angstroms)
 Number     Number       Type             X           Y           Z
 ---------------------------------------------------------------------
      1          8           0        0.026857    1.268340    0.000000
      2          1           0        0.022097    0.285750    0.000000
      3          1           0       -0.901081    1.591506    0.000000
      4          8           0        0.026857   -1.095238   -0.000000
      5          1           0        0.974735   -1.354150   -0.000000
      6          1           0       -0.525466   -1.907917   -0.000000
 ---------------------------------------------------------------------

 SCF Done:  E(RHF) =  -152.093216786     A.U. after   11 cycles
 E2 =    -0.5324853977D+00 EUMP2 =    -0.15262570218371D+03
 CCSD(T)
 CCSD(T)= -0.15265193254D+03

 The electronic state is 1-A'.
 Alpha  occ. eigenvalues --  -20.60460 -20.48158  -1.39401  -1.26880  -0.76650
 Alpha  occ. eigenvalues --   -0.71200  -0.58330  -0.55787  -0.48610  -0.43788
 Alpha virt. eigenvalues --    0.11253   0.17724   0.19886   0.33932   0.47283
 Alpha virt. eigenvalues --    0.53287   0.59710   0.68221   0.69706   0.72136
 Alpha virt. eigenvalues --    0.75301   0.77755   0.79463   0.83825   0.83923

 Mulliken charges:
               1
     1  O   -0.629126
     2  H    0.302122
     3  H    0.232010
     4  O   -0.405522
     5  H    0.261133
     6  H    0.239382
 Sum of Mulliken charges =  -0.00000

 Dipole moment (field-independent basis, Debye):
    X=             -0.8577    Y=             -4.2874    Z=             -0.0000  Tot=              4.3724
 Quadrupole moment (field-independent basis, Debye-Ang):
   XX=             -9.2361   YY=             -9.5392   ZZ=            -14.6520
   XY=             -3.0943   XZ=             -0.0000   YZ=              0.0000

 Normal termination of Gaussian 16 at Fri Aug 26 18:08:39 2022.
