 Gaussian 16, Revision A.03,
 Gaussian 16:  ES64L-G16RevA.03 25-Dec-2016

 ------------------
 #p CCSD(T)/cc-pVTZ
 ------------------

 ------------
 H2O_H2O_3893
 ------------
 Symbolic Z-matrix:
 Charge =  0 Multiplicity = 1

                         Standard orientation:
 ---------------------------------------------------------------------
 Center     Atomic      Atomic             Coordinates (Angstroms)
 Number     Number       Type             X           Y           Z
 ---------------------------------------------------------------------
      1          8           0        0.033767    2.656835   -0.000000
      2          1           0        0.031811    1.674236   -0.000000
      3          1           0       -0.895090    2.977351   -0.000000
      4          8           0        0.033767   -2.479294    0.000000
      5          1           0        0.940822   -2.857125    0.000000
      6          1           0       -0.617810   -3.214790    0.000000
 ---------------------------------------------------------------------

 SCF Done:  E(RHF) =  -152.108887545     A.U. after   10 cycles
 E2 =    -0.5258173901D+00 EUMP2 =    -0.15263470493512D+03
 CCSD(T)
 CCSD(T)= -0.15266188616D+03

 The electronic state is 1-A'.
 Alpha  occ. eigenvalues --  -20.56316 -20.54800  -1.33612  -1.32111  -0.71015
 Alpha  occ. eigenvalues --   -0.69513  -0.57123  -0.55591  -0.50735  -0.49239
 Alpha virt. eigenvalues --    0.12995   0.15272   0.19578   0.21460   0.53462
 Alpha virt. eigenvalues --    0.55005   0.56584   0.57855   0.66695   0.69146
 Alpha virt. eigenvalues --    0.78160   0.79151   0.79606   0.79942   0.82905

 Mulliken charges:
               1
     1  O   -0.515917
     2  H    0.261709
     3  H    0.253628
     4  O   -0.516009
     5  H    0.258743
     6  H    0.257846
 Sum of Mulliken charges =  -0.00000

 Dipole moment (field-independent basis, Debye):
    X=             -1.1564    Y=             -3.1381    Z=              0.0000  Tot=              3.3444
 Quadrupole moment (field-independent basis, Debye-Ang):
   XX=             -9.1863   YY=             -6.7453   ZZ=            -14.7165
   XY=             -5.9530   XZ=              0.0000   YZ=              0.0000

 Normal termination of Gaussian 16 at Sat Aug 27 00:19:18 2022.
