 Gaussian 16, Revision A.03,
 Gaussian 16:  ES64L-G16RevA.03 25-Dec-2016

 ------------------
 #p CCSD(T)/cc-pVTZ
 ------------------

 ------------
 H2O_H2O_1073
 ------------
 Symbolic Z-matrix:
 Charge =  0 Multiplicity = 1

                         Standard orientation:
 ---------------------------------------------------------------------
 Center     Atomic      Atomic             Coordinates (Angstroms)
 Number     Number       Type             X           Y           Z
 ---------------------------------------------------------------------
      1          8           0       -0.016762    1.522303    0.000000
      2          1           0       -0.012267    0.539712    0.000000
      3          1           0        0.911263    1.845219    0.000000
      4          8           0       -0.016762   -1.358969    0.000000
      5          1           0       -0.996956   -1.427718    0.000000
      6          1           0        0.366158   -2.263887    0.000000
 ---------------------------------------------------------------------

 SCF Done:  E(RHF) =  -152.112598261     A.U. after   10 cycles
 E2 =    -0.5283667495D+00 EUMP2 =    -0.15264096501034D+03
 CCSD(T)
 CCSD(T)= -0.15266785709D+03

 The electronic state is 1-A'.
 Alpha  occ. eigenvalues --  -20.58584 -20.52242  -1.36105  -1.29864  -0.73695
 Alpha  occ. eigenvalues --   -0.67898  -0.59796  -0.53139  -0.52928  -0.46992
 Alpha virt. eigenvalues --    0.12021   0.18094   0.18973   0.31601   0.49201
 Alpha virt. eigenvalues --    0.54614   0.55839   0.63009   0.68455   0.72708
 Alpha virt. eigenvalues --    0.74129   0.76583   0.81610   0.82427   0.84274

 Mulliken charges:
               1
     1  O   -0.565964
     2  H    0.286958
     3  H    0.250650
     4  O   -0.474988
     5  H    0.261778
     6  H    0.241565
 Sum of Mulliken charges =  -0.00000

 Dipole moment (field-independent basis, Debye):
    X=              0.5682    Y=             -3.4075    Z=              0.0000  Tot=              3.4546
 Quadrupole moment (field-independent basis, Debye-Ang):
   XX=             -9.5339   YY=             -8.7947   ZZ=            -14.7200
   XY=              3.9750   XZ=              0.0000   YZ=              0.0000

 Normal termination of Gaussian 16 at Fri Aug 26 22:17:41 2022.
