 Gaussian 16, Revision A.03,
 Gaussian 16:  ES64L-G16RevA.03 25-Dec-2016

 ------------------
 #p CCSD(T)/cc-pVTZ
 ------------------

 ------------
 H2O_H2O_2085
 ------------
 Symbolic Z-matrix:
 Charge =  0 Multiplicity = 1

                         Standard orientation:
 ---------------------------------------------------------------------
 Center     Atomic      Atomic             Coordinates (Angstroms)
 Number     Number       Type             X           Y           Z
 ---------------------------------------------------------------------
      1          8           0        0.063258    1.937733   -0.000000
      2          1           0        0.061895    0.955133   -0.000000
      3          1           0       -0.865792    2.257689   -0.000000
      4          8           0        0.063258   -1.762258    0.000000
      5          1           0        0.660346   -2.542636    0.000000
      6          1           0       -0.868584   -2.073989    0.000000
 ---------------------------------------------------------------------

 SCF Done:  E(RHF) =  -152.111558313     A.U. after   10 cycles
 E2 =    -0.5264039857D+00 EUMP2 =    -0.15263796229900D+03
 CCSD(T)
 CCSD(T)= -0.15266504171D+03

 The electronic state is 1-A'.
 Alpha  occ. eigenvalues --  -20.57280 -20.53895  -1.34537  -1.31242  -0.71937
 Alpha  occ. eigenvalues --   -0.68646  -0.58178  -0.54699  -0.51669  -0.48385
 Alpha virt. eigenvalues --    0.12109   0.16726   0.19302   0.25684   0.51788
 Alpha virt. eigenvalues --    0.55508   0.56142   0.58756   0.68947   0.72213
 Alpha virt. eigenvalues --    0.76491   0.78083   0.80538   0.83444   0.83873

 Mulliken charges:
               1
     1  O   -0.525213
     2  H    0.268375
     3  H    0.247154
     4  O   -0.506734
     5  H    0.261150
     6  H    0.255268
 Sum of Mulliken charges =  -0.00000

 Dipole moment (field-independent basis, Debye):
    X=             -2.1397    Y=             -3.2828    Z=             -0.0000  Tot=              3.9186
 Quadrupole moment (field-independent basis, Debye-Ang):
   XX=             -9.4662   YY=             -7.9121   ZZ=            -14.7257
   XY=             -3.6697   XZ=              0.0000   YZ=             -0.0000

 Normal termination of Gaussian 16 at Sun Aug 28 04:12:43 2022.
