 Gaussian 16, Revision A.03,
 Gaussian 16:  ES64L-G16RevA.03 25-Dec-2016

 ------------------
 #p CCSD(T)/cc-pVTZ
 ------------------

 -----------
 H2O_H2O_400
 -----------
 Symbolic Z-matrix:
 Charge =  0 Multiplicity = 1

                         Standard orientation:
 ---------------------------------------------------------------------
 Center     Atomic      Atomic             Coordinates (Angstroms)
 Number     Number       Type             X           Y           Z
 ---------------------------------------------------------------------
      1          8           0        0.092949   -1.246422    0.000000
      2          1           0        0.092949   -0.263821    0.000000
      3          1           0       -0.836544   -1.565089    0.000000
      4          8           0        0.092949    1.113635    0.000000
      5          1           0        0.092950    2.096238    0.000000
      6          1           0       -0.836544    0.794969    0.000000
 ---------------------------------------------------------------------

 SCF Done:  E(RHF) =  -152.078218082     A.U. after   11 cycles
 E2 =    -0.5349217240D+00 EUMP2 =    -0.15261313980612D+03
 CCSD(T)
 CCSD(T)= -0.15263947385D+03

 The electronic state is 1-A'.
 Alpha  occ. eigenvalues --  -20.60306 -20.50740  -1.39914  -1.29024  -0.79592
 Alpha  occ. eigenvalues --   -0.68061  -0.59255  -0.55667  -0.51514  -0.45960
 Alpha virt. eigenvalues --    0.11163   0.16249   0.21365   0.32187   0.48753
 Alpha virt. eigenvalues --    0.51294   0.59192   0.66377   0.71137   0.71919
 Alpha virt. eigenvalues --    0.74307   0.76684   0.79026   0.82347   0.84119

 Mulliken charges:
               1
     1  O   -0.565349
     2  H    0.276477
     3  H    0.207258
     4  O   -0.375791
     5  H    0.228398
     6  H    0.229007
 Sum of Mulliken charges =  -0.00000

 Dipole moment (field-independent basis, Debye):
    X=             -2.9706    Y=              3.3739    Z=              0.0000  Tot=              4.4953
 Quadrupole moment (field-independent basis, Debye-Ang):
   XX=            -10.8611   YY=             -9.6043   ZZ=            -14.6032
   XY=              1.9849   XZ=              0.0000   YZ=              0.0000

 Normal termination of Gaussian 16 at Fri Aug 26 17:58:03 2022.
