 Gaussian 16, Revision A.03,
 Gaussian 16:  ES64L-G16RevA.03 25-Dec-2016

 ------------------
 #p CCSD(T)/cc-pVTZ
 ------------------

 ----------
 H2O_H2O_79
 ----------
 Symbolic Z-matrix:
 Charge =  0 Multiplicity = 1

                         Standard orientation:
 ---------------------------------------------------------------------
 Center     Atomic      Atomic             Coordinates (Angstroms)
 Number     Number       Type             X           Y           Z
 ---------------------------------------------------------------------
      1          8           0        0.082838   -1.128554    0.000000
      2          1           0        0.082019   -0.145953    0.000000
      3          1           0       -0.846389   -1.447995    0.000000
      4          8           0        0.082838    0.974111    0.000000
      5          1           0        0.336363    1.923442    0.000000
      6          1           0       -0.897404    0.906056    0.000000
 ---------------------------------------------------------------------

 SCF Done:  E(RHF) =  -152.036041666     A.U. after   11 cycles
 E2 =    -0.5380212475D+00 EUMP2 =    -0.15257406291395D+03
 CCSD(T)
 CCSD(T)= -0.15259964399D+03

 The electronic state is 1-A'.
 Alpha  occ. eigenvalues --  -20.61757 -20.46300  -1.43899  -1.25931  -0.82741
 Alpha  occ. eigenvalues --   -0.72597  -0.58253  -0.55761  -0.46813  -0.42629
 Alpha virt. eigenvalues --    0.10508   0.15845   0.21646   0.31790   0.49482
 Alpha virt. eigenvalues --    0.51179   0.60094   0.65375   0.70864   0.72261
 Alpha virt. eigenvalues --    0.75899   0.78808   0.80902   0.85974   0.86915

 Mulliken charges:
               1
     1  O   -0.623630
     2  H    0.265556
     3  H    0.189749
     4  O   -0.299056
     5  H    0.228503
     6  H    0.238877
 Sum of Mulliken charges =  -0.00000

 Dipole moment (field-independent basis, Debye):
    X=             -2.5411    Y=              4.4061    Z=              0.0000  Tot=              5.0864
 Quadrupole moment (field-independent basis, Debye-Ang):
   XX=            -10.2043   YY=             -9.9797   ZZ=            -14.5259
   XY=              2.3433   XZ=              0.0000   YZ=              0.0000

 Normal termination of Gaussian 16 at Fri Aug 26 15:43:04 2022.
