 Gaussian 16, Revision A.03,
 Gaussian 16:  ES64L-G16RevA.03 25-Dec-2016

 ------------------
 #p CCSD(T)/cc-pVTZ
 ------------------

 ------------
 H2O_H2O_2696
 ------------
 Symbolic Z-matrix:
 Charge =  0 Multiplicity = 1

                         Standard orientation:
 ---------------------------------------------------------------------
 Center     Atomic      Atomic             Coordinates (Angstroms)
 Number     Number       Type             X           Y           Z
 ---------------------------------------------------------------------
      1          8           0       -0.023228    2.174295    0.000000
      2          1           0       -0.020395    1.191698    0.000000
      3          1           0        0.905342    2.495640    0.000000
      4          8           0       -0.023228   -2.003919    0.000000
      5          1           0       -0.986393   -2.198393    0.000000
      6          1           0        0.473098   -2.851956    0.000000
 ---------------------------------------------------------------------

 SCF Done:  E(RHF) =  -152.110465274     A.U. after   10 cycles
 E2 =    -0.5260019323D+00 EUMP2 =    -0.15263646720667D+03
 CCSD(T)
 CCSD(T)= -0.15266359057D+03

 The electronic state is 1-A'.
 Alpha  occ. eigenvalues --  -20.56795 -20.54377  -1.34071  -1.31703  -0.71474
 Alpha  occ. eigenvalues --   -0.69108  -0.57641  -0.55195  -0.51203  -0.48846
 Alpha virt. eigenvalues --    0.12317   0.16224   0.19301   0.23683   0.53516
 Alpha virt. eigenvalues --    0.55586   0.56380   0.58555   0.68891   0.69828
 Alpha virt. eigenvalues --    0.77608   0.79104   0.79994   0.80436   0.83410

 Mulliken charges:
               1
     1  O   -0.522724
     2  H    0.264841
     3  H    0.253575
     4  O   -0.513524
     5  H    0.259678
     6  H    0.258153
 Sum of Mulliken charges =  -0.00000

 Dipole moment (field-independent basis, Debye):
    X=              0.7935    Y=             -3.0964    Z=              0.0000  Tot=              3.1964
 Quadrupole moment (field-independent basis, Debye-Ang):
   XX=             -9.3613   YY=             -7.7009   ZZ=            -14.7216
   XY=              5.3902   XZ=              0.0000   YZ=              0.0000

 Normal termination of Gaussian 16 at Fri Aug 26 16:38:12 2022.
