 Gaussian 16, Revision A.03,
 Gaussian 16:  ES64L-G16RevA.03 25-Dec-2016

 ------------------
 #p CCSD(T)/cc-pVTZ
 ------------------

 ------------
 H2O_H2O_1185
 ------------
 Symbolic Z-matrix:
 Charge =  0 Multiplicity = 1

                         Standard orientation:
 ---------------------------------------------------------------------
 Center     Atomic      Atomic             Coordinates (Angstroms)
 Number     Number       Type             X           Y           Z
 ---------------------------------------------------------------------
      1          8           0        0.063288    1.578723   -0.000000
      2          1           0        0.061596    0.596123   -0.000000
      3          1           0       -0.865655    1.898989   -0.000000
      4          8           0        0.063288   -1.403289    0.000000
      5          1           0        0.660115   -2.183869    0.000000
      6          1           0       -0.868658   -1.714710    0.000000
 ---------------------------------------------------------------------

 SCF Done:  E(RHF) =  -152.113237769     A.U. after   10 cycles
 E2 =    -0.5280748004D+00 EUMP2 =    -0.15264131256965D+03
 CCSD(T)
 CCSD(T)= -0.15266824092D+03

 The electronic state is 1-A'.
 Alpha  occ. eigenvalues --  -20.58463 -20.52395  -1.35858  -1.29945  -0.73202
 Alpha  occ. eigenvalues --   -0.68013  -0.59499  -0.53129  -0.52941  -0.47066
 Alpha virt. eigenvalues --    0.11810   0.17420   0.19289   0.30718   0.48652
 Alpha virt. eigenvalues --    0.54833   0.57373   0.59429   0.69801   0.72659
 Alpha virt. eigenvalues --    0.73158   0.76701   0.82068   0.82498   0.84645

 Mulliken charges:
               1
     1  O   -0.550813
     2  H    0.288817
     3  H    0.239145
     4  O   -0.492071
     5  H    0.259794
     6  H    0.255128
 Sum of Mulliken charges =  -0.00000

 Dipole moment (field-independent basis, Debye):
    X=             -2.0999    Y=             -3.5782    Z=              0.0000  Tot=              4.1489
 Quadrupole moment (field-independent basis, Debye-Ang):
   XX=             -9.4737   YY=             -8.5893   ZZ=            -14.7281
   XY=             -3.2809   XZ=              0.0000   YZ=             -0.0000

 Normal termination of Gaussian 16 at Fri Aug 26 22:58:17 2022.
