 Gaussian 16, Revision A.03,
 Gaussian 16:  ES64L-G16RevA.03 25-Dec-2016

 ------------------
 #p CCSD(T)/cc-pVTZ
 ------------------

 ------------
 H2O_H2O_4331
 ------------
 Symbolic Z-matrix:
 Charge =  0 Multiplicity = 1

                         Standard orientation:
 ---------------------------------------------------------------------
 Center     Atomic      Atomic             Coordinates (Angstroms)
 Number     Number       Type             X           Y           Z
 ---------------------------------------------------------------------
      1          8           0        0.076749    2.828549   -0.000000
      2          1           0        0.076249    1.845948   -0.000000
      3          1           0       -0.852581    3.147689   -0.000000
      4          8           0        0.076749   -2.665324    0.000000
      5          1           0        0.452312   -3.573321    0.000000
      6          1           0       -0.903970   -2.726116    0.000000
 ---------------------------------------------------------------------

 SCF Done:  E(RHF) =  -152.108116331     A.U. after   10 cycles
 E2 =    -0.5258458265D+00 EUMP2 =    -0.15263396215708D+03
 CCSD(T)
 CCSD(T)= -0.15266116444D+03

 The electronic state is 1-A'.
 Alpha  occ. eigenvalues --  -20.56229 -20.55066  -1.33531  -1.32372  -0.70941
 Alpha  occ. eigenvalues --   -0.69768  -0.57009  -0.55834  -0.50646  -0.49490
 Alpha virt. eigenvalues --    0.13053   0.14910   0.19407   0.21258   0.53376
 Alpha virt. eigenvalues --    0.54913   0.56583   0.57786   0.66794   0.68748
 Alpha virt. eigenvalues --    0.78245   0.79345   0.79372   0.80687   0.82534

 Mulliken charges:
               1
     1  O   -0.511942
     2  H    0.259602
     3  H    0.252177
     4  O   -0.512953
     5  H    0.258774
     6  H    0.254341
 Sum of Mulliken charges =  -0.00000

 Dipole moment (field-independent basis, Debye):
    X=             -2.6306    Y=             -2.8694    Z=              0.0000  Tot=              3.8927
 Quadrupole moment (field-independent basis, Debye-Ang):
   XX=             -9.9485   YY=             -7.3135   ZZ=            -14.7137
   XY=             -3.6680   XZ=              0.0000   YZ=             -0.0000

 Normal termination of Gaussian 16 at Sun Aug 28 01:54:52 2022.
