 Gaussian 16, Revision A.03,
 Gaussian 16:  ES64L-G16RevA.03 25-Dec-2016

 ------------------
 #p CCSD(T)/cc-pVTZ
 ------------------

 ------------
 H2O_H2O_3037
 ------------
 Symbolic Z-matrix:
 Charge =  0 Multiplicity = 1

                         Standard orientation:
 ---------------------------------------------------------------------
 Center     Atomic      Atomic             Coordinates (Angstroms)
 Number     Number       Type             X           Y           Z
 ---------------------------------------------------------------------
      1          8           0        0.055992    2.318529   -0.000000
      2          1           0        0.054584    1.335929   -0.000000
      3          1           0       -0.873044    2.638527   -0.000000
      4          8           0        0.055992   -2.139623    0.000000
      5          1           0        0.749800   -2.835422    0.000000
      6          1           0       -0.827209   -2.570279    0.000000
 ---------------------------------------------------------------------

 SCF Done:  E(RHF) =  -152.109699606     A.U. after   10 cycles
 E2 =    -0.5259448459D+00 EUMP2 =    -0.15263564445202D+03
 CCSD(T)
 CCSD(T)= -0.15266279030D+03

 The electronic state is 1-A'.
 Alpha  occ. eigenvalues --  -20.56637 -20.54477  -1.33916  -1.31796  -0.71319
 Alpha  occ. eigenvalues --   -0.69187  -0.57453  -0.55280  -0.51044  -0.48929
 Alpha virt. eigenvalues --    0.12482   0.15888   0.19465   0.22577   0.53246
 Alpha virt. eigenvalues --    0.55382   0.56324   0.58543   0.68134   0.69336
 Alpha virt. eigenvalues --    0.77853   0.79065   0.79426   0.79902   0.83208

 Mulliken charges:
               1
     1  O   -0.518118
     2  H    0.264236
     3  H    0.251071
     4  O   -0.513740
     5  H    0.260186
     6  H    0.256364
 Sum of Mulliken charges =   0.00000

 Dipole moment (field-independent basis, Debye):
    X=             -1.9090    Y=             -3.2194    Z=              0.0000  Tot=              3.7429
 Quadrupole moment (field-independent basis, Debye-Ang):
   XX=             -9.2874   YY=             -7.2147   ZZ=            -14.7192
   XY=             -4.3742   XZ=              0.0000   YZ=             -0.0000

 CCSD(T)=-152.6627903\RMSD=6.896e-09\PG=CS [SG(H4O2)]\\@
 Normal termination of Gaussian 16 at Fri Aug 26 19:24:44 2022.
