 Gaussian 16, Revision A.03,
 Gaussian 16:  ES64L-G16RevA.03 25-Dec-2016

 ------------------
 #p CCSD(T)/cc-pVTZ
 ------------------

 ------------
 H2O_H2O_1964
 ------------
 Symbolic Z-matrix:
 Charge =  0 Multiplicity = 1

                         Standard orientation:
 ---------------------------------------------------------------------
 Center     Atomic      Atomic             Coordinates (Angstroms)
 Number     Number       Type             X           Y           Z
 ---------------------------------------------------------------------
      1          8           0        0.048622    1.890522    0.000000
      2          1           0        0.046530    0.907923    0.000000
      3          1           0       -0.880191    2.211166    0.000000
      4          8           0        0.048622   -1.710176    0.000000
      5          1           0        0.826898   -2.310004    0.000000
      6          1           0       -0.771188   -2.251856    0.000000
 ---------------------------------------------------------------------

 SCF Done:  E(RHF) =  -152.112439529     A.U. after   10 cycles
 E2 =    -0.5264612816D+00 EUMP2 =    -0.15263890081083D+03
 CCSD(T)
 CCSD(T)= -0.15266596037D+03

 The electronic state is 1-A'.
 Alpha  occ. eigenvalues --  -20.57399 -20.53624  -1.34650  -1.30989  -0.72029
 Alpha  occ. eigenvalues --   -0.68426  -0.58354  -0.54441  -0.51790  -0.48141
 Alpha virt. eigenvalues --    0.12197   0.17031   0.19156   0.26432   0.51428
 Alpha virt. eigenvalues --    0.55024   0.56392   0.59003   0.69058   0.72359
 Alpha virt. eigenvalues --    0.76122   0.77444   0.80789   0.83403   0.84337

 Mulliken charges:
               1
     1  O   -0.530089
     2  H    0.269944
     3  H    0.248388
     4  O   -0.507820
     5  H    0.262341
     6  H    0.257237
 Sum of Mulliken charges =  -0.00000

 Dipole moment (field-independent basis, Debye):
    X=             -1.6429    Y=             -3.4027    Z=             -0.0000  Tot=              3.7785
 Quadrupole moment (field-independent basis, Debye-Ang):
   XX=             -9.1872   YY=             -7.8947   ZZ=            -14.7295
   XY=             -4.0091   XZ=              0.0000   YZ=             -0.0000

 Normal termination of Gaussian 16 at Sun Aug 28 03:12:25 2022.
