 Gaussian 16, Revision A.03,
 Gaussian 16:  ES64L-G16RevA.03 25-Dec-2016

 ------------------
 #p CCSD(T)/cc-pVTZ
 ------------------

 ------------
 H2O_H2O_2941
 ------------
 Symbolic Z-matrix:
 Charge =  0 Multiplicity = 1

                         Standard orientation:
 ---------------------------------------------------------------------
 Center     Atomic      Atomic             Coordinates (Angstroms)
 Number     Number       Type             X           Y           Z
 ---------------------------------------------------------------------
      1          8           0        0.041147    2.279194   -0.000000
      2          1           0        0.039138    1.296595   -0.000000
      3          1           0       -0.887693    2.599760    0.000000
      4          8           0        0.041147   -2.099275   -0.000000
      5          1           0        0.891098   -2.592314   -0.000000
      6          1           0       -0.700892   -2.743391    0.000000
 ---------------------------------------------------------------------

 SCF Done:  E(RHF) =  -152.110059885     A.U. after   10 cycles
 E2 =    -0.5259444675D+00 EUMP2 =    -0.15263600435205D+03
 CCSD(T)
 CCSD(T)= -0.15266314095D+03

 The electronic state is 1-A'.
 Alpha  occ. eigenvalues --  -20.56679 -20.54395  -1.33955  -1.31718  -0.71354
 Alpha  occ. eigenvalues --   -0.69114  -0.57508  -0.55207  -0.51086  -0.48855
 Alpha virt. eigenvalues --    0.12494   0.16017   0.19433   0.22855   0.53144
 Alpha virt. eigenvalues --    0.55506   0.56372   0.58609   0.68521   0.69326
 Alpha virt. eigenvalues --    0.77799   0.79099   0.79451   0.79971   0.83305

 Mulliken charges:
               1
     1  O   -0.520082
     2  H    0.264720
     3  H    0.252055
     4  O   -0.514251
     5  H    0.260099
     6  H    0.257459
 Sum of Mulliken charges =  -0.00000

 Dipole moment (field-independent basis, Debye):
    X=             -1.4026    Y=             -3.2469    Z=              0.0000  Tot=              3.5370
 Quadrupole moment (field-independent basis, Debye-Ang):
   XX=             -9.1492   YY=             -7.2371   ZZ=            -14.7205
   XY=             -4.8922   XZ=             -0.0000   YZ=              0.0000

 CCSD(T)=-152.663141\RMSD=6.813e-09\PG=CS [SG(H4O2)]\\@
 Normal termination of Gaussian 16 at Fri Aug 26 18:35:01 2022.
