 Gaussian 16, Revision A.03,
 Gaussian 16:  ES64L-G16RevA.03 25-Dec-2016

 ------------------
 #p CCSD(T)/cc-pVTZ
 ------------------

 ------------
 H2O_H2O_4851
 ------------
 Symbolic Z-matrix:
 Charge =  0 Multiplicity = 1

                         Standard orientation:
 ---------------------------------------------------------------------
 Center     Atomic      Atomic             Coordinates (Angstroms)
 Number     Number       Type             X           Y           Z
 ---------------------------------------------------------------------
      1          8           0        0.090683   -3.024645    0.000000
      2          1           0        0.090618   -2.042043    0.000000
      3          1           0       -0.838789   -3.343373    0.000000
      4          8           0        0.090683    2.885933    0.000000
      5          1           0        0.154883    3.866435    0.000000
      6          1           0       -0.857645    2.628677    0.000000
 ---------------------------------------------------------------------

 SCF Done:  E(RHF) =  -152.107652266     A.U. after   10 cycles
 E2 =    -0.5258629631D+00 EUMP2 =    -0.15263351522904D+03
 CCSD(T)
 CCSD(T)= -0.15266073035D+03

 The electronic state is 1-A'.
 Alpha  occ. eigenvalues --  -20.56152 -20.55338  -1.33453  -1.32639  -0.70866
 Alpha  occ. eigenvalues --   -0.70038  -0.56913  -0.56092  -0.50565  -0.49752
 Alpha virt. eigenvalues --    0.13113   0.14590   0.19103   0.21264   0.53436
 Alpha virt. eigenvalues --    0.54705   0.56605   0.57584   0.67072   0.68303
 Alpha virt. eigenvalues --    0.78324   0.79121   0.79702   0.80944   0.81667

 Mulliken charges:
               1
     1  O   -0.509761
     2  H    0.257235
     3  H    0.252502
     4  O   -0.510605
     5  H    0.257726
     6  H    0.252902
 Sum of Mulliken charges =  -0.00000

 Dipole moment (field-independent basis, Debye):
    X=             -3.1126    Y=              2.4277    Z=              0.0000  Tot=              3.9474
 Quadrupole moment (field-independent basis, Debye-Ang):
   XX=            -10.6988   YY=             -8.8455   ZZ=            -14.7120
   XY=              2.4321   XZ=              0.0000   YZ=              0.0000

 Normal termination of Gaussian 16 at Sun Aug 28 06:22:27 2022.
