 Gaussian 16, Revision A.03,
 Gaussian 16:  ES64L-G16RevA.03 25-Dec-2016

 ------------------
 #p CCSD(T)/cc-pVTZ
 ------------------

 -----------
 H2O_H2O_439
 -----------
 Symbolic Z-matrix:
 Charge =  0 Multiplicity = 1

                         Standard orientation:
 ---------------------------------------------------------------------
 Center     Atomic      Atomic             Coordinates (Angstroms)
 Number     Number       Type             X           Y           Z
 ---------------------------------------------------------------------
      1          8           0        0.048720    1.282183   -0.000000
      2          1           0        0.045561    0.299587   -0.000000
      3          1           0       -0.879744    1.603836   -0.000000
      4          8           0        0.048720   -1.101942    0.000000
      5          1           0        0.826343   -1.702616    0.000000
      6          1           0       -0.771678   -1.642733    0.000000
 ---------------------------------------------------------------------

 SCF Done:  E(RHF) =  -152.095920285     A.U. after   11 cycles
 E2 =    -0.5322514648D+00 EUMP2 =    -0.15262817174948D+03
 CCSD(T)
 CCSD(T)= -0.15265443358D+03

 The electronic state is 1-A'.
 Alpha  occ. eigenvalues --  -20.60480 -20.48163  -1.39220  -1.26852  -0.75606
 Alpha  occ. eigenvalues --   -0.72193  -0.57992  -0.55722  -0.48703  -0.43744
 Alpha virt. eigenvalues --    0.11131   0.17398   0.20049   0.33546   0.47335
 Alpha virt. eigenvalues --    0.53380   0.61693   0.63866   0.70505   0.72185
 Alpha virt. eigenvalues --    0.75023   0.79045   0.81071   0.82285   0.83936

 Mulliken charges:
               1
     1  O   -0.622093
     2  H    0.313102
     3  H    0.222983
     4  O   -0.421282
     5  H    0.258380
     6  H    0.248910
 Sum of Mulliken charges =  -0.00000

 Dipole moment (field-independent basis, Debye):
    X=             -1.5447    Y=             -4.4051    Z=              0.0000  Tot=              4.6681
 Quadrupole moment (field-independent basis, Debye-Ang):
   XX=             -9.1582   YY=             -9.5433   ZZ=            -14.6617
   XY=             -2.9829   XZ=              0.0000   YZ=             -0.0000

 Normal termination of Gaussian 16 at Fri Aug 26 18:16:21 2022.
