 Gaussian 16, Revision A.03,
 Gaussian 16:  ES64L-G16RevA.03 25-Dec-2016

 ------------------
 #p CCSD(T)/cc-pVTZ
 ------------------

 ------------
 H2O_H2O_2426
 ------------
 Symbolic Z-matrix:
 Charge =  0 Multiplicity = 1

                         Standard orientation:
 ---------------------------------------------------------------------
 Center     Atomic      Atomic             Coordinates (Angstroms)
 Number     Number       Type             X           Y           Z
 ---------------------------------------------------------------------
      1          8           0        0.090685   -2.057364    0.000000
      2          1           0        0.090589   -1.074763    0.000000
      3          1           0       -0.838776   -2.376122    0.000000
      4          8           0        0.090685    1.918658    0.000000
      5          1           0        0.154855    2.899162    0.000000
      6          1           0       -0.857633    1.661372    0.000000
 ---------------------------------------------------------------------

 SCF Done:  E(RHF) =  -152.108753104     A.U. after   10 cycles
 E2 =    -0.5263327000D+00 EUMP2 =    -0.15263508580413D+03
 CCSD(T)
 CCSD(T)= -0.15266223725D+03

 The electronic state is 1-A'.
 Alpha  occ. eigenvalues --  -20.56974 -20.54903  -1.34263  -1.32209  -0.71726
 Alpha  occ. eigenvalues --   -0.69565  -0.57750  -0.55654  -0.51368  -0.49324
 Alpha virt. eigenvalues --    0.11519   0.15925   0.19823   0.24245   0.53421
 Alpha virt. eigenvalues --    0.55714   0.56538   0.57770   0.68400   0.71333
 Alpha virt. eigenvalues --    0.77213   0.79252   0.79632   0.80049   0.83301

 Mulliken charges:
               1
     1  O   -0.513463
     2  H    0.263228
     3  H    0.246937
     4  O   -0.504160
     5  H    0.259206
     6  H    0.248252
 Sum of Mulliken charges =  -0.00000

 Dipole moment (field-independent basis, Debye):
    X=             -3.0729    Y=              2.5367    Z=              0.0000  Tot=              3.9846
 Quadrupole moment (field-independent basis, Debye-Ang):
   XX=            -10.7244   YY=             -8.9414   ZZ=            -14.7145
   XY=              2.3415   XZ=              0.0000   YZ=              0.0000

 Normal termination of Gaussian 16 at Sun Aug 28 07:13:08 2022.
