 Gaussian 16, Revision A.03,
 Gaussian 16:  ES64L-G16RevA.03 25-Dec-2016

 ------------------
 #p CCSD(T)/cc-pVTZ
 ------------------

 ------------
 H2O_H2O_3812
 ------------
 Symbolic Z-matrix:
 Charge =  0 Multiplicity = 1

                         Standard orientation:
 ---------------------------------------------------------------------
 Center     Atomic      Atomic             Coordinates (Angstroms)
 Number     Number       Type             X           Y           Z
 ---------------------------------------------------------------------
      1          8           0        0.055976    2.627669    0.000000
      2          1           0        0.054740    1.645068    0.000000
      3          1           0       -0.873115    2.947504    0.000000
      4          8           0        0.055976   -2.448743    0.000000
      5          1           0        0.749906   -3.144421    0.000000
      6          1           0       -0.827149   -2.879553    0.000000
 ---------------------------------------------------------------------

 SCF Done:  E(RHF) =  -152.108797717     A.U. after   10 cycles
 E2 =    -0.5258409280D+00 EUMP2 =    -0.15263463864457D+03
 CCSD(T)
 CCSD(T)= -0.15266181988D+03

 The electronic state is 1-A'.
 Alpha  occ. eigenvalues --  -20.56346 -20.54779  -1.33641  -1.32090  -0.71045
 Alpha  occ. eigenvalues --   -0.69486  -0.57147  -0.55565  -0.50762  -0.49216
 Alpha virt. eigenvalues --    0.12933   0.15297   0.19593   0.21459   0.53482
 Alpha virt. eigenvalues --    0.54959   0.56536   0.57886   0.66727   0.69197
 Alpha virt. eigenvalues --    0.78136   0.79175   0.79630   0.79749   0.82920

 Mulliken charges:
               1
     1  O   -0.515009
     2  H    0.261980
     3  H    0.252336
     4  O   -0.515179
     5  H    0.259473
     6  H    0.256399
 Sum of Mulliken charges =  -0.00000

 Dipole moment (field-independent basis, Debye):
    X=             -1.9154    Y=             -3.1670    Z=             -0.0000  Tot=              3.7012
 Quadrupole moment (field-independent basis, Debye-Ang):
   XX=             -9.2857   YY=             -6.7338   ZZ=            -14.7162
   XY=             -4.7709   XZ=             -0.0000   YZ=             -0.0000

 Normal termination of Gaussian 16 at Fri Aug 26 23:49:11 2022.
