 Gaussian 16, Revision A.03,
 Gaussian 16:  ES64L-G16RevA.03 25-Dec-2016

 ------------------
 #p CCSD(T)/cc-pVTZ
 ------------------

 ------------
 H2O_H2O_4185
 ------------
 Symbolic Z-matrix:
 Charge =  0 Multiplicity = 1

                         Standard orientation:
 ---------------------------------------------------------------------
 Center     Atomic      Atomic             Coordinates (Angstroms)
 Number     Number       Type             X           Y           Z
 ---------------------------------------------------------------------
      1          8           0        0.063220    2.775402   -0.000000
      2          1           0        0.062282    1.792801   -0.000000
      3          1           0       -0.865968    3.094956   -0.000000
      4          8           0        0.063220   -2.599872    0.000000
      5          1           0        0.660645   -3.379994    0.000000
      6          1           0       -0.868487   -2.912006    0.000000
 ---------------------------------------------------------------------

 SCF Done:  E(RHF) =  -152.108432639     A.U. after   10 cycles
 E2 =    -0.5258303397D+00 EUMP2 =    -0.15263426297866D+03
 CCSD(T)
 CCSD(T)= -0.15266145697D+03

 The electronic state is 1-A'.
 Alpha  occ. eigenvalues --  -20.56254 -20.54919  -1.33553  -1.32227  -0.70960
 Alpha  occ. eigenvalues --   -0.69624  -0.57046  -0.55696  -0.50672  -0.49349
 Alpha virt. eigenvalues --    0.13125   0.15050   0.19592   0.21211   0.53502
 Alpha virt. eigenvalues --    0.54911   0.56593   0.57816   0.66714   0.68938
 Alpha virt. eigenvalues --    0.78220   0.79320   0.79506   0.80175   0.82763

 Mulliken charges:
               1
     1  O   -0.513540
     2  H    0.260825
     3  H    0.252435
     4  O   -0.514364
     5  H    0.259005
     6  H    0.255639
 Sum of Mulliken charges =  -0.00000

 Dipole moment (field-independent basis, Debye):
    X=             -2.1660    Y=             -3.0912    Z=              0.0000  Tot=              3.7745
 Quadrupole moment (field-independent basis, Debye-Ang):
   XX=             -9.4542   YY=             -6.6839   ZZ=            -14.7149
   XY=             -4.5372   XZ=              0.0000   YZ=             -0.0000

 Normal termination of Gaussian 16 at Sun Aug 28 00:30:02 2022.
