 Gaussian 16, Revision A.03,
 Gaussian 16:  ES64L-G16RevA.03 25-Dec-2016

 ------------------
 #p CCSD(T)/cc-pVTZ
 ------------------

 ------------
 H2O_H2O_1837
 ------------
 Symbolic Z-matrix:
 Charge =  0 Multiplicity = 1

                         Standard orientation:
 ---------------------------------------------------------------------
 Center     Atomic      Atomic             Coordinates (Angstroms)
 Number     Number       Type             X           Y           Z
 ---------------------------------------------------------------------
      1          8           0        0.056027    1.839855    0.000000
      2          1           0        0.054234    0.857255    0.000000
      3          1           0       -0.872883    2.160216    0.000000
      4          8           0        0.056027   -1.660993   -0.000000
      5          1           0        0.749562   -2.357063   -0.000000
      6          1           0       -0.827342   -2.091302   -0.000000
 ---------------------------------------------------------------------

 SCF Done:  E(RHF) =  -152.112618956     A.U. after   10 cycles
 E2 =    -0.5266286713D+00 EUMP2 =    -0.15263924762721D+03
 CCSD(T)
 CCSD(T)= -0.15266629668D+03

 The electronic state is 1-A'.
 Alpha  occ. eigenvalues --  -20.57534 -20.53522  -1.34789  -1.30897  -0.72168
 Alpha  occ. eigenvalues --   -0.68354  -0.58510  -0.54328  -0.51925  -0.48046
 Alpha virt. eigenvalues --    0.12112   0.17085   0.19170   0.27012   0.50907
 Alpha virt. eigenvalues --    0.55062   0.56315   0.58970   0.69081   0.72453
 Alpha virt. eigenvalues --    0.75672   0.77264   0.80923   0.83297   0.84355

 Mulliken charges:
               1
     1  O   -0.530928
     2  H    0.271187
     3  H    0.246695
     4  O   -0.506531
     5  H    0.262864
     6  H    0.256713
 Sum of Mulliken charges =  -0.00000

 Dipole moment (field-independent basis, Debye):
    X=             -1.8890    Y=             -3.4034    Z=             -0.0000  Tot=              3.8925
 Quadrupole moment (field-independent basis, Debye-Ang):
   XX=             -9.2952   YY=             -8.0162   ZZ=            -14.7304
   XY=             -3.7564   XZ=             -0.0000   YZ=             -0.0000

 Normal termination of Gaussian 16 at Sun Aug 28 02:02:57 2022.
