 Gaussian 16, Revision A.03,
 Gaussian 16:  ES64L-G16RevA.03 25-Dec-2016

 ------------------
 #p CCSD(T)/cc-pVTZ
 ------------------

 ------------
 H2O_H2O_4291
 ------------
 Symbolic Z-matrix:
 Charge =  0 Multiplicity = 1

                         Standard orientation:
 ---------------------------------------------------------------------
 Center     Atomic      Atomic             Coordinates (Angstroms)
 Number     Number       Type             X           Y           Z
 ---------------------------------------------------------------------
      1          8           0        0.041110    2.817694   -0.000000
      2          1           0        0.039498    1.835094   -0.000000
      3          1           0       -0.887859    3.137885    0.000000
      4          8           0        0.041110   -2.637742   -0.000000
      5          1           0        0.891262   -3.130438   -0.000000
      6          1           0       -0.700667   -3.282158    0.000000
 ---------------------------------------------------------------------

 SCF Done:  E(RHF) =  -152.108578227     A.U. after   10 cycles
 E2 =    -0.5258071137D+00 EUMP2 =    -0.15263438534082D+03
 CCSD(T)
 CCSD(T)= -0.15266157756D+03

 The electronic state is 1-A'.
 Alpha  occ. eigenvalues --  -20.56224 -20.54891  -1.33524  -1.32200  -0.70927
 Alpha  occ. eigenvalues --   -0.69602  -0.57024  -0.55674  -0.50644  -0.49325
 Alpha virt. eigenvalues --    0.13260   0.15043   0.19674   0.21153   0.53613
 Alpha virt. eigenvalues --    0.54881   0.56639   0.57812   0.66734   0.68903
 Alpha virt. eigenvalues --    0.78245   0.79527   0.79588   0.79942   0.82786

 Mulliken charges:
               1
     1  O   -0.514629
     2  H    0.260947
     3  H    0.253453
     4  O   -0.515265
     5  H    0.258437
     6  H    0.257058
 Sum of Mulliken charges =  -0.00000

 Dipole moment (field-independent basis, Debye):
    X=             -1.4092    Y=             -3.1653    Z=             -0.0000  Tot=              3.4648
 Quadrupole moment (field-independent basis, Debye-Ang):
   XX=             -9.1493   YY=             -6.3760   ZZ=            -14.7154
   XY=             -5.8578   XZ=             -0.0000   YZ=             -0.0000

 Normal termination of Gaussian 16 at Sun Aug 28 01:31:49 2022.
