 Gaussian 16, Revision A.03,
 Gaussian 16:  ES64L-G16RevA.03 25-Dec-2016

 ------------------
 #p CCSD(T)/cc-pVTZ
 ------------------

 ------------
 H2O_H2O_2318
 ------------
 Symbolic Z-matrix:
 Charge =  0 Multiplicity = 1

                         Standard orientation:
 ---------------------------------------------------------------------
 Center     Atomic      Atomic             Coordinates (Angstroms)
 Number     Number       Type             X           Y           Z
 ---------------------------------------------------------------------
      1          8           0        0.033824    2.028583    0.000000
      2          1           0        0.031235    1.045985    0.000000
      3          1           0       -0.894826    2.349697   -0.000000
      4          8           0        0.033824   -1.851086    0.000000
      5          1           0        0.940636   -2.229501    0.000000
      6          1           0       -0.618226   -2.586162   -0.000000
 ---------------------------------------------------------------------

 SCF Done:  E(RHF) =  -152.111483983     A.U. after   10 cycles
 E2 =    -0.5261674479D+00 EUMP2 =    -0.15263765143075D+03
 CCSD(T)
 CCSD(T)= -0.15266474267D+03

 The electronic state is 1-A'.
 Alpha  occ. eigenvalues --  -20.57069 -20.54003  -1.34328  -1.31344  -0.71721
 Alpha  occ. eigenvalues --   -0.68753  -0.57958  -0.54828  -0.51467  -0.48494
 Alpha virt. eigenvalues --    0.12310   0.16662   0.19248   0.24889   0.52649
 Alpha virt. eigenvalues --    0.55338   0.56439   0.58806   0.69033   0.71533
 Alpha virt. eigenvalues --    0.77057   0.78458   0.80372   0.82371   0.83629

 Mulliken charges:
               1
     1  O   -0.526446
     2  H    0.267197
     3  H    0.251587
     4  O   -0.510737
     5  H    0.260856
     6  H    0.257543
 Sum of Mulliken charges =  -0.00000

 Dipole moment (field-independent basis, Debye):
    X=             -1.1489    Y=             -3.2812    Z=             -0.0000  Tot=              3.4766
 Quadrupole moment (field-independent basis, Debye-Ang):
   XX=             -9.1866   YY=             -7.7107   ZZ=            -14.7252
   XY=             -4.6665   XZ=             -0.0000   YZ=             -0.0000

 Normal termination of Gaussian 16 at Sun Aug 28 06:16:57 2022.
