 Gaussian 16, Revision A.03,
 Gaussian 16:  ES64L-G16RevA.03 25-Dec-2016

 ------------------
 #p CCSD(T)/cc-pVTZ
 ------------------

 ------------
 H2O_H2O_4153
 ------------
 Symbolic Z-matrix:
 Charge =  0 Multiplicity = 1

                         Standard orientation:
 ---------------------------------------------------------------------
 Center     Atomic      Atomic             Coordinates (Angstroms)
 Number     Number       Type             X           Y           Z
 ---------------------------------------------------------------------
      1          8           0        0.085598   -2.751347    0.000000
      2          1           0        0.085365   -1.768745    0.000000
      3          1           0       -0.843820   -3.070233    0.000000
      4          8           0        0.085598    2.601742    0.000000
      5          1           0        0.277066    3.565510    0.000000
      6          1           0       -0.888173    2.470303    0.000000
 ---------------------------------------------------------------------

 SCF Done:  E(RHF) =  -152.107945159     A.U. after   10 cycles
 E2 =    -0.5258726740D+00 EUMP2 =    -0.15263381783254D+03
 CCSD(T)
 CCSD(T)= -0.15266102277D+03

 The electronic state is 1-A'.
 Alpha  occ. eigenvalues --  -20.56273 -20.55161  -1.33574  -1.32465  -0.70988
 Alpha  occ. eigenvalues --   -0.69860  -0.57045  -0.55922  -0.50687  -0.49581
 Alpha virt. eigenvalues --    0.12686   0.14954   0.19128   0.21648   0.53192
 Alpha virt. eigenvalues --    0.54955   0.56528   0.57819   0.66761   0.68753
 Alpha virt. eigenvalues --    0.78207   0.79253   0.79286   0.81115   0.82400

 Mulliken charges:
               1
     1  O   -0.510861
     2  H    0.258870
     3  H    0.251787
     4  O   -0.511914
     5  H    0.258926
     6  H    0.253192
 Sum of Mulliken charges =   0.00000

 Dipole moment (field-independent basis, Debye):
    X=             -2.9321    Y=              2.6340    Z=              0.0000  Tot=              3.9415
 Quadrupole moment (field-independent basis, Debye-Ang):
   XX=            -10.3985   YY=             -8.1953   ZZ=            -14.7129
   XY=              2.9050   XZ=              0.0000   YZ=              0.0000

 Normal termination of Gaussian 16 at Sun Aug 28 00:11:31 2022.
