 Gaussian 16, Revision A.03,
 Gaussian 16:  ES64L-G16RevA.03 25-Dec-2016

 ------------------
 #p CCSD(T)/cc-pVTZ
 ------------------

 ------------
 H2O_H2O_4748
 ------------
 Symbolic Z-matrix:
 Charge =  0 Multiplicity = 1

                         Standard orientation:
 ---------------------------------------------------------------------
 Center     Atomic      Atomic             Coordinates (Angstroms)
 Number     Number       Type             X           Y           Z
 ---------------------------------------------------------------------
      1          8           0       -0.016574    2.988208    0.000000
      2          1           0       -0.014346    2.005609    0.000000
      3          1           0        0.912194    3.308981    0.000000
      4          8           0       -0.016574   -2.824797    0.000000
      5          1           0       -0.996923   -2.891284    0.000000
      6          1           0        0.364257   -3.730597    0.000000
 ---------------------------------------------------------------------

 SCF Done:  E(RHF) =  -152.108325207     A.U. after   10 cycles
 E2 =    -0.5257995680D+00 EUMP2 =    -0.15263412477491D+03
 CCSD(T)
 CCSD(T)= -0.15266132594D+03

 The electronic state is 1-A'.
 Alpha  occ. eigenvalues --  -20.56139 -20.55104  -1.33442  -1.32410  -0.70848
 Alpha  occ. eigenvalues --   -0.69817  -0.56930  -0.55882  -0.50561  -0.49533
 Alpha virt. eigenvalues --    0.13371   0.14791   0.19507   0.21103   0.53551
 Alpha virt. eigenvalues --    0.54831   0.56699   0.57737   0.66974   0.68509
 Alpha virt. eigenvalues --    0.78323   0.79327   0.79658   0.80725   0.82108

 Mulliken charges:
               1
     1  O   -0.513835
     2  H    0.258968
     3  H    0.254814
     4  O   -0.514317
     5  H    0.256783
     6  H    0.257588
 Sum of Mulliken charges =  -0.00000

 Dipole moment (field-independent basis, Debye):
    X=              0.5701    Y=             -2.8613    Z=              0.0000  Tot=              2.9176
 Quadrupole moment (field-independent basis, Debye-Ang):
   XX=             -9.5439   YY=             -7.1108   ZZ=            -14.7144
   XY=              7.8464   XZ=              0.0000   YZ=              0.0000

 Normal termination of Gaussian 16 at Sun Aug 28 05:33:25 2022.
