 Gaussian 16, Revision A.03,
 Gaussian 16:  ES64L-G16RevA.03 25-Dec-2016

 ------------------
 #p CCSD(T)/cc-pVTZ
 ------------------

 ------------
 H2O_H2O_1580
 ------------
 Symbolic Z-matrix:
 Charge =  0 Multiplicity = 1

                         Standard orientation:
 ---------------------------------------------------------------------
 Center     Atomic      Atomic             Coordinates (Angstroms)
 Number     Number       Type             X           Y           Z
 ---------------------------------------------------------------------
      1          8           0        0.079867   -1.729360    0.000000
      2          1           0        0.079193   -0.746759    0.000000
      3          1           0       -0.849408   -2.048664    0.000000
      4          8           0        0.079867    1.570329    0.000000
      5          1           0        0.395076    2.501000    0.000000
      6          1           0       -0.902728    1.566676    0.000000
 ---------------------------------------------------------------------

 SCF Done:  E(RHF) =  -152.111354989     A.U. after   10 cycles
 E2 =    -0.5272028715D+00 EUMP2 =    -0.15263855786027D+03
 CCSD(T)
 CCSD(T)= -0.15266560719D+03

 The electronic state is 1-A'.
 Alpha  occ. eigenvalues --  -20.57801 -20.53766  -1.35112  -1.31148  -0.72615
 Alpha  occ. eigenvalues --   -0.68571  -0.58748  -0.54519  -0.52210  -0.48271
 Alpha virt. eigenvalues --    0.11748   0.16690   0.19726   0.27839   0.49990
 Alpha virt. eigenvalues --    0.55213   0.57192   0.58235   0.69236   0.74303
 Alpha virt. eigenvalues --    0.74516   0.77367   0.80914   0.82737   0.83828

 Mulliken charges:
               1
     1  O   -0.528205
     2  H    0.273720
     3  H    0.241591
     4  O   -0.493850
     5  H    0.255666
     6  H    0.251078
 Sum of Mulliken charges =   0.00000

 Dipole moment (field-independent basis, Debye):
    X=             -2.6761    Y=              3.0828    Z=              0.0000  Tot=              4.0824
 Quadrupole moment (field-independent basis, Debye-Ang):
   XX=            -10.1314   YY=             -8.5305   ZZ=            -14.7233
   XY=              2.9064   XZ=              0.0000   YZ=              0.0000

 Normal termination of Gaussian 16 at Sat Aug 27 23:27:15 2022.
