 Gaussian 16, Revision A.03,
 Gaussian 16:  ES64L-G16RevA.03 25-Dec-2016

 ------------------
 #p CCSD(T)/cc-pVTZ
 ------------------

 ------------
 H2O_H2O_4957
 ------------
 Symbolic Z-matrix:
 Charge =  0 Multiplicity = 1

                         Standard orientation:
 ---------------------------------------------------------------------
 Center     Atomic      Atomic             Coordinates (Angstroms)
 Number     Number       Type             X           Y           Z
 ---------------------------------------------------------------------
      1          8           0        0.073521    3.079880   -0.000000
      2          1           0        0.072971    2.097279   -0.000000
      3          1           0       -0.855794    3.399067   -0.000000
      4          8           0        0.073521   -2.912912    0.000000
      5          1           0        0.507621   -3.794424    0.000000
      6          1           0       -0.901130   -3.037667    0.000000
 ---------------------------------------------------------------------

 SCF Done:  E(RHF) =  -152.107978049     A.U. after   10 cycles
 E2 =    -0.5258317037D+00 EUMP2 =    -0.15263380975241D+03
 CCSD(T)
 CCSD(T)= -0.15266101784D+03

 The electronic state is 1-A'.
 Alpha  occ. eigenvalues --  -20.56123 -20.55140  -1.33425  -1.32444  -0.70833
 Alpha  occ. eigenvalues --   -0.69844  -0.56899  -0.55904  -0.50540  -0.49561
 Alpha virt. eigenvalues --    0.13448   0.14668   0.19594   0.20895   0.53639
 Alpha virt. eigenvalues --    0.54759   0.56684   0.57681   0.67095   0.68421
 Alpha virt. eigenvalues --    0.78345   0.79304   0.79714   0.80690   0.81986

 Mulliken charges:
               1
     1  O   -0.511590
     2  H    0.258751
     3  H    0.252811
     4  O   -0.512382
     5  H    0.257841
     6  H    0.254569
 Sum of Mulliken charges =  -0.00000

 Dipole moment (field-independent basis, Debye):
    X=             -2.5239    Y=             -2.9210    Z=              0.0000  Tot=              3.8604
 Quadrupole moment (field-independent basis, Debye-Ang):
   XX=             -9.8082   YY=             -6.8017   ZZ=            -14.7133
   XY=             -4.0772   XZ=              0.0000   YZ=             -0.0000

 Normal termination of Gaussian 16 at Sun Aug 28 07:13:59 2022.
