 Gaussian 16, Revision A.03,
 Gaussian 16:  ES64L-G16RevA.03 25-Dec-2016

 ------------------
 #p CCSD(T)/cc-pVTZ
 ------------------

 ------------
 H2O_H2O_1006
 ------------
 Symbolic Z-matrix:
 Charge =  0 Multiplicity = 1

                         Standard orientation:
 ---------------------------------------------------------------------
 Center     Atomic      Atomic             Coordinates (Angstroms)
 Number     Number       Type             X           Y           Z
 ---------------------------------------------------------------------
      1          8           0       -0.076788    1.502246    0.000000
      2          1           0       -0.075821    0.519645    0.000000
      3          1           0        0.852391    1.821827    0.000000
      4          8           0       -0.076788   -1.339094    0.000000
      5          1           0       -0.451920   -2.247268    0.000000
      6          1           0        0.903960   -1.399420    0.000000
 ---------------------------------------------------------------------

 SCF Done:  E(RHF) =  -152.110640228     A.U. after   10 cycles
 E2 =    -0.5290086678D+00 EUMP2 =    -0.15263964889544D+03
 CCSD(T)
 CCSD(T)= -0.15266653142D+03

 The electronic state is 1-A'.
 Alpha  occ. eigenvalues --  -20.58773 -20.52368  -1.36333  -1.29982  -0.73934
 Alpha  occ. eigenvalues --   -0.68161  -0.59627  -0.53328  -0.53069  -0.47067
 Alpha virt. eigenvalues --    0.11590   0.16940   0.19827   0.31315   0.48333
 Alpha virt. eigenvalues --    0.54369   0.58767   0.59606   0.69526   0.72533
 Alpha virt. eigenvalues --    0.74461   0.76891   0.81389   0.82358   0.83992

 Mulliken charges:
               1
     1  O   -0.552359
     2  H    0.291185
     3  H    0.233430
     4  O   -0.461501
     5  H    0.243108
     6  H    0.246137
 Sum of Mulliken charges =  -0.00000

 Dipole moment (field-independent basis, Debye):
    X=              2.5278    Y=             -3.4284    Z=              0.0000  Tot=              4.2595
 Quadrupole moment (field-independent basis, Debye-Ang):
   XX=             -9.9888   YY=             -8.8293   ZZ=            -14.7104
   XY=              2.8796   XZ=              0.0000   YZ=              0.0000

 Normal termination of Gaussian 16 at Fri Aug 26 21:51:58 2022.
