 Gaussian 16, Revision A.03,
 Gaussian 16:  ES64L-G16RevA.03 25-Dec-2016

 ------------------
 #p CCSD(T)/cc-pVTZ
 ------------------

 ------------
 H2O_H2O_3408
 ------------
 Symbolic Z-matrix:
 Charge =  0 Multiplicity = 1

                         Standard orientation:
 ---------------------------------------------------------------------
 Center     Atomic      Atomic             Coordinates (Angstroms)
 Number     Number       Type             X           Y           Z
 ---------------------------------------------------------------------
      1          8           0        0.070195    2.463405   -0.000000
      2          1           0        0.069383    1.480804   -0.000000
      3          1           0       -0.859035    2.782839   -0.000000
      4          8           0        0.070195   -2.293154    0.000000
      5          1           0        0.560793   -3.144518    0.000000
      6          1           0       -0.894258   -2.481130    0.000000
 ---------------------------------------------------------------------

 SCF Done:  E(RHF) =  -152.108881205     A.U. after   10 cycles
 E2 =    -0.5259072662D+00 EUMP2 =    -0.15263478847132D+03
 CCSD(T)
 CCSD(T)= -0.15266196033D+03

 The electronic state is 1-A'.
 Alpha  occ. eigenvalues --  -20.56482 -20.54755  -1.33773  -1.32067  -0.71182
 Alpha  occ. eigenvalues --   -0.69457  -0.57277  -0.55539  -0.50893  -0.49192
 Alpha virt. eigenvalues --    0.12499   0.15516   0.19448   0.21965   0.53408
 Alpha virt. eigenvalues --    0.55109   0.56415   0.58148   0.67127   0.69285
 Alpha virt. eigenvalues --    0.78013   0.78736   0.79654   0.80172   0.82927

 Mulliken charges:
               1
     1  O   -0.514578
     2  H    0.262177
     3  H    0.251033
     4  O   -0.513586
     5  H    0.259966
     6  H    0.254988
 Sum of Mulliken charges =   0.00000

 Dipole moment (field-independent basis, Debye):
    X=             -2.3975    Y=             -3.0344    Z=             -0.0000  Tot=              3.8673
 Quadrupole moment (field-independent basis, Debye-Ang):
   XX=             -9.6829   YY=             -7.3592   ZZ=            -14.7164
   XY=             -3.8496   XZ=              0.0000   YZ=             -0.0000

 Normal termination of Gaussian 16 at Fri Aug 26 21:31:59 2022.
