 Gaussian 16, Revision A.03,
 Gaussian 16:  ES64L-G16RevA.03 25-Dec-2016

 ------------------
 #p CCSD(T)/cc-pVTZ
 ------------------

 ------------
 H2O_H2O_2857
 ------------
 Symbolic Z-matrix:
 Charge =  0 Multiplicity = 1

                         Standard orientation:
 ---------------------------------------------------------------------
 Center     Atomic      Atomic             Coordinates (Angstroms)
 Number     Number       Type             X           Y           Z
 ---------------------------------------------------------------------
      1          8           0        0.073539    2.242222   -0.000000
      2          1           0        0.072775    1.259621   -0.000000
      3          1           0       -0.855706    2.561611   -0.000000
      4          8           0        0.073539   -2.075286    0.000000
      5          1           0        0.507447   -2.956892    0.000000
      6          1           0       -0.901138   -2.199829    0.000000
 ---------------------------------------------------------------------

 SCF Done:  E(RHF) =  -152.109433824     A.U. after   10 cycles
 E2 =    -0.5260371234D+00 EUMP2 =    -0.15263547094714D+03
 CCSD(T)
 CCSD(T)= -0.15266261729D+03

 The electronic state is 1-A'.
 Alpha  occ. eigenvalues --  -20.56728 -20.54585  -1.34008  -1.31901  -0.71422
 Alpha  occ. eigenvalues --   -0.69284  -0.57530  -0.55373  -0.51131  -0.49029
 Alpha virt. eigenvalues --    0.12153   0.15911   0.19437   0.22984   0.53660
 Alpha virt. eigenvalues --    0.55284   0.56274   0.58575   0.68515   0.69375
 Alpha virt. eigenvalues --    0.77739   0.78960   0.79818   0.80233   0.83066

 Mulliken charges:
               1
     1  O   -0.516435
     2  H    0.263813
     3  H    0.249449
     4  O   -0.510915
     5  H    0.259921
     6  H    0.254166
 Sum of Mulliken charges =  -0.00000

 Dipole moment (field-independent basis, Debye):
    X=             -2.5037    Y=             -3.0167    Z=              0.0000  Tot=              3.9203
 Quadrupole moment (field-independent basis, Debye-Ang):
   XX=             -9.8181   YY=             -7.7548   ZZ=            -14.7180
   XY=             -3.5077   XZ=              0.0000   YZ=             -0.0000

 Normal termination of Gaussian 16 at Fri Aug 26 17:48:27 2022.
