 Gaussian 16, Revision A.03,
 Gaussian 16:  ES64L-G16RevA.03 25-Dec-2016

 ------------------
 #p CCSD(T)/cc-pVTZ
 ------------------

 ------------
 H2O_H2O_3200
 ------------
 Symbolic Z-matrix:
 Charge =  0 Multiplicity = 1

                         Standard orientation:
 ---------------------------------------------------------------------
 Center     Atomic      Atomic             Coordinates (Angstroms)
 Number     Number       Type             X           Y           Z
 ---------------------------------------------------------------------
      1          8           0        0.092949   -2.363279    0.000000
      2          1           0        0.092949   -1.380678    0.000000
      3          1           0       -0.836544   -2.681946    0.000000
      4          8           0        0.092949    2.230492    0.000000
      5          1           0        0.092949    3.213093    0.000000
      6          1           0       -0.836544    1.911826    0.000000
 ---------------------------------------------------------------------

 SCF Done:  E(RHF) =  -152.107947250     A.U. after   10 cycles
 E2 =    -0.5260286609D+00 EUMP2 =    -0.15263397591103D+03
 CCSD(T)
 CCSD(T)= -0.15266116804D+03

 The electronic state is 1-A'.
 Alpha  occ. eigenvalues --  -20.56567 -20.55194  -1.33863  -1.32495  -0.71294
 Alpha  occ. eigenvalues --   -0.69878  -0.57328  -0.55945  -0.50971  -0.49607
 Alpha virt. eigenvalues --    0.11577   0.15444   0.19213   0.23110   0.54020
 Alpha virt. eigenvalues --    0.54659   0.56456   0.58041   0.67508   0.68847
 Alpha virt. eigenvalues --    0.77931   0.78479   0.79270   0.81190   0.82527

 Mulliken charges:
               1
     1  O   -0.510065
     2  H    0.259305
     3  H    0.249841
     4  O   -0.508904
     5  H    0.259714
     6  H    0.250109
 Sum of Mulliken charges =  -0.00000

 Dipole moment (field-independent basis, Debye):
    X=             -3.1692    Y=              2.3709    Z=              0.0000  Tot=              3.9579
 Quadrupole moment (field-independent basis, Debye-Ang):
   XX=            -10.8556   YY=             -9.2289   ZZ=            -14.7124
   XY=              2.1503   XZ=              0.0000   YZ=              0.0000

 Normal termination of Gaussian 16 at Fri Aug 26 20:21:40 2022.
