 Gaussian 16, Revision A.03,
 Gaussian 16:  ES64L-G16RevA.03 25-Dec-2016

 ------------------
 #p CCSD(T)/cc-pVTZ
 ------------------

 ------------
 H2O_H2O_2004
 ------------
 Symbolic Z-matrix:
 Charge =  0 Multiplicity = 1

                         Standard orientation:
 ---------------------------------------------------------------------
 Center     Atomic      Atomic             Coordinates (Angstroms)
 Number     Number       Type             X           Y           Z
 ---------------------------------------------------------------------
      1          8           0        0.082811   -1.896422    0.000000
      2          1           0        0.082338   -0.913821    0.000000
      3          1           0       -0.846528   -2.215536    0.000000
      4          8           0        0.082811    1.741920    0.000000
      5          1           0        0.336670    2.691163    0.000000
      6          1           0       -0.897455    1.674210    0.000000
 ---------------------------------------------------------------------

 SCF Done:  E(RHF) =  -152.110276352     A.U. after   10 cycles
 E2 =    -0.5266084785D+00 EUMP2 =    -0.15263688483044D+03
 CCSD(T)
 CCSD(T)= -0.15266398519D+03

 The electronic state is 1-A'.
 Alpha  occ. eigenvalues --  -20.57326 -20.54330  -1.34607  -1.31661  -0.72073
 Alpha  occ. eigenvalues --   -0.69023  -0.58172  -0.55095  -0.51718  -0.48786
 Alpha virt. eigenvalues --    0.11749   0.16373   0.19738   0.25672   0.51786
 Alpha virt. eigenvalues --    0.55691   0.56574   0.57854   0.68755   0.73275
 Alpha virt. eigenvalues --    0.76175   0.78711   0.80251   0.82995   0.83221

 Mulliken charges:
               1
     1  O   -0.519814
     2  H    0.267103
     3  H    0.244872
     4  O   -0.501888
     5  H    0.258990
     6  H    0.250736
 Sum of Mulliken charges =  -0.00000

 Dipole moment (field-independent basis, Debye):
    X=             -2.7946    Y=              2.8946    Z=              0.0000  Tot=              4.0235
 Quadrupole moment (field-independent basis, Debye-Ang):
   XX=            -10.2746   YY=             -8.4790   ZZ=            -14.7203
   XY=              2.8364   XZ=              0.0000   YZ=              0.0000

 Normal termination of Gaussian 16 at Sun Aug 28 03:28:45 2022.
