 Gaussian 16, Revision A.03,
 Gaussian 16:  ES64L-G16RevA.03 25-Dec-2016

 ------------------
 #p CCSD(T)/cc-pVTZ
 ------------------

 ------------
 H2O_H2O_2204
 ------------
 Symbolic Z-matrix:
 Charge =  0 Multiplicity = 1

                         Standard orientation:
 ---------------------------------------------------------------------
 Center     Atomic      Atomic             Coordinates (Angstroms)
 Number     Number       Type             X           Y           Z
 ---------------------------------------------------------------------
      1          8           0        0.082809   -1.976199    0.000000
      2          1           0        0.082356   -0.993598    0.000000
      3          1           0       -0.846536   -2.295294    0.000000
      4          8           0        0.082809    1.821694    0.000000
      5          1           0        0.336687    2.770931    0.000000
      6          1           0       -0.897458    1.754004    0.000000
 ---------------------------------------------------------------------

 SCF Done:  E(RHF) =  -152.109914696     A.U. after   10 cycles
 E2 =    -0.5264235122D+00 EUMP2 =    -0.15263633820821D+03
 CCSD(T)
 CCSD(T)= -0.15266345412D+03

 The electronic state is 1-A'.
 Alpha  occ. eigenvalues --  -20.57151 -20.54470  -1.34430  -1.31791  -0.71879
 Alpha  occ. eigenvalues --   -0.69156  -0.57973  -0.55239  -0.51544  -0.48917
 Alpha virt. eigenvalues --    0.11771   0.16246   0.19679   0.24891   0.52607
 Alpha virt. eigenvalues --    0.55771   0.56408   0.57897   0.68680   0.72342
 Alpha virt. eigenvalues --    0.76767   0.79162   0.80052   0.81803   0.83402

 Mulliken charges:
               1
     1  O   -0.518012
     2  H    0.265675
     3  H    0.246106
     4  O   -0.504044
     5  H    0.259241
     6  H    0.251032
 Sum of Mulliken charges =  -0.00000

 Dipole moment (field-independent basis, Debye):
    X=             -2.8016    Y=              2.8618    Z=              0.0000  Tot=              4.0049
 Quadrupole moment (field-independent basis, Debye-Ang):
   XX=            -10.2696   YY=             -8.4206   ZZ=            -14.7191
   XY=              2.8670   XZ=              0.0000   YZ=              0.0000

 Normal termination of Gaussian 16 at Sun Aug 28 05:24:57 2022.
