 Gaussian 16, Revision A.03,
 Gaussian 16:  ES64L-G16RevA.03 25-Dec-2016

 ------------------
 #p CCSD(T)/cc-pVTZ
 ------------------

 ------------
 H2O_H2O_1845
 ------------
 Symbolic Z-matrix:
 Charge =  0 Multiplicity = 1

                         Standard orientation:
 ---------------------------------------------------------------------
 Center     Atomic      Atomic             Coordinates (Angstroms)
 Number     Number       Type             X           Y           Z
 ---------------------------------------------------------------------
      1          8           0        0.026721    1.836778   -0.000000
      2          1           0        0.023506    0.854182   -0.000000
      3          1           0       -0.901724    2.158484   -0.000000
      4          8           0        0.026721   -1.663592    0.000000
      5          1           0        0.975004   -1.921012    0.000000
      6          1           0       -0.524323   -2.477138    0.000000
 ---------------------------------------------------------------------

 SCF Done:  E(RHF) =  -152.112808668     A.U. after   10 cycles
 E2 =    -0.5265509989D+00 EUMP2 =    -0.15263935966734D+03
 CCSD(T)
 CCSD(T)= -0.15266640824D+03

 The electronic state is 1-A'.
 Alpha  occ. eigenvalues --  -20.57490 -20.53587  -1.34755  -1.30965  -0.72151
 Alpha  occ. eigenvalues --   -0.68429  -0.58493  -0.54403  -0.51891  -0.48122
 Alpha virt. eigenvalues --    0.12216   0.17207   0.19115   0.27053   0.51798
 Alpha virt. eigenvalues --    0.54468   0.56132   0.59272   0.69029   0.72852
 Alpha virt. eigenvalues --    0.75662   0.77711   0.80869   0.83322   0.84393

 Mulliken charges:
               1
     1  O   -0.534269
     2  H    0.270015
     3  H    0.251601
     4  O   -0.508454
     5  H    0.262566
     6  H    0.258541
 Sum of Mulliken charges =  -0.00000

 Dipole moment (field-independent basis, Debye):
    X=             -0.9056    Y=             -3.2930    Z=              0.0000  Tot=              3.4153
 Quadrupole moment (field-independent basis, Debye-Ang):
   XX=             -9.2897   YY=             -8.1145   ZZ=            -14.7308
   XY=             -4.4658   XZ=              0.0000   YZ=             -0.0000

 Normal termination of Gaussian 16 at Sun Aug 28 02:09:11 2022.
