 Gaussian 16, Revision A.03,
 Gaussian 16:  ES64L-G16RevA.03 25-Dec-2016

 ------------------
 #p CCSD(T)/cc-pVTZ
 ------------------

 ------------
 H2O_H2O_4771
 ------------
 Symbolic Z-matrix:
 Charge =  0 Multiplicity = 1

                         Standard orientation:
 ---------------------------------------------------------------------
 Center     Atomic      Atomic             Coordinates (Angstroms)
 Number     Number       Type             X           Y           Z
 ---------------------------------------------------------------------
      1          8           0       -0.023159    3.001982    0.000000
      2          1           0       -0.021129    2.019383    0.000000
      3          1           0        0.905674    3.322568    0.000000
      4          8           0       -0.023159   -2.831568    0.000000
      5          1           0       -0.986481   -3.025254    0.000000
      6          1           0        0.472474   -3.680011    0.000000
 ---------------------------------------------------------------------

 SCF Done:  E(RHF) =  -152.108345613     A.U. after   10 cycles
 E2 =    -0.5257990455D+00 EUMP2 =    -0.15263414465814D+03
 CCSD(T)
 CCSD(T)= -0.15266134518D+03

 The electronic state is 1-A'.
 Alpha  occ. eigenvalues --  -20.56136 -20.55059  -1.33439  -1.32366  -0.70844
 Alpha  occ. eigenvalues --   -0.69771  -0.56928  -0.55837  -0.50557  -0.49489
 Alpha virt. eigenvalues --    0.13433   0.14806   0.19622   0.21013   0.53619
 Alpha virt. eigenvalues --    0.54826   0.56705   0.57756   0.66981   0.68538
 Alpha virt. eigenvalues --    0.78326   0.79371   0.79663   0.80605   0.82236

 Mulliken charges:
               1
     1  O   -0.513872
     2  H    0.259343
     3  H    0.254474
     4  O   -0.514398
     5  H    0.257123
     6  H    0.257329
 Sum of Mulliken charges =  -0.00000

 Dipole moment (field-independent basis, Debye):
    X=              0.7956    Y=             -2.9841    Z=              0.0000  Tot=              3.0883
 Quadrupole moment (field-independent basis, Debye-Ang):
   XX=             -9.3625   YY=             -6.6515   ZZ=            -14.7146
   XY=              7.3825   XZ=              0.0000   YZ=              0.0000

 Normal termination of Gaussian 16 at Sun Aug 28 05:46:47 2022.
