 Gaussian 16, Revision A.03,
 Gaussian 16:  ES64L-G16RevA.03 25-Dec-2016

 ------------------
 #p CCSD(T)/cc-pVTZ
 ------------------

 -----------
 H2O_H2O_199
 -----------
 Symbolic Z-matrix:
 Charge =  0 Multiplicity = 1

                         Standard orientation:
 ---------------------------------------------------------------------
 Center     Atomic      Atomic             Coordinates (Angstroms)
 Number     Number       Type             X           Y           Z
 ---------------------------------------------------------------------
      1          8           0       -0.013778   -1.171033   -0.000000
      2          1           0       -0.007604   -0.188451   -0.000000
      3          1           0        0.913694   -1.495533   -0.000000
      4          8           0       -0.013778    1.011860    0.000000
      5          1           0       -0.996361    1.018034    0.000000
      6          1           0        0.310723    1.939332    0.000000
 ---------------------------------------------------------------------

 SCF Done:  E(RHF) =  -152.062187014     A.U. after   11 cycles
 E2 =    -0.5352647815D+00 EUMP2 =    -0.15259745179594D+03
 CCSD(T)
 CCSD(T)= -0.15262323387D+03

 The electronic state is 1-A'.
 Alpha  occ. eigenvalues --  -20.61192 -20.46527  -1.41988  -1.25929  -0.80648
 Alpha  occ. eigenvalues --   -0.71443  -0.57423  -0.57269  -0.46745  -0.42730
 Alpha virt. eigenvalues --    0.11027   0.17417   0.20407   0.33923   0.47834
 Alpha virt. eigenvalues --    0.51919   0.59669   0.69024   0.71516   0.72616
 Alpha virt. eigenvalues --    0.76382   0.76765   0.79184   0.84943   0.85502

 Mulliken charges:
               1
     1  O   -0.657450
     2  H    0.279654
     3  H    0.232109
     4  O   -0.346255
     5  H    0.263065
     6  H    0.228877
 Sum of Mulliken charges =  -0.00000

 Dipole moment (field-independent basis, Debye):
    X=              0.4252    Y=              4.3485    Z=              0.0000  Tot=              4.3693
 Quadrupole moment (field-independent basis, Debye-Ang):
   XX=             -9.5270   YY=             -9.8463   ZZ=            -14.5820
   XY=             -3.0580   XZ=             -0.0000   YZ=             -0.0000

 Normal termination of Gaussian 16 at Fri Aug 26 16:32:57 2022.
