 Gaussian 16, Revision A.03,
 Gaussian 16:  ES64L-G16RevA.03 25-Dec-2016

 ------------------
 #p CCSD(T)/cc-pVTZ
 ------------------

 -----------
 H2O_H2O_951
 -----------
 Symbolic Z-matrix:
 Charge =  0 Multiplicity = 1

                         Standard orientation:
 ---------------------------------------------------------------------
 Center     Atomic      Atomic             Coordinates (Angstroms)
 Number     Number       Type             X           Y           Z
 ---------------------------------------------------------------------
      1          8           0        0.090688   -1.469016    0.000000
      2          1           0        0.090551   -0.486415    0.000000
      3          1           0       -0.838760   -1.787813    0.000000
      4          8           0        0.090688    1.330318    0.000000
      5          1           0        0.154816    2.310824    0.000000
      6          1           0       -0.857621    1.072993    0.000000
 ---------------------------------------------------------------------

 SCF Done:  E(RHF) =  -152.105988896     A.U. after   10 cycles
 E2 =    -0.5298099266D+00 EUMP2 =    -0.15263579882227D+03
 CCSD(T)
 CCSD(T)= -0.15266273013D+03

 The electronic state is 1-A'.
 Alpha  occ. eigenvalues --  -20.58809 -20.53215  -1.36532  -1.30781  -0.74826
 Alpha  occ. eigenvalues --   -0.68136  -0.59613  -0.53926  -0.53398  -0.47832
 Alpha virt. eigenvalues --    0.11450   0.16456   0.20625   0.30899   0.48294
 Alpha virt. eigenvalues --    0.53063   0.58345   0.61053   0.68384   0.71685
 Alpha virt. eigenvalues --    0.74014   0.78122   0.80008   0.81974   0.83062

 Mulliken charges:
               1
     1  O   -0.538803
     2  H    0.284886
     3  H    0.229667
     4  O   -0.443586
     5  H    0.235688
     6  H    0.232149
 Sum of Mulliken charges =  -0.00000

 Dipole moment (field-independent basis, Debye):
    X=             -2.9793    Y=              2.9557    Z=              0.0000  Tot=              4.1967
 Quadrupole moment (field-independent basis, Debye-Ang):
   XX=            -10.7577   YY=             -9.1482   ZZ=            -14.6891
   XY=              2.2337   XZ=              0.0000   YZ=              0.0000

 Normal termination of Gaussian 16 at Fri Aug 26 21:31:46 2022.
