 Gaussian 16, Revision A.03,
 Gaussian 16:  ES64L-G16RevA.03 25-Dec-2016

 ------------------
 #p CCSD(T)/cc-pVTZ
 ------------------

 ------------
 H2O_H2O_4901
 ------------
 Symbolic Z-matrix:
 Charge =  0 Multiplicity = 1

                         Standard orientation:
 ---------------------------------------------------------------------
 Center     Atomic      Atomic             Coordinates (Angstroms)
 Number     Number       Type             X           Y           Z
 ---------------------------------------------------------------------
      1          8           0        0.090683   -3.044588    0.000000
      2          1           0        0.090618   -2.061987    0.000000
      3          1           0       -0.838789   -3.363316    0.000000
      4          8           0        0.090683    2.905876    0.000000
      5          1           0        0.154884    3.886378    0.000000
      6          1           0       -0.857645    2.648621    0.000000
 ---------------------------------------------------------------------

 SCF Done:  E(RHF) =  -152.107647309     A.U. after   10 cycles
 E2 =    -0.5258620721D+00 EUMP2 =    -0.15263350938134D+03
 CCSD(T)
 CCSD(T)= -0.15266072470D+03

 The electronic state is 1-A'.
 Alpha  occ. eigenvalues --  -20.56144 -20.55342  -1.33446  -1.32644  -0.70859
 Alpha  occ. eigenvalues --   -0.70042  -0.56906  -0.56096  -0.50557  -0.49757
 Alpha virt. eigenvalues --    0.13150   0.14570   0.19124   0.21221   0.53460
 Alpha virt. eigenvalues --    0.54689   0.56612   0.57570   0.67093   0.68282
 Alpha virt. eigenvalues --    0.78331   0.79117   0.79702   0.80914   0.81672

 Mulliken charges:
               1
     1  O   -0.509752
     2  H    0.257187
     3  H    0.252546
     4  O   -0.510572
     5  H    0.257659
     6  H    0.252932
 Sum of Mulliken charges =  -0.00000

 Dipole moment (field-independent basis, Debye):
    X=             -3.1130    Y=              2.4269    Z=              0.0000  Tot=              3.9472
 Quadrupole moment (field-independent basis, Debye-Ang):
   XX=            -10.6986   YY=             -8.8424   ZZ=            -14.7120
   XY=              2.4339   XZ=              0.0000   YZ=              0.0000

 Normal termination of Gaussian 16 at Sun Aug 28 06:46:26 2022.
