 Gaussian 16, Revision A.03,
 Gaussian 16:  ES64L-G16RevA.03 25-Dec-2016

 ------------------
 #p CCSD(T)/cc-pVTZ
 ------------------

 -----------
 H2O_H2O_373
 -----------
 Symbolic Z-matrix:
 Charge =  0 Multiplicity = 1

                         Standard orientation:
 ---------------------------------------------------------------------
 Center     Atomic      Atomic             Coordinates (Angstroms)
 Number     Number       Type             X           Y           Z
 ---------------------------------------------------------------------
      1          8           0        0.016852   -1.243074    0.000000
      2          1           0        0.011276   -0.260489    0.000000
      3          1           0       -0.910817   -1.567010    0.000000
      4          8           0        0.016852    1.079777    0.000000
      5          1           0        0.996970    1.149604    0.000000
      6          1           0       -0.367063    1.984273    0.000000
 ---------------------------------------------------------------------

 SCF Done:  E(RHF) =  -152.086830523     A.U. after   11 cycles
 E2 =    -0.5332185463D+00 EUMP2 =    -0.15262004906915D+03
 CCSD(T)
 CCSD(T)= -0.15264620070D+03

 The electronic state is 1-A'.
 Alpha  occ. eigenvalues --  -20.60542 -20.48157  -1.39884  -1.26942  -0.78018
 Alpha  occ. eigenvalues --   -0.70347  -0.58565  -0.56017  -0.48540  -0.43854
 Alpha virt. eigenvalues --    0.11298   0.17761   0.19937   0.34112   0.47640
 Alpha virt. eigenvalues --    0.52787   0.59092   0.68502   0.71913   0.71995
 Alpha virt. eigenvalues --    0.75550   0.76973   0.78100   0.83917   0.84797

 Mulliken charges:
               1
     1  O   -0.633759
     2  H    0.292275
     3  H    0.236720
     4  O   -0.386499
     5  H    0.259716
     6  H    0.231547
 Sum of Mulliken charges =  -0.00000

 Dipole moment (field-independent basis, Debye):
    X=             -0.5401    Y=              4.1411    Z=              0.0000  Tot=              4.1762
 Quadrupole moment (field-independent basis, Debye-Ang):
   XX=             -9.4674   YY=             -9.5756   ZZ=            -14.6333
   XY=              3.1961   XZ=              0.0000   YZ=              0.0000

 Normal termination of Gaussian 16 at Fri Aug 26 17:46:49 2022.
