 Gaussian 16, Revision A.03,
 Gaussian 16:  ES64L-G16RevA.03 25-Dec-2016

 ------------------
 #p CCSD(T)/cc-pVTZ
 ------------------

 ------------
 H2O_H2O_1252
 ------------
 Symbolic Z-matrix:
 Charge =  0 Multiplicity = 1

                         Standard orientation:
 ---------------------------------------------------------------------
 Center     Atomic      Atomic             Coordinates (Angstroms)
 Number     Number       Type             X           Y           Z
 ---------------------------------------------------------------------
      1          8           0        0.088238   -1.591724    0.000000
      2          1           0        0.087975   -0.609123    0.000000
      3          1           0       -0.841170   -1.910640    0.000000
      4          8           0        0.088238    1.447420    0.000000
      5          1           0        0.216232    2.421650    0.000000
      6          1           0       -0.874845    1.252545    0.000000
 ---------------------------------------------------------------------

 SCF Done:  E(RHF) =  -152.109501580     A.U. after   10 cycles
 E2 =    -0.5282947270D+00 EUMP2 =    -0.15263779630724D+03
 CCSD(T)
 CCSD(T)= -0.15266482086D+03

 The electronic state is 1-A'.
 Alpha  occ. eigenvalues --  -20.58250 -20.53725  -1.35693  -1.31158  -0.73511
 Alpha  occ. eigenvalues --   -0.68498  -0.59171  -0.54441  -0.52714  -0.48249
 Alpha virt. eigenvalues --    0.11541   0.16502   0.20284   0.29373   0.49007
 Alpha virt. eigenvalues --    0.54136   0.58008   0.58962   0.68381   0.72865
 Alpha virt. eigenvalues --    0.74480   0.77654   0.81110   0.81570   0.83446

 Mulliken charges:
               1
     1  O   -0.530724
     2  H    0.278990
     3  H    0.236280
     4  O   -0.468146
     5  H    0.242185
     6  H    0.241414
 Sum of Mulliken charges =  -0.00000

 Dipole moment (field-independent basis, Debye):
    X=             -2.9288    Y=              2.9071    Z=              0.0000  Tot=              4.1267
 Quadrupole moment (field-independent basis, Debye-Ang):
   XX=            -10.6044   YY=             -8.9367   ZZ=            -14.7092
   XY=              2.4247   XZ=              0.0000   YZ=              0.0000

 Normal termination of Gaussian 16 at Fri Aug 26 23:24:10 2022.
