 Gaussian 16, Revision A.03,
 Gaussian 16:  ES64L-G16RevA.03 25-Dec-2016

 ------------------
 #p CCSD(T)/cc-pVTZ
 ------------------

 ------------
 H2O_H2O_1916
 ------------
 Symbolic Z-matrix:
 Charge =  0 Multiplicity = 1

                         Standard orientation:
 ---------------------------------------------------------------------
 Center     Atomic      Atomic             Coordinates (Angstroms)
 Number     Number       Type             X           Y           Z
 ---------------------------------------------------------------------
      1          8           0        0.041189    1.870326    0.000000
      2          1           0        0.038719    0.887728    0.000000
      3          1           0       -0.887500    2.191329    0.000000
      4          8           0        0.041189   -1.690446    0.000000
      5          1           0        0.890909   -2.183884    0.000000
      6          1           0       -0.701153   -2.334214    0.000000
 ---------------------------------------------------------------------

 SCF Done:  E(RHF) =  -152.112705892     A.U. after   10 cycles
 E2 =    -0.5264918435D+00 EUMP2 =    -0.15263919773525D+03
 CCSD(T)
 CCSD(T)= -0.15266625075D+03

 The electronic state is 1-A'.
 Alpha  occ. eigenvalues --  -20.57443 -20.53558  -1.34695  -1.30929  -0.72071
 Alpha  occ. eigenvalues --   -0.68381  -0.58419  -0.54377  -0.51835  -0.48084
 Alpha virt. eigenvalues --    0.12216   0.17135   0.19114   0.26708   0.51466
 Alpha virt. eigenvalues --    0.54817   0.56395   0.59044   0.69086   0.72415
 Alpha virt. eigenvalues --    0.75954   0.77366   0.80858   0.83382   0.84474

 Mulliken charges:
               1
     1  O   -0.532002
     2  H    0.270319
     3  H    0.249290
     4  O   -0.508275
     5  H    0.262605
     6  H    0.258063
 Sum of Mulliken charges =  -0.00000

 Dipole moment (field-independent basis, Debye):
    X=             -1.3916    Y=             -3.4052    Z=             -0.0000  Tot=              3.6786
 Quadrupole moment (field-independent basis, Debye-Ang):
   XX=             -9.1519   YY=             -7.9395   ZZ=            -14.7306
   XY=             -4.1548   XZ=             -0.0000   YZ=             -0.0000

 Normal termination of Gaussian 16 at Sun Aug 28 02:46:42 2022.
