 Gaussian 16, Revision A.03,
 Gaussian 16:  ES64L-G16RevA.03 25-Dec-2016

 ------------------
 #p CCSD(T)/cc-pVTZ
 ------------------

 -----------
 H2O_H2O_935
 -----------
 Symbolic Z-matrix:
 Charge =  0 Multiplicity = 1

                         Standard orientation:
 ---------------------------------------------------------------------
 Center     Atomic      Atomic             Coordinates (Angstroms)
 Number     Number       Type             X           Y           Z
 ---------------------------------------------------------------------
      1          8           0        0.063298    1.478996   -0.000000
      2          1           0        0.061486    0.496396   -0.000000
      3          1           0       -0.865605    1.799376   -0.000000
      4          8           0        0.063298   -1.303578    0.000000
      5          1           0        0.660030   -2.084230    0.000000
      6          1           0       -0.868685   -1.614884    0.000000
 ---------------------------------------------------------------------

 SCF Done:  E(RHF) =  -152.111801647     A.U. after   10 cycles
 E2 =    -0.5291064852D+00 EUMP2 =    -0.15264090813256D+03
 CCSD(T)
 CCSD(T)= -0.15266771961D+03

 The electronic state is 1-A'.
 Alpha  occ. eigenvalues --  -20.58982 -20.51549  -1.36567  -1.29281  -0.73851
 Alpha  occ. eigenvalues --   -0.68296  -0.59681  -0.53576  -0.52241  -0.46366
 Alpha virt. eigenvalues --    0.11654   0.17449   0.19450   0.32087   0.48170
 Alpha virt. eigenvalues --    0.54500   0.58736   0.59862   0.69902   0.72581
 Alpha virt. eigenvalues --    0.72831   0.77130   0.81876   0.82760   0.84503

 Mulliken charges:
               1
     1  O   -0.566696
     2  H    0.299752
     3  H    0.234578
     4  O   -0.477284
     5  H    0.256951
     6  H    0.252699
 Sum of Mulliken charges =  -0.00000

 Dipole moment (field-independent basis, Debye):
    X=             -2.0782    Y=             -3.7409    Z=              0.0000  Tot=              4.2794
 Quadrupole moment (field-independent basis, Debye-Ang):
   XX=             -9.4714   YY=             -8.8410   ZZ=            -14.7167
   XY=             -3.1624   XZ=              0.0000   YZ=             -0.0000

 Normal termination of Gaussian 16 at Fri Aug 26 21:26:03 2022.
