 Gaussian 16, Revision A.03,
 Gaussian 16:  ES64L-G16RevA.03 25-Dec-2016

 ------------------
 #p CCSD(T)/cc-pVTZ
 ------------------

 ------------
 H2O_H2O_4211
 ------------
 Symbolic Z-matrix:
 Charge =  0 Multiplicity = 1

                         Standard orientation:
 ---------------------------------------------------------------------
 Center     Atomic      Atomic             Coordinates (Angstroms)
 Number     Number       Type             X           Y           Z
 ---------------------------------------------------------------------
      1          8           0        0.059623    2.786428    0.000000
      2          1           0        0.058575    1.803827    0.000000
      3          1           0       -0.869530    3.106085    0.000000
      4          8           0        0.059623   -2.608958   -0.000000
      5          1           0        0.706709   -3.348408   -0.000000
      6          1           0       -0.849717   -2.981260   -0.000000
 ---------------------------------------------------------------------

 SCF Done:  E(RHF) =  -152.108467755     A.U. after   10 cycles
 E2 =    -0.5258250577D+00 EUMP2 =    -0.15263429281258D+03
 CCSD(T)
 CCSD(T)= -0.15266148632D+03

 The electronic state is 1-A'.
 Alpha  occ. eigenvalues --  -20.56247 -20.54905  -1.33546  -1.32214  -0.70952
 Alpha  occ. eigenvalues --   -0.69612  -0.57041  -0.55684  -0.50665  -0.49336
 Alpha virt. eigenvalues --    0.13168   0.15049   0.19624   0.21185   0.53545
 Alpha virt. eigenvalues --    0.54895   0.56604   0.57813   0.66717   0.68936
 Alpha virt. eigenvalues --    0.78226   0.79401   0.79518   0.80076   0.82777

 Mulliken charges:
               1
     1  O   -0.513782
     2  H    0.260917
     3  H    0.252595
     4  O   -0.514574
     5  H    0.258931
     6  H    0.255913
 Sum of Mulliken charges =  -0.00000

 Dipole moment (field-independent basis, Debye):
    X=             -2.0429    Y=             -3.1245    Z=             -0.0000  Tot=              3.7331
 Quadrupole moment (field-independent basis, Debye-Ang):
   XX=             -9.3620   YY=             -6.5638   ZZ=            -14.7150
   XY=             -4.7634   XZ=             -0.0000   YZ=             -0.0000

 Normal termination of Gaussian 16 at Sun Aug 28 00:51:16 2022.
