 Gaussian 16, Revision A.03,
 Gaussian 16:  ES64L-G16RevA.03 25-Dec-2016

 ------------------
 #p CCSD(T)/cc-pVTZ
 ------------------

 ------------
 H2O_H2O_2076
 ------------
 Symbolic Z-matrix:
 Charge =  0 Multiplicity = 1

                         Standard orientation:
 ---------------------------------------------------------------------
 Center     Atomic      Atomic             Coordinates (Angstroms)
 Number     Number       Type             X           Y           Z
 ---------------------------------------------------------------------
      1          8           0        0.090686   -1.917757    0.000000
      2          1           0        0.090582   -0.935155    0.000000
      3          1           0       -0.838773   -2.236522    0.000000
      4          8           0        0.090686    1.779052    0.000000
      5          1           0        0.154847    2.759557    0.000000
      6          1           0       -0.857632    1.521759    0.000000
 ---------------------------------------------------------------------

 SCF Done:  E(RHF) =  -152.109136109     A.U. after   10 cycles
 E2 =    -0.5266263111D+00 EUMP2 =    -0.15263576241976D+03
 CCSD(T)
 CCSD(T)= -0.15266289292D+03

 The electronic state is 1-A'.
 Alpha  occ. eigenvalues --  -20.57243 -20.54749  -1.34536  -1.32061  -0.72045
 Alpha  occ. eigenvalues --   -0.69391  -0.58039  -0.55492  -0.51634  -0.49175
 Alpha virt. eigenvalues --    0.11516   0.16116   0.20053   0.25291   0.52276
 Alpha virt. eigenvalues --    0.55671   0.56892   0.57441   0.68246   0.73384
 Alpha virt. eigenvalues --    0.76331   0.78918   0.79902   0.81627   0.83064

 Mulliken charges:
               1
     1  O   -0.515509
     2  H    0.265473
     3  H    0.244916
     4  O   -0.500118
     5  H    0.258463
     6  H    0.246775
 Sum of Mulliken charges =  -0.00000

 Dipole moment (field-independent basis, Debye):
    X=             -3.0602    Y=              2.5807    Z=              0.0000  Tot=              4.0031
 Quadrupole moment (field-independent basis, Debye-Ang):
   XX=            -10.7338   YY=             -8.9523   ZZ=            -14.7153
   XY=              2.3248   XZ=              0.0000   YZ=              0.0000

 Normal termination of Gaussian 16 at Sun Aug 28 04:09:11 2022.
