 Gaussian 16, Revision A.03,
 Gaussian 16:  ES64L-G16RevA.03 25-Dec-2016

 ------------------
 #p CCSD(T)/cc-pVTZ
 ------------------

 ------------
 H2O_H2O_1156
 ------------
 Symbolic Z-matrix:
 Charge =  0 Multiplicity = 1

                         Standard orientation:
 ---------------------------------------------------------------------
 Center     Atomic      Atomic             Coordinates (Angstroms)
 Number     Number       Type             X           Y           Z
 ---------------------------------------------------------------------
      1          8           0        0.076785    1.562080   -0.000000
      2          1           0        0.075857    0.579479   -0.000000
      3          1           0       -0.852407    1.881624   -0.000000
      4          8           0        0.076785   -1.398922    0.000000
      5          1           0        0.451954   -2.307083    0.000000
      6          1           0       -0.903961   -1.459288    0.000000
 ---------------------------------------------------------------------

 SCF Done:  E(RHF) =  -152.111547093     A.U. after   10 cycles
 E2 =    -0.5283609226D+00 EUMP2 =    -0.15263990801583D+03
 CCSD(T)
 CCSD(T)= -0.15266685340D+03

 The electronic state is 1-A'.
 Alpha  occ. eigenvalues --  -20.58474 -20.52809  -1.35920  -1.30333  -0.73472
 Alpha  occ. eigenvalues --   -0.68163  -0.59451  -0.53528  -0.52964  -0.47436
 Alpha virt. eigenvalues --    0.11663   0.16931   0.19738   0.30467   0.48618
 Alpha virt. eigenvalues --    0.54659   0.58489   0.58839   0.69553   0.72927
 Alpha virt. eigenvalues --    0.74498   0.76682   0.81749   0.82064   0.84052

 Mulliken charges:
               1
     1  O   -0.544600
     2  H    0.286269
     3  H    0.236304
     4  O   -0.473160
     5  H    0.246532
     6  H    0.248656
 Sum of Mulliken charges =  -0.00000

 Dipole moment (field-independent basis, Debye):
    X=             -2.5428    Y=             -3.3388    Z=              0.0000  Tot=              4.1969
 Quadrupole moment (field-independent basis, Debye-Ang):
   XX=             -9.9884   YY=             -8.7148   ZZ=            -14.7178
   XY=             -2.9233   XZ=              0.0000   YZ=             -0.0000

 Normal termination of Gaussian 16 at Fri Aug 26 22:47:56 2022.
