 Gaussian 16, Revision A.03,
 Gaussian 16:  ES64L-G16RevA.03 25-Dec-2016

 ------------------
 #p CCSD(T)/cc-pVTZ
 ------------------

 ------------
 H2O_H2O_3222
 ------------
 Symbolic Z-matrix:
 Charge =  0 Multiplicity = 1

                         Standard orientation:
 ---------------------------------------------------------------------
 Center     Atomic      Atomic             Coordinates (Angstroms)
 Number     Number       Type             X           Y           Z
 ---------------------------------------------------------------------
      1          8           0       -0.019858    2.381929    0.000000
      2          1           0       -0.017159    1.399331    0.000000
      3          1           0        0.908757    2.703147    0.000000
      4          8           0       -0.019858   -2.214823    0.000000
      5          1           0       -0.993697   -2.345754    0.000000
      6          1           0        0.419821   -3.093566    0.000000
 ---------------------------------------------------------------------

 SCF Done:  E(RHF) =  -152.109535084     A.U. after   10 cycles
 E2 =    -0.5258803751D+00 EUMP2 =    -0.15263541545906D+03
 CCSD(T)
 CCSD(T)= -0.15266257179D+03

 The electronic state is 1-A'.
 Alpha  occ. eigenvalues --  -20.56531 -20.54673  -1.33821  -1.31990  -0.71226
 Alpha  occ. eigenvalues --   -0.69395  -0.57352  -0.55479  -0.50947  -0.49125
 Alpha virt. eigenvalues --    0.12440   0.15737   0.19312   0.22553   0.53471
 Alpha virt. eigenvalues --    0.55456   0.56485   0.58139   0.67522   0.69334
 Alpha virt. eigenvalues --    0.77953   0.78721   0.79712   0.80398   0.83060

 Mulliken charges:
               1
     1  O   -0.518727
     2  H    0.262497
     3  H    0.254359
     4  O   -0.515663
     5  H    0.258700
     6  H    0.258834
 Sum of Mulliken charges =  -0.00000

 Dipole moment (field-independent basis, Debye):
    X=              0.6806    Y=             -2.9890    Z=              0.0000  Tot=              3.0655
 Quadrupole moment (field-independent basis, Debye-Ang):
   XX=             -9.4467   YY=             -7.5707   ZZ=            -14.7186
   XY=              6.0677   XZ=              0.0000   YZ=              0.0000

 CCSD(T)=-152.6625718\RMSD=6.912e-09\PG=CS [SG(H4O2)]\\@
 Normal termination of Gaussian 16 at Fri Aug 26 20:28:57 2022.
