 Gaussian 16, Revision A.03,
 Gaussian 16:  ES64L-G16RevA.03 25-Dec-2016

 ------------------
 #p CCSD(T)/cc-pVTZ
 ------------------

 -----------
 H2O_H2O_515
 -----------
 Symbolic Z-matrix:
 Charge =  0 Multiplicity = 1

                         Standard orientation:
 ---------------------------------------------------------------------
 Center     Atomic      Atomic             Coordinates (Angstroms)
 Number     Number       Type             X           Y           Z
 ---------------------------------------------------------------------
      1          8           0        0.044999    1.312110   -0.000000
      2          1           0        0.041659    0.329514   -0.000000
      3          1           0       -0.883405    1.633935   -0.000000
      4          8           0        0.044999   -1.131851    0.000000
      5          1           0        0.860142   -1.680529    0.000000
      6          1           0       -0.738382   -1.724994    0.000000
 ---------------------------------------------------------------------

 SCF Done:  E(RHF) =  -152.100856758     A.U. after   11 cycles
 E2 =    -0.5315825967D+00 EUMP2 =    -0.15263243935505D+03
 CCSD(T)
 CCSD(T)= -0.15265881579D+03

 The electronic state is 1-A'.
 Alpha  occ. eigenvalues --  -20.60201 -20.48756  -1.38644  -1.27241  -0.75231
 Alpha  occ. eigenvalues --   -0.71222  -0.58504  -0.55292  -0.49318  -0.44184
 Alpha virt. eigenvalues --    0.11277   0.17628   0.19803   0.33575   0.47357
 Alpha virt. eigenvalues --    0.53630   0.60845   0.64077   0.70003   0.72270
 Alpha virt. eigenvalues --    0.73962   0.78712   0.81277   0.82499   0.84024

 Mulliken charges:
               1
     1  O   -0.615257
     2  H    0.313794
     3  H    0.227419
     4  O   -0.437077
     5  H    0.260895
     6  H    0.250226
 Sum of Mulliken charges =  -0.00000

 Dipole moment (field-independent basis, Debye):
    X=             -1.4386    Y=             -4.2991    Z=              0.0000  Tot=              4.5334
 Quadrupole moment (field-independent basis, Debye-Ang):
   XX=             -9.1329   YY=             -9.4235   ZZ=            -14.6759
   XY=             -3.0603   XZ=              0.0000   YZ=             -0.0000

 Normal termination of Gaussian 16 at Fri Aug 26 18:46:21 2022.
