 Gaussian 16, Revision A.03,
 Gaussian 16:  ES64L-G16RevA.03 25-Dec-2016

 ------------------
 #p CCSD(T)/cc-pVTZ
 ------------------

 ------------
 H2O_H2O_1179
 ------------
 Symbolic Z-matrix:
 Charge =  0 Multiplicity = 1

                         Standard orientation:
 ---------------------------------------------------------------------
 Center     Atomic      Atomic             Coordinates (Angstroms)
 Number     Number       Type             X           Y           Z
 ---------------------------------------------------------------------
      1          8           0        0.082819   -1.567339    0.000000
      2          1           0        0.082241   -0.584738    0.000000
      3          1           0       -0.846486   -1.886552    0.000000
      4          8           0        0.082819    1.412855    0.000000
      5          1           0        0.336577    2.362125    0.000000
      6          1           0       -0.897440    1.345041    0.000000
 ---------------------------------------------------------------------

 SCF Done:  E(RHF) =  -152.110521141     A.U. after   10 cycles
 E2 =    -0.5284079043D+00 EUMP2 =    -0.15263892904485D+03
 CCSD(T)
 CCSD(T)= -0.15266590473D+03

 The electronic state is 1-A'.
 Alpha  occ. eigenvalues --  -20.58404 -20.53198  -1.35861  -1.30685  -0.73556
 Alpha  occ. eigenvalues --   -0.68280  -0.59359  -0.53914  -0.52889  -0.47781
 Alpha virt. eigenvalues --    0.11599   0.16707   0.19999   0.30071   0.48756
 Alpha virt. eigenvalues --    0.54425   0.58310   0.58976   0.69050   0.72842
 Alpha virt. eigenvalues --    0.74628   0.77177   0.81453   0.81817   0.83734

 Mulliken charges:
               1
     1  O   -0.538680
     2  H    0.283135
     3  H    0.235774
     4  O   -0.467195
     5  H    0.242010
     6  H    0.244957
 Sum of Mulliken charges =  -0.00000

 Dipole moment (field-independent basis, Debye):
    X=             -2.7436    Y=              3.1485    Z=              0.0000  Tot=              4.1762
 Quadrupole moment (field-independent basis, Debye-Ang):
   XX=            -10.2935   YY=             -8.8048   ZZ=            -14.7128
   XY=              2.6941   XZ=              0.0000   YZ=              0.0000

 Normal termination of Gaussian 16 at Fri Aug 26 22:56:10 2022.
