 Gaussian 16, Revision A.03,
 Gaussian 16:  ES64L-G16RevA.03 25-Dec-2016

 ------------------
 #p CCSD(T)/cc-pVTZ
 ------------------

 -----------
 H2O_H2O_921
 -----------
 Symbolic Z-matrix:
 Charge =  0 Multiplicity = 1

                         Standard orientation:
 ---------------------------------------------------------------------
 Center     Atomic      Atomic             Coordinates (Angstroms)
 Number     Number       Type             X           Y           Z
 ---------------------------------------------------------------------
      1          8           0       -0.023354    1.466258    0.000000
      2          1           0       -0.019069    0.483666    0.000000
      3          1           0        0.904740    1.788976    0.000000
      4          8           0       -0.023354   -1.295951    0.000000
      5          1           0       -0.986230   -1.491848    0.000000
      6          1           0        0.474225   -2.143253    0.000000
 ---------------------------------------------------------------------

 SCF Done:  E(RHF) =  -152.111932766     A.U. after   10 cycles
 E2 =    -0.5290030323D+00 EUMP2 =    -0.15264093579790D+03
 CCSD(T)
 CCSD(T)= -0.15266773353D+03

 The electronic state is 1-A'.
 Alpha  occ. eigenvalues --  -20.58952 -20.51443  -1.36592  -1.29211  -0.74035
 Alpha  occ. eigenvalues --   -0.68069  -0.59904  -0.53585  -0.52096  -0.46315
 Alpha virt. eigenvalues --    0.11888   0.18407   0.18783   0.32482   0.48553
 Alpha virt. eigenvalues --    0.54526   0.56538   0.63969   0.68280   0.72513
 Alpha virt. eigenvalues --    0.73311   0.77028   0.81466   0.82951   0.84300

 Mulliken charges:
               1
     1  O   -0.578063
     2  H    0.295336
     3  H    0.246222
     4  O   -0.471524
     5  H    0.262849
     6  H    0.245180
 Sum of Mulliken charges =  -0.00000

 Dipole moment (field-independent basis, Debye):
    X=              0.7769    Y=             -3.6600    Z=              0.0000  Tot=              3.7416
 Quadrupole moment (field-independent basis, Debye-Ang):
   XX=             -9.3468   YY=             -8.8896   ZZ=            -14.7154
   XY=              3.6583   XZ=              0.0000   YZ=              0.0000

 Normal termination of Gaussian 16 at Fri Aug 26 21:21:14 2022.
