 Gaussian 16, Revision A.03,
 Gaussian 16:  ES64L-G16RevA.03 25-Dec-2016

 ------------------
 #p CCSD(T)/cc-pVTZ
 ------------------

 ------------
 H2O_H2O_1680
 ------------
 Symbolic Z-matrix:
 Charge =  0 Multiplicity = 1

                         Standard orientation:
 ---------------------------------------------------------------------
 Center     Atomic      Atomic             Coordinates (Angstroms)
 Number     Number       Type             X           Y           Z
 ---------------------------------------------------------------------
      1          8           0        0.079865   -1.769249    0.000000
      2          1           0        0.079208   -0.786648    0.000000
      3          1           0       -0.849414   -2.088538    0.000000
      4          8           0        0.079865    1.610215    0.000000
      5          1           0        0.395090    2.540881    0.000000
      6          1           0       -0.902730    1.606578    0.000000
 ---------------------------------------------------------------------

 SCF Done:  E(RHF) =  -152.111209667     A.U. after   10 cycles
 E2 =    -0.5270167727D+00 EUMP2 =    -0.15263822643934D+03
 CCSD(T)
 CCSD(T)= -0.15266528846D+03

 The electronic state is 1-A'.
 Alpha  occ. eigenvalues --  -20.57677 -20.53895  -1.34974  -1.31261  -0.72460
 Alpha  occ. eigenvalues --   -0.68662  -0.58601  -0.54654  -0.52078  -0.48387
 Alpha virt. eigenvalues --    0.11768   0.16642   0.19704   0.27293   0.50373
 Alpha virt. eigenvalues --    0.55337   0.56955   0.58168   0.69151   0.74082
 Alpha virt. eigenvalues --    0.74945   0.77660   0.80755   0.82892   0.83748

 Mulliken charges:
               1
     1  O   -0.525994
     2  H    0.271718
     3  H    0.242571
     4  O   -0.497029
     5  H    0.257326
     6  H    0.251408
 Sum of Mulliken charges =  -0.00000

 Dipole moment (field-independent basis, Debye):
    X=             -2.6817    Y=              3.0544    Z=              0.0000  Tot=              4.0646
 Quadrupole moment (field-independent basis, Debye-Ang):
   XX=            -10.1292   YY=             -8.4859   ZZ=            -14.7234
   XY=              2.9270   XZ=              0.0000   YZ=              0.0000

 Normal termination of Gaussian 16 at Sun Aug 28 00:31:54 2022.
