 Gaussian 16, Revision A.03,
 Gaussian 16:  ES64L-G16RevA.03 25-Dec-2016

 ------------------
 #p CCSD(T)/cc-pVTZ
 ------------------

 -----------
 H2O_H2O_318
 -----------
 Symbolic Z-matrix:
 Charge =  0 Multiplicity = 1

                         Standard orientation:
 ---------------------------------------------------------------------
 Center     Atomic      Atomic             Coordinates (Angstroms)
 Number     Number       Type             X           Y           Z
 ---------------------------------------------------------------------
      1          8           0        0.033987    1.230771    0.000000
      2          1           0        0.029591    0.248180    0.000000
      3          1           0       -0.894071    1.553593    0.000000
      4          8           0        0.033987   -1.053398    0.000000
      5          1           0        0.940101   -1.433482    0.000000
      6          1           0       -0.619414   -1.787274    0.000000
 ---------------------------------------------------------------------

 SCF Done:  E(RHF) =  -152.084327530     A.U. after   11 cycles
 E2 =    -0.5333145473D+00 EUMP2 =    -0.15261764207746D+03
 CCSD(T)
 CCSD(T)= -0.15264368889D+03

 The electronic state is 1-A'.
 Alpha  occ. eigenvalues --  -20.60910 -20.47009  -1.40356  -1.26121  -0.76984
 Alpha  occ. eigenvalues --   -0.73177  -0.57297  -0.56496  -0.47425  -0.42929
 Alpha virt. eigenvalues --    0.10993   0.17384   0.20252   0.33768   0.46968
 Alpha virt. eigenvalues --    0.52991   0.61031   0.67459   0.69842   0.71949
 Alpha virt. eigenvalues --    0.77197   0.78741   0.79724   0.83151   0.83972

 Mulliken charges:
               1
     1  O   -0.641427
     2  H    0.303566
     3  H    0.223727
     4  O   -0.388809
     5  H    0.260906
     6  H    0.242037
 Sum of Mulliken charges =  -0.00000

 Dipole moment (field-independent basis, Debye):
    X=             -1.0674    Y=             -4.5486    Z=              0.0000  Tot=              4.6722
 Quadrupole moment (field-independent basis, Debye-Ang):
   XX=             -9.1327   YY=             -9.7381   ZZ=            -14.6329
   XY=             -2.9347   XZ=              0.0000   YZ=              0.0000

 Normal termination of Gaussian 16 at Fri Aug 26 17:23:50 2022.
