 Gaussian 16, Revision A.03,
 Gaussian 16:  ES64L-G16RevA.03 25-Dec-2016

 ------------------
 #p CCSD(T)/cc-pVTZ
 ------------------

 -----------
 H2O_H2O_277
 -----------
 Symbolic Z-matrix:
 Charge =  0 Multiplicity = 1

                         Standard orientation:
 ---------------------------------------------------------------------
 Center     Atomic      Atomic             Coordinates (Angstroms)
 Number     Number       Type             X           Y           Z
 ---------------------------------------------------------------------
      1          8           0        0.088245   -1.202811    0.000000
      2          1           0        0.087891   -0.220210    0.000000
      3          1           0       -0.841134   -1.521812    0.000000
      4          8           0        0.088245    1.058523    0.000000
      5          1           0        0.216149    2.032765    0.000000
      6          1           0       -0.874821    0.863559    0.000000
 ---------------------------------------------------------------------

 SCF Done:  E(RHF) =  -152.068774203     A.U. after   11 cycles
 E2 =    -0.5359213794D+00 EUMP2 =    -0.15260469558198D+03
 CCSD(T)
 CCSD(T)= -0.15263075883D+03

 The electronic state is 1-A'.
 Alpha  occ. eigenvalues --  -20.60847 -20.49070  -1.41106  -1.27781  -0.80422
 Alpha  occ. eigenvalues --   -0.69630  -0.58060  -0.56538  -0.49791  -0.44654
 Alpha virt. eigenvalues --    0.10927   0.16172   0.21306   0.32264   0.49175
 Alpha virt. eigenvalues --    0.51418   0.59539   0.66017   0.71504   0.72827
 Alpha virt. eigenvalues --    0.76207   0.76223   0.79437   0.83287   0.85289

 Mulliken charges:
               1
     1  O   -0.588039
     2  H    0.275330
     3  H    0.201823
     4  O   -0.349223
     5  H    0.227189
     6  H    0.232921
 Sum of Mulliken charges =  -0.00000

 Dipole moment (field-independent basis, Debye):
    X=             -2.7800    Y=              3.8143    Z=              0.0000  Tot=              4.7199
 Quadrupole moment (field-independent basis, Debye-Ang):
   XX=            -10.5486   YY=             -9.6677   ZZ=            -14.5824
   XY=              2.2185   XZ=              0.0000   YZ=              0.0000

 Normal termination of Gaussian 16 at Fri Aug 26 17:06:55 2022.
