 Gaussian 16, Revision A.03,
 Gaussian 16:  ES64L-G16RevA.03 25-Dec-2016

 ------------------
 #p CCSD(T)/cc-pVTZ
 ------------------

 ------------
 H2O_H2O_3019
 ------------
 Symbolic Z-matrix:
 Charge =  0 Multiplicity = 1

                         Standard orientation:
 ---------------------------------------------------------------------
 Center     Atomic      Atomic             Coordinates (Angstroms)
 Number     Number       Type             X           Y           Z
 ---------------------------------------------------------------------
      1          8           0        0.030193    2.306768   -0.000000
      2          1           0        0.027792    1.324170   -0.000000
      3          1           0       -0.898519    2.627704    0.000000
      4          8           0        0.030193   -2.131164   -0.000000
      5          1           0        0.959874   -2.449283   -0.000000
      6          1           0       -0.572237   -2.907427    0.000000
 ---------------------------------------------------------------------

 SCF Done:  E(RHF) =  -152.109936947     A.U. after   10 cycles
 E2 =    -0.5259190081D+00 EUMP2 =    -0.15263585595554D+03
 CCSD(T)
 CCSD(T)= -0.15266299778D+03

 The electronic state is 1-A'.
 Alpha  occ. eigenvalues --  -20.56632 -20.54482  -1.33912  -1.31803  -0.71313
 Alpha  occ. eigenvalues --   -0.69204  -0.57460  -0.55294  -0.51042  -0.48941
 Alpha virt. eigenvalues --    0.12479   0.15941   0.19399   0.22761   0.53335
 Alpha virt. eigenvalues --    0.55501   0.56432   0.58420   0.68193   0.69344
 Alpha virt. eigenvalues --    0.77849   0.78946   0.79830   0.79888   0.83223

 Mulliken charges:
               1
     1  O   -0.520028
     2  H    0.264021
     3  H    0.253178
     4  O   -0.514979
     5  H    0.259643
     6  H    0.258165
 Sum of Mulliken charges =   0.00000

 Dipole moment (field-independent basis, Debye):
    X=             -1.0308    Y=             -3.1603    Z=             -0.0000  Tot=              3.3242
 Quadrupole moment (field-independent basis, Debye-Ang):
   XX=             -9.2294   YY=             -7.3413   ZZ=            -14.7200
   XY=             -5.3894   XZ=             -0.0000   YZ=             -0.0000

 Normal termination of Gaussian 16 at Fri Aug 26 19:17:37 2022.
