 Gaussian 16, Revision A.03,
 Gaussian 16:  ES64L-G16RevA.03 25-Dec-2016

 ------------------
 #p CCSD(T)/cc-pVTZ
 ------------------

 -----------
 H2O_H2O_493
 -----------
 Symbolic Z-matrix:
 Charge =  0 Multiplicity = 1

                         Standard orientation:
 ---------------------------------------------------------------------
 Center     Atomic      Atomic             Coordinates (Angstroms)
 Number     Number       Type             X           Y           Z
 ---------------------------------------------------------------------
      1          8           0        0.033964    1.300583    0.000000
      2          1           0        0.029821    0.317990    0.000000
      3          1           0       -0.894177    1.623166    0.000000
      4          8           0        0.033964   -1.123193   -0.000000
      5          1           0        0.940176   -1.503043   -0.000000
      6          1           0       -0.619248   -1.857236   -0.000000
 ---------------------------------------------------------------------

 SCF Done:  E(RHF) =  -152.099176101     A.U. after   11 cycles
 E2 =    -0.5317600143D+00 EUMP2 =    -0.15263093611574D+03
 CCSD(T)
 CCSD(T)= -0.15265727998D+03

 The electronic state is 1-A'.
 Alpha  occ. eigenvalues --  -20.60241 -20.48623  -1.38806  -1.27163  -0.75670
 Alpha  occ. eigenvalues --   -0.71036  -0.58557  -0.55393  -0.49141  -0.44103
 Alpha virt. eigenvalues --    0.11314   0.17782   0.19743   0.33769   0.47274
 Alpha virt. eigenvalues --    0.53592   0.59948   0.66618   0.69214   0.72240
 Alpha virt. eigenvalues --    0.74326   0.78345   0.80461   0.83270   0.83864

 Mulliken charges:
               1
     1  O   -0.620377
     2  H    0.308913
     3  H    0.231080
     4  O   -0.427411
     5  H    0.261866
     6  H    0.245929
 Sum of Mulliken charges =  -0.00000

 Dipole moment (field-independent basis, Debye):
    X=             -1.0880    Y=             -4.2732    Z=             -0.0000  Tot=              4.4095
 Quadrupole moment (field-independent basis, Debye-Ang):
   XX=             -9.1491   YY=             -9.4465   ZZ=            -14.6699
   XY=             -3.1037   XZ=             -0.0000   YZ=              0.0000

 Normal termination of Gaussian 16 at Fri Aug 26 18:38:00 2022.
