 Gaussian 16, Revision A.03,
 Gaussian 16:  ES64L-G16RevA.03 25-Dec-2016

 ------------------
 #p CCSD(T)/cc-pVTZ
 ------------------

 ------------
 H2O_H2O_2928
 ------------
 Symbolic Z-matrix:
 Charge =  0 Multiplicity = 1

                         Standard orientation:
 ---------------------------------------------------------------------
 Center     Atomic      Atomic             Coordinates (Angstroms)
 Number     Number       Type             X           Y           Z
 ---------------------------------------------------------------------
      1          8           0        0.085602   -2.262717    0.000000
      2          1           0        0.085317   -1.280116    0.000000
      3          1           0       -0.843799   -2.581653    0.000000
      4          8           0        0.085602    2.113122    0.000000
      5          1           0        0.277019    3.076900    0.000000
      6          1           0       -0.888162    1.981631    0.000000
 ---------------------------------------------------------------------

 SCF Done:  E(RHF) =  -152.108685571     A.U. after   10 cycles
 E2 =    -0.5260642622D+00 EUMP2 =    -0.15263474983311D+03
 CCSD(T)
 CCSD(T)= -0.15266191599D+03

 The electronic state is 1-A'.
 Alpha  occ. eigenvalues --  -20.56687 -20.54885  -1.33976  -1.32193  -0.71403
 Alpha  occ. eigenvalues --   -0.69573  -0.57466  -0.55653  -0.51090  -0.49312
 Alpha virt. eigenvalues --    0.11822   0.15711   0.19444   0.23023   0.54231
 Alpha virt. eigenvalues --    0.54819   0.56422   0.58266   0.68224   0.69178
 Alpha virt. eigenvalues --    0.77787   0.78651   0.79555   0.80853   0.82787

 Mulliken charges:
               1
     1  O   -0.513130
     2  H    0.261846
     3  H    0.249138
     4  O   -0.509275
     5  H    0.259711
     6  H    0.251710
 Sum of Mulliken charges =   0.00000

 Dipole moment (field-independent basis, Debye):
    X=             -2.9142    Y=              2.6929    Z=              0.0000  Tot=              3.9679
 Quadrupole moment (field-independent basis, Debye-Ang):
   XX=            -10.4099   YY=             -8.4353   ZZ=            -14.7152
   XY=              2.7753   XZ=              0.0000   YZ=              0.0000

 Normal termination of Gaussian 16 at Fri Aug 26 18:26:29 2022.
