 Gaussian 16, Revision A.03,
 Gaussian 16:  ES64L-G16RevA.03 25-Dec-2016

 ------------------
 #p CCSD(T)/cc-pVTZ
 ------------------

 ------------
 H2O_H2O_4455
 ------------
 Symbolic Z-matrix:
 Charge =  0 Multiplicity = 1

                         Standard orientation:
 ---------------------------------------------------------------------
 Center     Atomic      Atomic             Coordinates (Angstroms)
 Number     Number       Type             X           Y           Z
 ---------------------------------------------------------------------
      1          8           0        0.079844    2.876155   -0.000000
      2          1           0        0.079447    1.893554   -0.000000
      3          1           0       -0.849520    3.195197   -0.000000
      4          8           0        0.079844   -2.717079    0.000000
      5          1           0        0.395314   -3.647661    0.000000
      6          1           0       -0.902752   -2.713702    0.000000
 ---------------------------------------------------------------------

 SCF Done:  E(RHF) =  -152.108004205     A.U. after   10 cycles
 E2 =    -0.5258478679D+00 EUMP2 =    -0.15263385207266D+03
 CCSD(T)
 CCSD(T)= -0.15266105771D+03

 The electronic state is 1-A'.
 Alpha  occ. eigenvalues --  -20.56208 -20.55125  -1.33509  -1.32429  -0.70920
 Alpha  occ. eigenvalues --   -0.69826  -0.56984  -0.55889  -0.50623  -0.49546
 Alpha virt. eigenvalues --    0.13086   0.14832   0.19355   0.21239   0.53385
 Alpha virt. eigenvalues --    0.54878   0.56593   0.57751   0.66859   0.68641
 Alpha virt. eigenvalues --    0.78266   0.79319   0.79462   0.80807   0.82332

 Mulliken charges:
               1
     1  O   -0.511439
     2  H    0.259087
     3  H    0.252242
     4  O   -0.512453
     5  H    0.258545
     6  H    0.254017
 Sum of Mulliken charges =  -0.00000

 Dipole moment (field-independent basis, Debye):
    X=             -2.7376    Y=             -2.7930    Z=             -0.0000  Tot=              3.9110
 Quadrupole moment (field-independent basis, Debye-Ang):
   XX=            -10.0940   YY=             -7.5218   ZZ=            -14.7133
   XY=             -3.4469   XZ=              0.0000   YZ=             -0.0000

 Normal termination of Gaussian 16 at Sun Aug 28 03:04:29 2022.
