 Gaussian 16, Revision A.03,
 Gaussian 16:  ES64L-G16RevA.03 25-Dec-2016

 ------------------
 #p CCSD(T)/cc-pVTZ
 ------------------

 ------------
 H2O_H2O_1339
 ------------
 Symbolic Z-matrix:
 Charge =  0 Multiplicity = 1

                         Standard orientation:
 ---------------------------------------------------------------------
 Center     Atomic      Atomic             Coordinates (Angstroms)
 Number     Number       Type             X           Y           Z
 ---------------------------------------------------------------------
      1          8           0        0.048653    1.641208   -0.000000
      2          1           0        0.046225    0.658609   -0.000000
      3          1           0       -0.880050    1.962170   -0.000000
      4          8           0        0.048653   -1.460895    0.000000
      5          1           0        0.826723   -2.060988    0.000000
      6          1           0       -0.771343   -2.002295    0.000000
 ---------------------------------------------------------------------

 SCF Done:  E(RHF) =  -152.114112469     A.U. after   10 cycles
 E2 =    -0.5275208013D+00 EUMP2 =    -0.15264163326996D+03
 CCSD(T)
 CCSD(T)= -0.15266859639D+03

 The electronic state is 1-A'.
 Alpha  occ. eigenvalues --  -20.58207 -20.52569  -1.35528  -1.30068  -0.72835
 Alpha  occ. eigenvalues --   -0.67928  -0.59327  -0.53336  -0.52646  -0.47211
 Alpha virt. eigenvalues --    0.11989   0.17751   0.18955   0.30005   0.49361
 Alpha virt. eigenvalues --    0.54741   0.56131   0.59899   0.69127   0.71698
 Alpha virt. eigenvalues --    0.73701   0.76898   0.81861   0.82861   0.84942

 Mulliken charges:
               1
     1  O   -0.548176
     2  H    0.283544
     3  H    0.244063
     4  O   -0.503995
     5  H    0.265754
     6  H    0.258810
 Sum of Mulliken charges =  -0.00000

 Dipole moment (field-independent basis, Debye):
    X=             -1.6238    Y=             -3.6039    Z=              0.0000  Tot=              3.9529
 Quadrupole moment (field-independent basis, Debye-Ang):
   XX=             -9.1877   YY=             -8.4147   ZZ=            -14.7348
   XY=             -3.6143   XZ=              0.0000   YZ=             -0.0000

 CCSD(T)=-152.6685964\RMSD=6.763e-09\PG=CS [SG(H4O2)]\\@
 Normal termination of Gaussian 16 at Fri Aug 26 23:57:27 2022.
