 Gaussian 16, Revision A.03,
 Gaussian 16:  ES64L-G16RevA.03 25-Dec-2016

 ------------------
 #p CCSD(T)/cc-pVTZ
 ------------------

 ------------
 H2O_H2O_1414
 ------------
 Symbolic Z-matrix:
 Charge =  0 Multiplicity = 1

                         Standard orientation:
 ---------------------------------------------------------------------
 Center     Atomic      Atomic             Coordinates (Angstroms)
 Number     Number       Type             X           Y           Z
 ---------------------------------------------------------------------
      1          8           0        0.048649    1.671126    0.000000
      2          1           0        0.046267    0.688527    0.000000
      3          1           0       -0.880069    1.992044   -0.000000
      4          8           0        0.048649   -1.490808    0.000000
      5          1           0        0.826747   -2.090866    0.000000
      6          1           0       -0.771321   -2.032247   -0.000000
 ---------------------------------------------------------------------

 SCF Done:  E(RHF) =  -152.114015918     A.U. after   10 cycles
 E2 =    -0.5273349151D+00 EUMP2 =    -0.15264135083289D+03
 CCSD(T)
 CCSD(T)= -0.15266833129D+03

 The electronic state is 1-A'.
 Alpha  occ. eigenvalues --  -20.58087 -20.52742  -1.35388  -1.30213  -0.72711
 Alpha  occ. eigenvalues --   -0.67963  -0.59201  -0.53519  -0.52513  -0.47360
 Alpha virt. eigenvalues --    0.12020   0.17670   0.18971   0.29544   0.49605
 Alpha virt. eigenvalues --    0.54709   0.56131   0.59725   0.69096   0.71810
 Alpha virt. eigenvalues --    0.73983   0.76833   0.81702   0.82943   0.84900

 Mulliken charges:
               1
     1  O   -0.544928
     2  H    0.280885
     3  H    0.244810
     4  O   -0.505134
     5  H    0.265548
     6  H    0.258820
 Sum of Mulliken charges =   0.00000

 Dipole moment (field-independent basis, Debye):
    X=             -1.6270    Y=             -3.5710    Z=              0.0000  Tot=              3.9241
 Quadrupole moment (field-independent basis, Debye-Ang):
   XX=             -9.1882   YY=             -8.3451   ZZ=            -14.7351
   XY=             -3.6626   XZ=              0.0000   YZ=              0.0000

 Normal termination of Gaussian 16 at Sat Aug 27 00:26:21 2022.
