 Gaussian 16, Revision A.03,
 Gaussian 16:  ES64L-G16RevA.03 25-Dec-2016

 ------------------
 #p CCSD(T)/cc-pVTZ
 ------------------

 -----------
 H2O_H2O_438
 -----------
 Symbolic Z-matrix:
 Charge =  0 Multiplicity = 1

                         Standard orientation:
 ---------------------------------------------------------------------
 Center     Atomic      Atomic             Coordinates (Angstroms)
 Number     Number       Type             X           Y           Z
 ---------------------------------------------------------------------
      1          8           0        0.052424    1.281913    0.000000
      2          1           0        0.049529    0.299316    0.000000
      3          1           0       -0.876126    1.603316    0.000000
      4          8           0        0.052424   -1.102168   -0.000000
      5          1           0        0.789271   -1.752216   -0.000000
      6          1           0       -0.801456   -1.588374   -0.000000
 ---------------------------------------------------------------------

 SCF Done:  E(RHF) =  -152.095729321     A.U. after   11 cycles
 E2 =    -0.5323166417D+00 EUMP2 =    -0.15262804596304D+03
 CCSD(T)
 CCSD(T)= -0.15265430877D+03

 The electronic state is 1-A'.
 Alpha  occ. eigenvalues --  -20.60483 -20.48221  -1.39227  -1.26898  -0.75675
 Alpha  occ. eigenvalues --   -0.72137  -0.57981  -0.55723  -0.48771  -0.43789
 Alpha virt. eigenvalues --    0.11115   0.17308   0.20098   0.33479   0.47471
 Alpha virt. eigenvalues --    0.53356   0.61896   0.63250   0.70862   0.72179
 Alpha virt. eigenvalues --    0.74974   0.79062   0.80901   0.82440   0.83973

 Mulliken charges:
               1
     1  O   -0.620111
     2  H    0.312738
     3  H    0.221706
     4  O   -0.419484
     5  H    0.256521
     6  H    0.248630
 Sum of Mulliken charges =  -0.00000

 Dipole moment (field-independent basis, Debye):
    X=             -1.6611    Y=             -4.3915    Z=             -0.0000  Tot=              4.6952
 Quadrupole moment (field-independent basis, Debye-Ang):
   XX=             -9.2061   YY=             -9.5371   ZZ=            -14.6605
   XY=             -2.9661   XZ=             -0.0000   YZ=              0.0000

 Normal termination of Gaussian 16 at Fri Aug 26 18:15:58 2022.
