 Gaussian 16, Revision A.03,
 Gaussian 16:  ES64L-G16RevA.03 25-Dec-2016

 ------------------
 #p CCSD(T)/cc-pVTZ
 ------------------

 ------------
 H2O_H2O_4027
 ------------
 Symbolic Z-matrix:
 Charge =  0 Multiplicity = 1

                         Standard orientation:
 ---------------------------------------------------------------------
 Center     Atomic      Atomic             Coordinates (Angstroms)
 Number     Number       Type             X           Y           Z
 ---------------------------------------------------------------------
      1          8           0        0.088230   -2.698619    0.000000
      2          1           0        0.088077   -1.716018    0.000000
      3          1           0       -0.841214   -3.017430    0.000000
      4          8           0        0.088230    2.554295    0.000000
      5          1           0        0.216335    3.528510    0.000000
      6          1           0       -0.874875    2.359528    0.000000
 ---------------------------------------------------------------------

 SCF Done:  E(RHF) =  -152.107891645     A.U. after   10 cycles
 E2 =    -0.5258881575D+00 EUMP2 =    -0.15263377980229D+03
 CCSD(T)
 CCSD(T)= -0.15266098496D+03

 The electronic state is 1-A'.
 Alpha  occ. eigenvalues --  -20.56305 -20.55193  -1.33605  -1.32496  -0.71021
 Alpha  occ. eigenvalues --   -0.69890  -0.57073  -0.55952  -0.50717  -0.49611
 Alpha virt. eigenvalues --    0.12468   0.15008   0.19028   0.21894   0.53145
 Alpha virt. eigenvalues --    0.54970   0.56505   0.57847   0.66751   0.68776
 Alpha virt. eigenvalues --    0.78180   0.79169   0.79257   0.81282   0.82385

 Mulliken charges:
               1
     1  O   -0.510464
     2  H    0.258638
     3  H    0.251577
     4  O   -0.511482
     5  H    0.259048
     6  H    0.252683
 Sum of Mulliken charges =  -0.00000

 Dipole moment (field-independent basis, Debye):
    X=             -3.0209    Y=              2.5443    Z=              0.0000  Tot=              3.9496
 Quadrupole moment (field-independent basis, Debye-Ang):
   XX=            -10.5519   YY=             -8.5409   ZZ=            -14.7127
   XY=              2.6480   XZ=              0.0000   YZ=              0.0000

 Normal termination of Gaussian 16 at Sat Aug 27 01:05:35 2022.
