 Gaussian 16, Revision A.03,
 Gaussian 16:  ES64L-G16RevA.03 25-Dec-2016

 ------------------
 #p CCSD(T)/cc-pVTZ
 ------------------

 ------------
 H2O_H2O_3038
 ------------
 Symbolic Z-matrix:
 Charge =  0 Multiplicity = 1

                         Standard orientation:
 ---------------------------------------------------------------------
 Center     Atomic      Atomic             Coordinates (Angstroms)
 Number     Number       Type             X           Y           Z
 ---------------------------------------------------------------------
      1          8           0        0.052301    2.319063    0.000000
      2          1           0        0.050753    1.336463    0.000000
      3          1           0       -0.876689    2.639194    0.000000
      4          8           0        0.052301   -2.139175   -0.000000
      5          1           0        0.790038   -2.788212   -0.000000
      6          1           0       -0.800912   -2.626549   -0.000000
 ---------------------------------------------------------------------

 SCF Done:  E(RHF) =  -152.109765478     A.U. after   10 cycles
 E2 =    -0.5259381650D+00 EUMP2 =    -0.15263570364262D+03
 CCSD(T)
 CCSD(T)= -0.15266284828D+03

 The electronic state is 1-A'.
 Alpha  occ. eigenvalues --  -20.56636 -20.54460  -1.33914  -1.31779  -0.71316
 Alpha  occ. eigenvalues --   -0.69172  -0.57455  -0.55265  -0.51043  -0.48914
 Alpha virt. eigenvalues --    0.12507   0.15902   0.19468   0.22584   0.53211
 Alpha virt. eigenvalues --    0.55399   0.56340   0.58538   0.68153   0.69335
 Alpha virt. eigenvalues --    0.77854   0.79131   0.79315   0.79916   0.83229

 Mulliken charges:
               1
     1  O   -0.518512
     2  H    0.264332
     3  H    0.251340
     4  O   -0.514018
     5  H    0.260172
     6  H    0.256685
 Sum of Mulliken charges =  -0.00000

 Dipole moment (field-independent basis, Debye):
    X=             -1.7833    Y=             -3.2372    Z=             -0.0000  Tot=              3.6959
 Quadrupole moment (field-independent basis, Debye-Ang):
   XX=             -9.2265   YY=             -7.1780   ZZ=            -14.7195
   XY=             -4.5241   XZ=             -0.0000   YZ=             -0.0000

 Normal termination of Gaussian 16 at Fri Aug 26 19:25:09 2022.
