 Gaussian 16, Revision A.03,
 Gaussian 16:  ES64L-G16RevA.03 25-Dec-2016

 ------------------
 #p CCSD(T)/cc-pVTZ
 ------------------

 ------------
 H2O_H2O_2558
 ------------
 Symbolic Z-matrix:
 Charge =  0 Multiplicity = 1

                         Standard orientation:
 ---------------------------------------------------------------------
 Center     Atomic      Atomic             Coordinates (Angstroms)
 Number     Number       Type             X           Y           Z
 ---------------------------------------------------------------------
      1          8           0        0.070207    2.124349   -0.000000
      2          1           0        0.069260    1.141748   -0.000000
      3          1           0       -0.858979    2.443911   -0.000000
      4          8           0        0.070207   -1.954118    0.000000
      5          1           0        0.560687   -2.805549    0.000000
      6          1           0       -0.894273   -2.141962    0.000000
 ---------------------------------------------------------------------

 SCF Done:  E(RHF) =  -152.110097784     A.U. after   10 cycles
 E2 =    -0.5261377265D+00 EUMP2 =    -0.15263623551071D+03
 CCSD(T)
 CCSD(T)= -0.15266335909D+03

 The electronic state is 1-A'.
 Alpha  occ. eigenvalues --  -20.56906 -20.54371  -1.34177  -1.31693  -0.71589
 Alpha  occ. eigenvalues --   -0.69076  -0.57729  -0.55166  -0.51304  -0.48826
 Alpha virt. eigenvalues --    0.12125   0.16197   0.19420   0.23801   0.53241
 Alpha virt. eigenvalues --    0.55615   0.56111   0.58708   0.68863   0.70322
 Alpha virt. eigenvalues --    0.77446   0.79009   0.80033   0.80714   0.83302

 Mulliken charges:
               1
     1  O   -0.519119
     2  H    0.265472
     3  H    0.248615
     4  O   -0.509258
     5  H    0.259882
     6  H    0.254408
 Sum of Mulliken charges =  -0.00000

 Dipole moment (field-independent basis, Debye):
    X=             -2.3853    Y=             -3.1100    Z=              0.0000  Tot=              3.9194
 Quadrupole moment (field-independent basis, Debye-Ang):
   XX=             -9.6899   YY=             -7.7845   ZZ=            -14.7201
   XY=             -3.5800   XZ=              0.0000   YZ=             -0.0000

 Normal termination of Gaussian 16 at Fri Aug 26 15:36:17 2022.
