 Gaussian 16, Revision A.03,
 Gaussian 16:  ES64L-G16RevA.03 25-Dec-2016

 ------------------
 #p CCSD(T)/cc-pVTZ
 ------------------

 ------------
 H2O_H2O_1576
 ------------
 Symbolic Z-matrix:
 Charge =  0 Multiplicity = 1

                         Standard orientation:
 ---------------------------------------------------------------------
 Center     Atomic      Atomic             Coordinates (Angstroms)
 Number     Number       Type             X           Y           Z
 ---------------------------------------------------------------------
      1          8           0        0.090687   -1.718317    0.000000
      2          1           0        0.090570   -0.735715    0.000000
      3          1           0       -0.838768   -2.037094    0.000000
      4          8           0        0.090687    1.579614    0.000000
      5          1           0        0.154836    2.560119    0.000000
      6          1           0       -0.857627    1.322309    0.000000
 ---------------------------------------------------------------------

 SCF Done:  E(RHF) =  -152.109447640     A.U. after   10 cycles
 E2 =    -0.5274224650D+00 EUMP2 =    -0.15263687010545D+03
 CCSD(T)
 CCSD(T)= -0.15266396239D+03

 The electronic state is 1-A'.
 Alpha  occ. eigenvalues --  -20.57767 -20.54373  -1.35110  -1.31723  -0.72784
 Alpha  occ. eigenvalues --   -0.68987  -0.58626  -0.55099  -0.52176  -0.48827
 Alpha virt. eigenvalues --    0.11521   0.16332   0.20316   0.27457   0.50210
 Alpha virt. eigenvalues --    0.54682   0.57596   0.57910   0.68049   0.74211
 Alpha virt. eigenvalues --    0.74481   0.77838   0.80496   0.82135   0.83407

 Mulliken charges:
               1
     1  O   -0.521110
     2  H    0.271604
     3  H    0.240535
     4  O   -0.486560
     5  H    0.251975
     6  H    0.243556
 Sum of Mulliken charges =  -0.00000

 Dipole moment (field-independent basis, Debye):
    X=             -3.0342    Y=              2.6823    Z=              0.0000  Tot=              4.0498
 Quadrupole moment (field-independent basis, Debye-Ang):
   XX=            -10.7487   YY=             -8.9877   ZZ=            -14.7135
   XY=              2.2947   XZ=              0.0000   YZ=              0.0000

 Normal termination of Gaussian 16 at Sat Aug 27 23:25:39 2022.
