 Gaussian 16, Revision A.03,
 Gaussian 16:  ES64L-G16RevA.03 25-Dec-2016

 ------------------
 #p CCSD(T)/cc-pVTZ
 ------------------

 ------------
 H2O_H2O_3119
 ------------
 Symbolic Z-matrix:
 Charge =  0 Multiplicity = 1

                         Standard orientation:
 ---------------------------------------------------------------------
 Center     Atomic      Atomic             Coordinates (Angstroms)
 Number     Number       Type             X           Y           Z
 ---------------------------------------------------------------------
      1          8           0        0.030189    2.346657   -0.000000
      2          1           0        0.027831    1.364059   -0.000000
      3          1           0       -0.898536    2.667553   -0.000000
      4          8           0        0.030189   -2.171050    0.000000
      5          1           0        0.959883   -2.489130    0.000000
      6          1           0       -0.572207   -2.947340    0.000000
 ---------------------------------------------------------------------

 SCF Done:  E(RHF) =  -152.109777409     A.U. after   10 cycles
 E2 =    -0.5258996660D+00 EUMP2 =    -0.15263567707513D+03
 CCSD(T)
 CCSD(T)= -0.15266282464D+03

 The electronic state is 1-A'.
 Alpha  occ. eigenvalues --  -20.56585 -20.54530  -1.33868  -1.31849  -0.71270
 Alpha  occ. eigenvalues --   -0.69250  -0.57410  -0.55339  -0.50997  -0.48986
 Alpha virt. eigenvalues --    0.12520   0.15852   0.19417   0.22550   0.53347
 Alpha virt. eigenvalues --    0.55443   0.56450   0.58319   0.67875   0.69349
 Alpha virt. eigenvalues --    0.77902   0.78884   0.79838   0.79844   0.83173

 Mulliken charges:
               1
     1  O   -0.519369
     2  H    0.263658
     3  H    0.253290
     4  O   -0.515329
     5  H    0.259522
     6  H    0.258228
 Sum of Mulliken charges =  -0.00000

 Dipole moment (field-independent basis, Debye):
    X=             -1.0311    Y=             -3.1517    Z=              0.0000  Tot=              3.3161
 Quadrupole moment (field-independent basis, Debye-Ang):
   XX=             -9.2294   YY=             -7.2833   ZZ=            -14.7195
   XY=             -5.4759   XZ=              0.0000   YZ=             -0.0000

 Normal termination of Gaussian 16 at Fri Aug 26 19:52:24 2022.
