 Gaussian 16, Revision A.03,
 Gaussian 16:  ES64L-G16RevA.03 25-Dec-2016

 ------------------
 #p CCSD(T)/cc-pVTZ
 ------------------

 ------------
 H2O_H2O_4281
 ------------
 Symbolic Z-matrix:
 Charge =  0 Multiplicity = 1

                         Standard orientation:
 ---------------------------------------------------------------------
 Center     Atomic      Atomic             Coordinates (Angstroms)
 Number     Number       Type             X           Y           Z
 ---------------------------------------------------------------------
      1          8           0        0.076750    2.808605    0.000000
      2          1           0        0.076246    1.826004    0.000000
      3          1           0       -0.852580    3.127748   -0.000000
      4          8           0        0.076750   -2.645380    0.000000
      5          1           0        0.452310   -3.553378    0.000000
      6          1           0       -0.903970   -2.706169   -0.000000
 ---------------------------------------------------------------------

 SCF Done:  E(RHF) =  -152.108136257     A.U. after   10 cycles
 E2 =    -0.5258475364D+00 EUMP2 =    -0.15263398379300D+03
 CCSD(T)
 CCSD(T)= -0.15266118524D+03

 The electronic state is 1-A'.
 Alpha  occ. eigenvalues --  -20.56240 -20.55057  -1.33541  -1.32362  -0.70951
 Alpha  occ. eigenvalues --   -0.69759  -0.57020  -0.55825  -0.50656  -0.49481
 Alpha virt. eigenvalues --    0.13017   0.14935   0.19398   0.21290   0.53357
 Alpha virt. eigenvalues --    0.54927   0.56575   0.57797   0.66773   0.68780
 Alpha virt. eigenvalues --    0.78236   0.79300   0.79381   0.80682   0.82565

 Mulliken charges:
               1
     1  O   -0.512001
     2  H    0.259694
     3  H    0.252122
     4  O   -0.513010
     5  H    0.258854
     6  H    0.254341
 Sum of Mulliken charges =  -0.00000

 Dipole moment (field-independent basis, Debye):
    X=             -2.6302    Y=             -2.8708    Z=             -0.0000  Tot=              3.8935
 Quadrupole moment (field-independent basis, Debye-Ang):
   XX=             -9.9486   YY=             -7.3338   ZZ=            -14.7137
   XY=             -3.6567   XZ=             -0.0000   YZ=             -0.0000

 Normal termination of Gaussian 16 at Sun Aug 28 01:27:33 2022.
