 Gaussian 16, Revision A.03,
 Gaussian 16:  ES64L-G16RevA.03 25-Dec-2016

 ------------------
 #p CCSD(T)/cc-pVTZ
 ------------------

 -----------
 H2O_H2O_517
 -----------
 Symbolic Z-matrix:
 Charge =  0 Multiplicity = 1

                         Standard orientation:
 ---------------------------------------------------------------------
 Center     Atomic      Atomic             Coordinates (Angstroms)
 Number     Number       Type             X           Y           Z
 ---------------------------------------------------------------------
      1          8           0        0.037608    1.311335    0.000000
      2          1           0        0.033752    0.328741    0.000000
      3          1           0       -0.890628    1.633646    0.000000
      4          8           0        0.037608   -1.132506   -0.000000
      5          1           0        0.917164   -1.570555   -0.000000
      6          1           0       -0.662013   -1.822461   -0.000000
 ---------------------------------------------------------------------

 SCF Done:  E(RHF) =  -152.100811703     A.U. after   11 cycles
 E2 =    -0.5315479163D+00 EUMP2 =    -0.15263235961973D+03
 CCSD(T)
 CCSD(T)= -0.15265873811D+03

 The electronic state is 1-A'.
 Alpha  occ. eigenvalues --  -20.60174 -20.48775  -1.38631  -1.27258  -0.75382
 Alpha  occ. eigenvalues --   -0.70978  -0.58617  -0.55272  -0.49317  -0.44208
 Alpha virt. eigenvalues --    0.11326   0.17773   0.19714   0.33688   0.47302
 Alpha virt. eigenvalues --    0.53664   0.60128   0.65629   0.69377   0.72268
 Alpha virt. eigenvalues --    0.74010   0.78508   0.80846   0.82985   0.83936

 Mulliken charges:
               1
     1  O   -0.617130
     2  H    0.311247
     3  H    0.230359
     4  O   -0.434810
     5  H    0.262010
     6  H    0.248324
 Sum of Mulliken charges =  -0.00000

 Dipole moment (field-independent basis, Debye):
    X=             -1.2054    Y=             -4.2697    Z=             -0.0000  Tot=              4.4366
 Quadrupole moment (field-independent basis, Debye-Ang):
   XX=             -9.1275   YY=             -9.4160   ZZ=            -14.6753
   XY=             -3.1015   XZ=             -0.0000   YZ=             -0.0000

 Normal termination of Gaussian 16 at Fri Aug 26 18:47:07 2022.
