 Gaussian 16, Revision A.03,
 Gaussian 16:  ES64L-G16RevA.03 25-Dec-2016

 ------------------
 #p CCSD(T)/cc-pVTZ
 ------------------

 ------------
 H2O_H2O_4589
 ------------
 Symbolic Z-matrix:
 Charge =  0 Multiplicity = 1

                         Standard orientation:
 ---------------------------------------------------------------------
 Center     Atomic      Atomic             Coordinates (Angstroms)
 Number     Number       Type             X           Y           Z
 ---------------------------------------------------------------------
      1          8           0        0.048551    2.937612   -0.000000
      2          1           0        0.047229    1.955011   -0.000000
      3          1           0       -0.880512    3.257529   -0.000000
      4          8           0        0.048551   -2.757189    0.000000
      5          1           0        0.827295   -3.356408    0.000000
      6          1           0       -0.770835   -3.299511    0.000000
 ---------------------------------------------------------------------

 SCF Done:  E(RHF) =  -152.108375425     A.U. after   10 cycles
 E2 =    -0.5258083505D+00 EUMP2 =    -0.15263418377541D+03
 CCSD(T)
 CCSD(T)= -0.15266138225D+03

 The electronic state is 1-A'.
 Alpha  occ. eigenvalues --  -20.56170 -20.54961  -1.33471  -1.32268  -0.70876
 Alpha  occ. eigenvalues --   -0.69669  -0.56963  -0.55738  -0.50590  -0.49390
 Alpha virt. eigenvalues --    0.13406   0.14897   0.19711   0.21007   0.53676
 Alpha virt. eigenvalues --    0.54840   0.56675   0.57794   0.66881   0.68707
 Alpha virt. eigenvalues --    0.78296   0.79466   0.79701   0.80197   0.82619

 Mulliken charges:
               1
     1  O   -0.513695
     2  H    0.260289
     3  H    0.253303
     4  O   -0.514431
     5  H    0.258173
     6  H    0.256361
 Sum of Mulliken charges =  -0.00000

 Dipole moment (field-independent basis, Debye):
    X=             -1.6654    Y=             -3.1649    Z=              0.0000  Tot=              3.5763
 Quadrupole moment (field-independent basis, Debye-Ang):
   XX=             -9.1821   YY=             -6.1584   ZZ=            -14.7147
   XY=             -5.6222   XZ=              0.0000   YZ=             -0.0000

 Normal termination of Gaussian 16 at Sun Aug 28 04:10:32 2022.
