 Gaussian 16, Revision A.03,
 Gaussian 16:  ES64L-G16RevA.03 25-Dec-2016

 ------------------
 #p CCSD(T)/cc-pVTZ
 ------------------

 ------------
 H2O_H2O_2973
 ------------
 Symbolic Z-matrix:
 Charge =  0 Multiplicity = 1

                         Standard orientation:
 ---------------------------------------------------------------------
 Center     Atomic      Atomic             Coordinates (Angstroms)
 Number     Number       Type             X           Y           Z
 ---------------------------------------------------------------------
      1          8           0       -0.016634    2.280191    0.000000
      2          1           0       -0.013688    1.297594    0.000000
      3          1           0        0.911900    2.601643    0.000000
      4          8           0       -0.016634   -2.116804    0.000000
      5          1           0       -0.996935   -2.184008    0.000000
      6          1           0        0.364859   -3.022326    0.000000
 ---------------------------------------------------------------------

 SCF Done:  E(RHF) =  -152.109835685     A.U. after   10 cycles
 E2 =    -0.5259278074D+00 EUMP2 =    -0.15263576349209D+03
 CCSD(T)
 CCSD(T)= -0.15266290845D+03

 The electronic state is 1-A'.
 Alpha  occ. eigenvalues --  -20.56638 -20.54615  -1.33924  -1.31935  -0.71332
 Alpha  occ. eigenvalues --   -0.69342  -0.57465  -0.55425  -0.51052  -0.49072
 Alpha virt. eigenvalues --    0.12288   0.15931   0.19261   0.23139   0.53730
 Alpha virt. eigenvalues --    0.55567   0.56403   0.58286   0.68177   0.69373
 Alpha virt. eigenvalues --    0.77828   0.78810   0.79766   0.80556   0.83163

 Mulliken charges:
               1
     1  O   -0.520258
     2  H    0.263012
     3  H    0.254591
     4  O   -0.514861
     5  H    0.258684
     6  H    0.258833
 Sum of Mulliken charges =  -0.00000

 Dipole moment (field-independent basis, Debye):
    X=              0.5712    Y=             -2.9404    Z=              0.0000  Tot=              2.9954
 Quadrupole moment (field-independent basis, Debye-Ang):
   XX=             -9.5430   YY=             -7.8290   ZZ=            -14.7195
   XY=              5.9835   XZ=              0.0000   YZ=              0.0000

 CCSD(T)=-152.6629085\RMSD=6.837e-09\PG=CS [SG(H4O2)]\\@
 Normal termination of Gaussian 16 at Fri Aug 26 18:53:52 2022.
