 Gaussian 16, Revision A.03,
 Gaussian 16:  ES64L-G16RevA.03 25-Dec-2016

 ------------------
 #p CCSD(T)/cc-pVTZ
 ------------------

 ------------
 H2O_H2O_3438
 ------------
 Symbolic Z-matrix:
 Charge =  0 Multiplicity = 1

                         Standard orientation:
 ---------------------------------------------------------------------
 Center     Atomic      Atomic             Coordinates (Angstroms)
 Number     Number       Type             X           Y           Z
 ---------------------------------------------------------------------
      1          8           0        0.052291    2.478619    0.000000
      2          1           0        0.050846    1.496019    0.000000
      3          1           0       -0.876732    2.798652    0.000000
      4          8           0        0.052291   -2.298720   -0.000000
      5          1           0        0.790097   -2.947680   -0.000000
      6          1           0       -0.800871   -2.786185   -0.000000
 ---------------------------------------------------------------------

 SCF Done:  E(RHF) =  -152.109218496     A.U. after   10 cycles
 E2 =    -0.5258723334D+00 EUMP2 =    -0.15263509082948D+03
 CCSD(T)
 CCSD(T)= -0.15266225618D+03

 The electronic state is 1-A'.
 Alpha  occ. eigenvalues --  -20.56467 -20.54635  -1.33755  -1.31950  -0.71158
 Alpha  occ. eigenvalues --   -0.69345  -0.57275  -0.55431  -0.50880  -0.49080
 Alpha virt. eigenvalues --    0.12716   0.15572   0.19546   0.21877   0.53393
 Alpha virt. eigenvalues --    0.55114   0.56457   0.58093   0.67130   0.69342
 Alpha virt. eigenvalues --    0.78025   0.79045   0.79482   0.79757   0.83059

 Mulliken charges:
               1
     1  O   -0.516551
     2  H    0.263044
     3  H    0.252046
     4  O   -0.515162
     5  H    0.259851
     6  H    0.256773
 Sum of Mulliken charges =  -0.00000

 Dipole moment (field-independent basis, Debye):
    X=             -1.7866    Y=             -3.2061    Z=             -0.0000  Tot=              3.6703
 Quadrupole moment (field-independent basis, Debye-Ang):
   XX=             -9.2258   YY=             -6.9236   ZZ=            -14.7177
   XY=             -4.7492   XZ=             -0.0000   YZ=              0.0000

 CCSD(T)=-152.6622562\RMSD=6.998e-09\PG=CS [SG(H4O2)]\\@
 Normal termination of Gaussian 16 at Fri Aug 26 21:42:01 2022.
