 Gaussian 16, Revision A.03,
 Gaussian 16:  ES64L-G16RevA.03 25-Dec-2016

 ------------------
 #p CCSD(T)/cc-pVTZ
 ------------------

 ------------
 H2O_H2O_2127
 ------------
 Symbolic Z-matrix:
 Charge =  0 Multiplicity = 1

                         Standard orientation:
 ---------------------------------------------------------------------
 Center     Atomic      Atomic             Coordinates (Angstroms)
 Number     Number       Type             X           Y           Z
 ---------------------------------------------------------------------
      1          8           0        0.088234   -1.940747    0.000000
      2          1           0        0.088020   -0.958145    0.000000
      3          1           0       -0.841189   -2.259616    0.000000
      4          8           0        0.088234    1.796434    0.000000
      5          1           0        0.216277    2.770657    0.000000
      6          1           0       -0.874859    1.601607    0.000000
 ---------------------------------------------------------------------

 SCF Done:  E(RHF) =  -152.109424671     A.U. after   10 cycles
 E2 =    -0.5265427835D+00 EUMP2 =    -0.15263596745452D+03
 CCSD(T)
 CCSD(T)= -0.15266309226D+03

 The electronic state is 1-A'.
 Alpha  occ. eigenvalues --  -20.57204 -20.54649  -1.34492  -1.31965  -0.71976
 Alpha  occ. eigenvalues --   -0.69310  -0.58010  -0.55402  -0.51596  -0.49083
 Alpha virt. eigenvalues --    0.11601   0.16157   0.19908   0.25120   0.52408
 Alpha virt. eigenvalues --    0.55760   0.56723   0.57574   0.68445   0.73047
 Alpha virt. eigenvalues --    0.76520   0.79129   0.79951   0.81477   0.83222

 Mulliken charges:
               1
     1  O   -0.516340
     2  H    0.265442
     3  H    0.245350
     4  O   -0.501668
     5  H    0.258760
     6  H    0.248455
 Sum of Mulliken charges =  -0.00000

 Dipole moment (field-independent basis, Debye):
    X=             -2.9805    Y=              2.6797    Z=              0.0000  Tot=              4.0080
 Quadrupole moment (field-independent basis, Debye-Ang):
   XX=            -10.5809   YY=             -8.7616   ZZ=            -14.7168
   XY=              2.5109   XZ=              0.0000   YZ=              0.0000

 Normal termination of Gaussian 16 at Sun Aug 28 04:34:26 2022.
