 Gaussian 16, Revision A.03,
 Gaussian 16:  ES64L-G16RevA.03 25-Dec-2016

 ------------------
 #p CCSD(T)/cc-pVTZ
 ------------------

 ------------
 H2O_H2O_4411
 ------------
 Symbolic Z-matrix:
 Charge =  0 Multiplicity = 1

                         Standard orientation:
 ---------------------------------------------------------------------
 Center     Atomic      Atomic             Coordinates (Angstroms)
 Number     Number       Type             X           Y           Z
 ---------------------------------------------------------------------
      1          8           0        0.059620    2.866205   -0.000000
      2          1           0        0.058602    1.883604   -0.000000
      3          1           0       -0.869542    3.185834   -0.000000
      4          8           0        0.059620   -2.688732    0.000000
      5          1           0        0.706728   -3.428161    0.000000
      6          1           0       -0.849708   -3.061061    0.000000
 ---------------------------------------------------------------------

 SCF Done:  E(RHF) =  -152.108359978     A.U. after   10 cycles
 E2 =    -0.5258200729D+00 EUMP2 =    -0.15263418005115D+03
 CCSD(T)
 CCSD(T)= -0.15266137760D+03

 The electronic state is 1-A'.
 Alpha  occ. eigenvalues --  -20.56206 -20.54952  -1.33507  -1.32259  -0.70912
 Alpha  occ. eigenvalues --   -0.69658  -0.56997  -0.55728  -0.50625  -0.49381
 Alpha virt. eigenvalues --    0.13284   0.14948   0.19649   0.21082   0.53594
 Alpha virt. eigenvalues --    0.54866   0.56636   0.57794   0.66799   0.68800
 Alpha virt. eigenvalues --    0.78264   0.79475   0.79532   0.80202   0.82694

 Mulliken charges:
               1
     1  O   -0.513399
     2  H    0.260468
     3  H    0.252770
     4  O   -0.514246
     5  H    0.258613
     6  H    0.255794
 Sum of Mulliken charges =  -0.00000

 Dipole moment (field-independent basis, Debye):
    X=             -2.0440    Y=             -3.1181    Z=              0.0000  Tot=              3.7283
 Quadrupole moment (field-independent basis, Debye-Ang):
   XX=             -9.3618   YY=             -6.4421   ZZ=            -14.7146
   XY=             -4.8557   XZ=              0.0000   YZ=             -0.0000

 Normal termination of Gaussian 16 at Sun Aug 28 02:39:09 2022.
