 Gaussian 16, Revision A.03,
 Gaussian 16:  ES64L-G16RevA.03 25-Dec-2016

 ------------------
 #p CCSD(T)/cc-pVTZ
 ------------------

 ------------
 H2O_H2O_3828
 ------------
 Symbolic Z-matrix:
 Charge =  0 Multiplicity = 1

                         Standard orientation:
 ---------------------------------------------------------------------
 Center     Atomic      Atomic             Coordinates (Angstroms)
 Number     Number       Type             X           Y           Z
 ---------------------------------------------------------------------
      1          8           0        0.085599   -2.621711    0.000000
      2          1           0        0.085354   -1.639109    0.000000
      3          1           0       -0.843815   -2.940609    0.000000
      4          8           0        0.085599    2.472109    0.000000
      5          1           0        0.277055    3.435877    0.000000
      6          1           0       -0.888171    2.340657    0.000000
 ---------------------------------------------------------------------

 SCF Done:  E(RHF) =  -152.108068949     A.U. after   10 cycles
 E2 =    -0.5258965966D+00 EUMP2 =    -0.15263396554603D+03
 CCSD(T)
 CCSD(T)= -0.15266116401D+03

 The electronic state is 1-A'.
 Alpha  occ. eigenvalues --  -20.56354 -20.55105  -1.33653  -1.32410  -0.71069
 Alpha  occ. eigenvalues --   -0.69802  -0.57127  -0.55868  -0.50766  -0.49526
 Alpha virt. eigenvalues --    0.12394   0.15140   0.19135   0.21930   0.53183
 Alpha virt. eigenvalues --    0.55019   0.56483   0.57925   0.66751   0.68929
 Alpha virt. eigenvalues --    0.78134   0.78920   0.79338   0.81111   0.82548

 Mulliken charges:
               1
     1  O   -0.511128
     2  H    0.259392
     3  H    0.251304
     4  O   -0.511916
     5  H    0.259385
     6  H    0.252963
 Sum of Mulliken charges =  -0.00000

 Dipole moment (field-independent basis, Debye):
    X=             -2.9286    Y=              2.6446    Z=              0.0000  Tot=              3.9460
 Quadrupole moment (field-independent basis, Debye-Ang):
   XX=            -10.4004   YY=             -8.2611   ZZ=            -14.7133
   XY=              2.8706   XZ=              0.0000   YZ=              0.0000

 CCSD(T)=-152.661164\RMSD=7.236e-09\PG=CS [SG(H4O2)]\\@
 Normal termination of Gaussian 16 at Fri Aug 26 23:55:04 2022.
