 Gaussian 16, Revision A.03,
 Gaussian 16:  ES64L-G16RevA.03 25-Dec-2016

 ------------------
 #p CCSD(T)/cc-pVTZ
 ------------------

 ------------
 H2O_H2O_1558
 ------------
 Symbolic Z-matrix:
 Charge =  0 Multiplicity = 1

                         Standard orientation:
 ---------------------------------------------------------------------
 Center     Atomic      Atomic             Coordinates (Angstroms)
 Number     Number       Type             X           Y           Z
 ---------------------------------------------------------------------
      1          8           0        0.070226    1.725456    0.000000
      2          1           0        0.069049    0.742855    0.000000
      3          1           0       -0.858884    2.045235    0.000000
      4          8           0        0.070226   -1.555257   -0.000000
      5          1           0        0.560508   -2.406803   -0.000000
      6          1           0       -0.894297   -1.742875   -0.000000
 ---------------------------------------------------------------------

 SCF Done:  E(RHF) =  -152.112461631     A.U. after   10 cycles
 E2 =    -0.5271470685D+00 EUMP2 =    -0.15263960869988D+03
 CCSD(T)
 CCSD(T)= -0.15266663477D+03

 The electronic state is 1-A'.
 Alpha  occ. eigenvalues --  -20.57857 -20.53388  -1.35151  -1.30793  -0.72573
 Alpha  occ. eigenvalues --   -0.68309  -0.58863  -0.54157  -0.52265  -0.47928
 Alpha virt. eigenvalues --    0.11885   0.17001   0.19404   0.28273   0.49777
 Alpha virt. eigenvalues --    0.55180   0.56758   0.58719   0.69575   0.73394
 Alpha virt. eigenvalues --    0.74511   0.76945   0.81183   0.82927   0.84225

 Mulliken charges:
               1
     1  O   -0.532991
     2  H    0.275359
     3  H    0.242568
     4  O   -0.499243
     5  H    0.259996
     6  H    0.254311
 Sum of Mulliken charges =  -0.00000

 Dipole moment (field-independent basis, Debye):
    X=             -2.3538    Y=             -3.3119    Z=             -0.0000  Tot=              4.0631
 Quadrupole moment (field-independent basis, Debye-Ang):
   XX=             -9.7053   YY=             -8.3512   ZZ=            -14.7288
   XY=             -3.2558   XZ=             -0.0000   YZ=              0.0000

 Normal termination of Gaussian 16 at Sat Aug 27 23:08:13 2022.
