 Gaussian 16, Revision A.03,
 Gaussian 16:  ES64L-G16RevA.03 25-Dec-2016

 ------------------
 #p CCSD(T)/cc-pVTZ
 ------------------

 ------------
 H2O_H2O_2198
 ------------
 Symbolic Z-matrix:
 Charge =  0 Multiplicity = 1

                         Standard orientation:
 ---------------------------------------------------------------------
 Center     Atomic      Atomic             Coordinates (Angstroms)
 Number     Number       Type             X           Y           Z
 ---------------------------------------------------------------------
      1          8           0       -0.016674    1.971054    0.000000
      2          1           0       -0.013246    0.988459    0.000000
      3          1           0        0.911702    2.292961    0.000000
      4          8           0       -0.016674   -1.807684    0.000000
      5          1           0       -0.996942   -1.875369    0.000000
      6          1           0        0.365263   -2.713018    0.000000
 ---------------------------------------------------------------------

 SCF Done:  E(RHF) =  -152.111442950     A.U. after   10 cycles
 E2 =    -0.5262422185D+00 EUMP2 =    -0.15263768516841D+03
 CCSD(T)
 CCSD(T)= -0.15266477618D+03

 The electronic state is 1-A'.
 Alpha  occ. eigenvalues --  -20.57127 -20.54146  -1.34401  -1.31487  -0.71820
 Alpha  occ. eigenvalues --   -0.68904  -0.58031  -0.54964  -0.51532  -0.48638
 Alpha virt. eigenvalues --    0.12199   0.16693   0.19247   0.25474   0.53369
 Alpha virt. eigenvalues --    0.54891   0.56070   0.58770   0.68733   0.72261
 Alpha virt. eigenvalues --    0.76758   0.78978   0.80291   0.82768   0.83549

 Mulliken charges:
               1
     1  O   -0.527896
     2  H    0.266068
     3  H    0.254104
     4  O   -0.510647
     5  H    0.260190
     6  H    0.258181
 Sum of Mulliken charges =  -0.00000

 Dipole moment (field-independent basis, Debye):
    X=              0.5722    Y=             -3.0324    Z=              0.0000  Tot=              3.0859
 Quadrupole moment (field-independent basis, Debye-Ang):
   XX=             -9.5445   YY=             -8.1530   ZZ=            -14.7249
   XY=              5.1697   XZ=              0.0000   YZ=              0.0000

 Normal termination of Gaussian 16 at Sun Aug 28 05:22:19 2022.
