 Gaussian 16, Revision A.03,
 Gaussian 16:  ES64L-G16RevA.03 25-Dec-2016

 ------------------
 #p CCSD(T)/cc-pVTZ
 ------------------

 ------------
 H2O_H2O_3136
 ------------
 Symbolic Z-matrix:
 Charge =  0 Multiplicity = 1

                         Standard orientation:
 ---------------------------------------------------------------------
 Center     Atomic      Atomic             Coordinates (Angstroms)
 Number     Number       Type             X           Y           Z
 ---------------------------------------------------------------------
      1          8           0        0.059641    2.357623    0.000000
      2          1           0        0.058394    1.375022    0.000000
      3          1           0       -0.869448    2.677468    0.000000
      4          8           0        0.059641   -2.180178   -0.000000
      5          1           0        0.706577   -2.919758   -0.000000
      6          1           0       -0.849774   -2.552296   -0.000000
 ---------------------------------------------------------------------

 SCF Done:  E(RHF) =  -152.109475200     A.U. after   10 cycles
 E2 =    -0.5259314098D+00 EUMP2 =    -0.15263540661001D+03
 CCSD(T)
 CCSD(T)= -0.15266255951D+03

 The electronic state is 1-A'.
 Alpha  occ. eigenvalues --  -20.56592 -20.54547  -1.33874  -1.31864  -0.71278
 Alpha  occ. eigenvalues --   -0.69255  -0.57402  -0.55345  -0.51000  -0.48995
 Alpha virt. eigenvalues --    0.12495   0.15786   0.19477   0.22369   0.53332
 Alpha virt. eigenvalues --    0.55288   0.56348   0.58421   0.67802   0.69344
 Alpha virt. eigenvalues --    0.77903   0.78950   0.79585   0.79839   0.83134

 Mulliken charges:
               1
     1  O   -0.517141
     2  H    0.263732
     3  H    0.251043
     4  O   -0.513835
     5  H    0.260142
     6  H    0.256059
 Sum of Mulliken charges =  -0.00000

 Dipole moment (field-independent basis, Debye):
    X=             -2.0345    Y=             -3.1842    Z=             -0.0000  Tot=              3.7787
 Quadrupole moment (field-independent basis, Debye-Ang):
   XX=             -9.3645   YY=             -7.2091   ZZ=            -14.7185
   XY=             -4.2669   XZ=             -0.0000   YZ=             -0.0000

 CCSD(T)=-152.6625595\RMSD=6.944e-09\PG=CS [SG(H4O2)]\\@
 Normal termination of Gaussian 16 at Fri Aug 26 19:58:15 2022.
