 Gaussian 16, Revision A.03,
 Gaussian 16:  ES64L-G16RevA.03 25-Dec-2016

 ------------------
 #p CCSD(T)/cc-pVTZ
 ------------------

 ------------
 H2O_H2O_1669
 ------------
 Symbolic Z-matrix:
 Charge =  0 Multiplicity = 1

                         Standard orientation:
 ---------------------------------------------------------------------
 Center     Atomic      Atomic             Coordinates (Angstroms)
 Number     Number       Type             X           Y           Z
 ---------------------------------------------------------------------
      1          8           0        0.030262    1.768262   -0.000000
      2          1           0        0.027092    0.785666   -0.000000
      3          1           0       -0.898198    2.089926   -0.000000
      4          8           0        0.030262   -1.592705    0.000000
      5          1           0        0.959693   -1.911551    0.000000
      6          1           0       -0.572775   -2.368497    0.000000
 ---------------------------------------------------------------------

 SCF Done:  E(RHF) =  -152.113427255     A.U. after   10 cycles
 E2 =    -0.5267912775D+00 EUMP2 =    -0.15264021853292D+03
 CCSD(T)
 CCSD(T)= -0.15266724319D+03

 The electronic state is 1-A'.
 Alpha  occ. eigenvalues --  -20.57703 -20.53287  -1.34976  -1.30693  -0.72357
 Alpha  occ. eigenvalues --   -0.68221  -0.58769  -0.54092  -0.52111  -0.47850
 Alpha virt. eigenvalues --    0.12179   0.17460   0.19024   0.28023   0.51059
 Alpha virt. eigenvalues --    0.54335   0.56081   0.59666   0.68997   0.72742
 Alpha virt. eigenvalues --    0.74978   0.77240   0.81180   0.83177   0.84550

 Mulliken charges:
               1
     1  O   -0.538627
     2  H    0.273122
     3  H    0.250274
     4  O   -0.507239
     5  H    0.263762
     6  H    0.258707
 Sum of Mulliken charges =  -0.00000

 Dipole moment (field-independent basis, Debye):
    X=             -1.0214    Y=             -3.3876    Z=              0.0000  Tot=              3.5383
 Quadrupole moment (field-independent basis, Debye-Ang):
   XX=             -9.2307   YY=             -8.1962   ZZ=            -14.7333
   XY=             -4.2138   XZ=              0.0000   YZ=             -0.0000

 Normal termination of Gaussian 16 at Sun Aug 28 00:27:46 2022.
