 Gaussian 16, Revision A.03,
 Gaussian 16:  ES64L-G16RevA.03 25-Dec-2016

 ------------------
 #p CCSD(T)/cc-pVTZ
 ------------------

 -----------
 H2O_H2O_387
 -----------
 Symbolic Z-matrix:
 Charge =  0 Multiplicity = 1

                         Standard orientation:
 ---------------------------------------------------------------------
 Center     Atomic      Atomic             Coordinates (Angstroms)
 Number     Number       Type             X           Y           Z
 ---------------------------------------------------------------------
      1          8           0        0.056107    1.261434    0.000000
      2          1           0        0.053431    0.278836    0.000000
      3          1           0       -0.872514    1.582631    0.000000
      4          8           0        0.056107   -1.082673   -0.000000
      5          1           0        0.749016   -1.779367   -0.000000
      6          1           0       -0.827649   -1.512187   -0.000000
 ---------------------------------------------------------------------

 SCF Done:  E(RHF) =  -152.091446683     A.U. after   11 cycles
 E2 =    -0.5328520505D+00 EUMP2 =    -0.15262429873376D+03
 CCSD(T)
 CCSD(T)= -0.15265047997D+03

 The electronic state is 1-A'.
 Alpha  occ. eigenvalues --  -20.60674 -20.47859  -1.39666  -1.26675  -0.76126
 Alpha  occ. eigenvalues --   -0.72660  -0.57626  -0.56030  -0.48397  -0.43530
 Alpha virt. eigenvalues --    0.11014   0.17112   0.20283   0.33385   0.47615
 Alpha virt. eigenvalues --    0.53160   0.62010   0.63271   0.71276   0.72094
 Alpha virt. eigenvalues --    0.75758   0.79359   0.80426   0.82643   0.83970

 Mulliken charges:
               1
     1  O   -0.623216
     2  H    0.310195
     3  H    0.218173
     4  O   -0.405313
     5  H    0.253009
     6  H    0.247153
 Sum of Mulliken charges =  -0.00000

 Dipole moment (field-independent basis, Debye):
    X=             -1.7677    Y=             -4.4438    Z=             -0.0000  Tot=              4.7824
 Quadrupole moment (field-independent basis, Debye-Ang):
   XX=             -9.2682   YY=             -9.6103   ZZ=            -14.6484
   XY=             -2.9106   XZ=             -0.0000   YZ=              0.0000

 Normal termination of Gaussian 16 at Fri Aug 26 17:52:36 2022.
