 Gaussian 16, Revision A.03,
 Gaussian 16:  ES64L-G16RevA.03 25-Dec-2016

 ------------------
 #p CCSD(T)/cc-pVTZ
 ------------------

 -----------
 H2O_H2O_702
 -----------
 Symbolic Z-matrix:
 Charge =  0 Multiplicity = 1

                         Standard orientation:
 ---------------------------------------------------------------------
 Center     Atomic      Atomic             Coordinates (Angstroms)
 Number     Number       Type             X           Y           Z
 ---------------------------------------------------------------------
      1          8           0        0.088241   -1.372338    0.000000
      2          1           0        0.087933   -0.389737    0.000000
      3          1           0       -0.841152   -1.691296    0.000000
      4          8           0        0.088241    1.228042    0.000000
      5          1           0        0.216191    2.202277    0.000000
      6          1           0       -0.874834    1.033122    0.000000
 ---------------------------------------------------------------------

 SCF Done:  E(RHF) =  -152.101156877     A.U. after   10 cycles
 E2 =    -0.5313788328D+00 EUMP2 =    -0.15263253571012D+03
 CCSD(T)
 CCSD(T)= -0.15265926409D+03

 The electronic state is 1-A'.
 Alpha  occ. eigenvalues --  -20.59437 -20.52008  -1.37593  -1.29831  -0.76119
 Alpha  occ. eigenvalues --   -0.68075  -0.59730  -0.54243  -0.52721  -0.46843
 Alpha virt. eigenvalues --    0.11343   0.16506   0.20657   0.32075   0.48305
 Alpha virt. eigenvalues --    0.52669   0.58731   0.63083   0.69401   0.71537
 Alpha virt. eigenvalues --    0.74042   0.78240   0.78997   0.83023   0.83103

 Mulliken charges:
               1
     1  O   -0.556471
     2  H    0.290233
     3  H    0.222680
     4  O   -0.420880
     5  H    0.233395
     6  H    0.231042
 Sum of Mulliken charges =   0.00000

 Dipole moment (field-independent basis, Debye):
    X=             -2.8644    Y=              3.2724    Z=              0.0000  Tot=              4.3489
 Quadrupole moment (field-independent basis, Debye-Ang):
   XX=            -10.5980   YY=             -9.2258   ZZ=            -14.6679
   XY=              2.3348   XZ=              0.0000   YZ=              0.0000

 Normal termination of Gaussian 16 at Fri Aug 26 19:56:57 2022.
