 Gaussian 16, Revision A.03,
 Gaussian 16:  ES64L-G16RevA.03 25-Dec-2016

 ------------------
 #p CCSD(T)/cc-pVTZ
 ------------------

 ------------
 H2O_H2O_1245
 ------------
 Symbolic Z-matrix:
 Charge =  0 Multiplicity = 1

                         Standard orientation:
 ---------------------------------------------------------------------
 Center     Atomic      Atomic             Coordinates (Angstroms)
 Number     Number       Type             X           Y           Z
 ---------------------------------------------------------------------
      1          8           0        0.026766    1.597439    0.000000
      2          1           0        0.023042    0.614845    0.000000
      3          1           0       -0.901513    1.919626   -0.000000
      4          8           0        0.026766   -1.424281    0.000000
      5          1           0        0.974916   -1.682192    0.000000
      6          1           0       -0.524699   -2.237541   -0.000000
 ---------------------------------------------------------------------

 SCF Done:  E(RHF) =  -152.113958155     A.U. after   10 cycles
 E2 =    -0.5277230451D+00 EUMP2 =    -0.15264168120037D+03
 CCSD(T)
 CCSD(T)= -0.15266862135D+03

 The electronic state is 1-A'.
 Alpha  occ. eigenvalues --  -20.58316 -20.52462  -1.35697  -1.30001  -0.73079
 Alpha  occ. eigenvalues --   -0.67929  -0.59502  -0.53205  -0.52795  -0.47145
 Alpha virt. eigenvalues --    0.12056   0.18071   0.18812   0.30576   0.49601
 Alpha virt. eigenvalues --    0.54534   0.55836   0.61514   0.68597   0.72929
 Alpha virt. eigenvalues --    0.73317   0.77058   0.81983   0.82584   0.84567

 Mulliken charges:
               1
     1  O   -0.556045
     2  H    0.284558
     3  H    0.248639
     4  O   -0.495659
     5  H    0.264983
     6  H    0.253524
 Sum of Mulliken charges =  -0.00000

 Dipole moment (field-independent basis, Debye):
    X=             -0.8971    Y=             -3.5093    Z=             -0.0000  Tot=              3.6222
 Quadrupole moment (field-independent basis, Debye-Ang):
   XX=             -9.2847   YY=             -8.5636   ZZ=            -14.7313
   XY=             -3.9057   XZ=              0.0000   YZ=             -0.0000

 Normal termination of Gaussian 16 at Fri Aug 26 23:21:29 2022.
