 Gaussian 16, Revision A.03,
 Gaussian 16:  ES64L-G16RevA.03 25-Dec-2016

 ------------------
 #p CCSD(T)/cc-pVTZ
 ------------------

 ------------
 H2O_H2O_2019
 ------------
 Symbolic Z-matrix:
 Charge =  0 Multiplicity = 1

                         Standard orientation:
 ---------------------------------------------------------------------
 Center     Atomic      Atomic             Coordinates (Angstroms)
 Number     Number       Type             X           Y           Z
 ---------------------------------------------------------------------
      1          8           0        0.030240    1.907876    0.000000
      2          1           0        0.027313    0.925279    0.000000
      3          1           0       -0.898300    2.229310    0.000000
      4          8           0        0.030240   -1.732304   -0.000000
      5          1           0        0.959751   -2.050921   -0.000000
      6          1           0       -0.572604   -2.508244   -0.000000
 ---------------------------------------------------------------------

 SCF Done:  E(RHF) =  -152.112337200     A.U. after   10 cycles
 E2 =    -0.5263762580D+00 EUMP2 =    -0.15263871345753D+03
 CCSD(T)
 CCSD(T)= -0.15266577851D+03

 The electronic state is 1-A'.
 Alpha  occ. eigenvalues --  -20.57322 -20.53747  -1.34579  -1.31108  -0.71970
 Alpha  occ. eigenvalues --   -0.68543  -0.58273  -0.54570  -0.51718  -0.48263
 Alpha virt. eigenvalues --    0.12250   0.17007   0.19157   0.26199   0.52169
 Alpha virt. eigenvalues --    0.54808   0.56310   0.58921   0.69050   0.72471
 Alpha virt. eigenvalues --    0.76279   0.77934   0.80670   0.83456   0.84236

 Mulliken charges:
               1
     1  O   -0.530870
     2  H    0.268686
     3  H    0.251416
     4  O   -0.509299
     5  H    0.261819
     6  H    0.258248
 Sum of Mulliken charges =  -0.00000

 Dipole moment (field-independent basis, Debye):
    X=             -1.0253    Y=             -3.2995    Z=             -0.0000  Tot=              3.4551
 Quadrupole moment (field-independent basis, Debye-Ang):
   XX=             -9.2307   YY=             -7.9519   ZZ=            -14.7288
   XY=             -4.5211   XZ=             -0.0000   YZ=              0.0000

 Normal termination of Gaussian 16 at Sun Aug 28 03:39:58 2022.
