 Gaussian 16, Revision A.03,
 Gaussian 16:  ES64L-G16RevA.03 25-Dec-2016

 ------------------
 #p CCSD(T)/cc-pVTZ
 ------------------

 ------------
 H2O_H2O_1566
 ------------
 Symbolic Z-matrix:
 Charge =  0 Multiplicity = 1

                         Standard orientation:
 ---------------------------------------------------------------------
 Center     Atomic      Atomic             Coordinates (Angstroms)
 Number     Number       Type             X           Y           Z
 ---------------------------------------------------------------------
      1          8           0        0.041208    1.730711    0.000000
      2          1           0        0.038528    0.748113    0.000000
      3          1           0       -0.887412    2.051912    0.000000
      4          8           0        0.041208   -1.550848   -0.000000
      5          1           0        0.890823   -2.044469   -0.000000
      6          1           0       -0.701270   -2.194458   -0.000000
 ---------------------------------------------------------------------

 SCF Done:  E(RHF) =  -152.113801911     A.U. after   10 cycles
 E2 =    -0.5269906080D+00 EUMP2 =    -0.15264079251944D+03
 CCSD(T)
 CCSD(T)= -0.15266779970D+03

 The electronic state is 1-A'.
 Alpha  occ. eigenvalues --  -20.57860 -20.53032  -1.35135  -1.30462  -0.72483
 Alpha  occ. eigenvalues --   -0.68065  -0.58952  -0.53828  -0.52270  -0.47616
 Alpha virt. eigenvalues --    0.12115   0.17584   0.18965   0.28653   0.50343
 Alpha virt. eigenvalues --    0.54489   0.56124   0.59646   0.68949   0.72130
 Alpha virt. eigenvalues --    0.74585   0.76907   0.81415   0.83101   0.84777

 Mulliken charges:
               1
     1  O   -0.540802
     2  H    0.276261
     3  H    0.247490
     4  O   -0.506986
     5  H    0.264909
     6  H    0.259127
 Sum of Mulliken charges =  -0.00000

 Dipole moment (field-independent basis, Debye):
    X=             -1.3842    Y=             -3.5050    Z=             -0.0000  Tot=              3.7685
 Quadrupole moment (field-independent basis, Debye-Ang):
   XX=             -9.1521   YY=             -8.2180   ZZ=            -14.7350
   XY=             -3.8990   XZ=             -0.0000   YZ=             -0.0000

 Normal termination of Gaussian 16 at Sat Aug 27 23:21:20 2022.
