 Gaussian 16, Revision A.03,
 Gaussian 16:  ES64L-G16RevA.03 25-Dec-2016

 ------------------
 #p CCSD(T)/cc-pVTZ
 ------------------

 ------------
 H2O_H2O_1417
 ------------
 Symbolic Z-matrix:
 Charge =  0 Multiplicity = 1

                         Standard orientation:
 ---------------------------------------------------------------------
 Center     Atomic      Atomic             Coordinates (Angstroms)
 Number     Number       Type             X           Y           Z
 ---------------------------------------------------------------------
      1          8           0        0.037528    1.670356    0.000000
      2          1           0        0.034548    0.687759    0.000000
      3          1           0       -0.890994    1.991839    0.000000
      4          8           0        0.037528   -1.491460   -0.000000
      5          1           0        0.917475   -1.928724   -0.000000
      6          1           0       -0.661477   -2.182039   -0.000000
 ---------------------------------------------------------------------

 SCF Done:  E(RHF) =  -152.114139571     A.U. after   10 cycles
 E2 =    -0.5272882071D+00 EUMP2 =    -0.15264142777778D+03
 CCSD(T)
 CCSD(T)= -0.15266840732D+03

 The electronic state is 1-A'.
 Alpha  occ. eigenvalues --  -20.58069 -20.52747  -1.35374  -1.30220  -0.72708
 Alpha  occ. eigenvalues --   -0.67962  -0.59209  -0.53525  -0.52500  -0.47371
 Alpha virt. eigenvalues --    0.12079   0.17818   0.18879   0.29553   0.49940
 Alpha virt. eigenvalues --    0.54446   0.55958   0.60220   0.68799   0.72108
 Alpha virt. eigenvalues --    0.73980   0.76985   0.81698   0.82941   0.84827

 Mulliken charges:
               1
     1  O   -0.546839
     2  H    0.280250
     3  H    0.247208
     4  O   -0.505130
     5  H    0.265618
     6  H    0.258892
 Sum of Mulliken charges =  -0.00000

 Dipole moment (field-independent basis, Debye):
    X=             -1.2573    Y=             -3.5433    Z=             -0.0000  Tot=              3.7598
 Quadrupole moment (field-independent basis, Debye-Ang):
   XX=             -9.1598   YY=             -8.3582   ZZ=            -14.7353
   XY=             -3.8525   XZ=             -0.0000   YZ=              0.0000

 Normal termination of Gaussian 16 at Sat Aug 27 00:27:24 2022.
