 Gaussian 16, Revision A.03,
 Gaussian 16:  ES64L-G16RevA.03 25-Dec-2016

 ------------------
 #p CCSD(T)/cc-pVTZ
 ------------------

 ------------
 H2O_H2O_2320
 ------------
 Symbolic Z-matrix:
 Charge =  0 Multiplicity = 1

                         Standard orientation:
 ---------------------------------------------------------------------
 Center     Atomic      Atomic             Coordinates (Angstroms)
 Number     Number       Type             X           Y           Z
 ---------------------------------------------------------------------
      1          8           0        0.026693    2.026252    0.000000
      2          1           0        0.023793    1.043655    0.000000
      3          1           0       -0.901855    2.347661   -0.000000
      4          8           0        0.026693   -1.853049    0.000000
      5          1           0        0.975059   -2.110166    0.000000
      6          1           0       -0.524091   -2.666772   -0.000000
 ---------------------------------------------------------------------

 SCF Done:  E(RHF) =  -152.111407369     A.U. after   10 cycles
 E2 =    -0.5261632979D+00 EUMP2 =    -0.15263757066728D+03
 CCSD(T)
 CCSD(T)= -0.15266466405D+03

 The electronic state is 1-A'.
 Alpha  occ. eigenvalues --  -20.57055 -20.54073  -1.34319  -1.31412  -0.71718
 Alpha  occ. eigenvalues --   -0.68824  -0.57944  -0.54897  -0.51456  -0.48562
 Alpha virt. eigenvalues --    0.12284   0.16637   0.19243   0.24912   0.52995
 Alpha virt. eigenvalues --    0.55292   0.56357   0.58685   0.68957   0.71540
 Alpha virt. eigenvalues --    0.77056   0.78693   0.80313   0.82353   0.83633

 Mulliken charges:
               1
     1  O   -0.526654
     2  H    0.266702
     3  H    0.252597
     4  O   -0.511082
     5  H    0.260618
     6  H    0.257818
 Sum of Mulliken charges =  -0.00000

 Dipole moment (field-independent basis, Debye):
    X=             -0.9085    Y=             -3.1996    Z=             -0.0000  Tot=              3.3260
 Quadrupole moment (field-independent basis, Debye-Ang):
   XX=             -9.2888   YY=             -7.8219   ZZ=            -14.7249
   XY=             -4.9033   XZ=              0.0000   YZ=             -0.0000

 Normal termination of Gaussian 16 at Sun Aug 28 06:17:39 2022.
