 Gaussian 16, Revision A.03,
 Gaussian 16:  ES64L-G16RevA.03 25-Dec-2016

 ------------------
 #p CCSD(T)/cc-pVTZ
 ------------------

 -----------
 H2O_H2O_495
 -----------
 Symbolic Z-matrix:
 Charge =  0 Multiplicity = 1

                         Standard orientation:
 ---------------------------------------------------------------------
 Center     Atomic      Atomic             Coordinates (Angstroms)
 Number     Number       Type             X           Y           Z
 ---------------------------------------------------------------------
      1          8           0        0.026847    1.298259   -0.000000
      2          1           0        0.022204    0.315668   -0.000000
      3          1           0       -0.901130    1.621314   -0.000000
      4          8           0        0.026847   -1.125151    0.000000
      5          1           0        0.974755   -1.383949    0.000000
      6          1           0       -0.525378   -1.937895    0.000000
 ---------------------------------------------------------------------

 SCF Done:  E(RHF) =  -152.098598162     A.U. after   11 cycles
 E2 =    -0.5318250896D+00 EUMP2 =    -0.15263042325141D+03
 CCSD(T)
 CCSD(T)= -0.15265677376D+03

 The electronic state is 1-A'.
 Alpha  occ. eigenvalues --  -20.60190 -20.48796  -1.38798  -1.27304  -0.76063
 Alpha  occ. eigenvalues --   -0.70465  -0.58791  -0.55352  -0.49289  -0.44258
 Alpha virt. eigenvalues --    0.11377   0.17876   0.19678   0.33882   0.47409
 Alpha virt. eigenvalues --    0.53540   0.59264   0.68005   0.69050   0.72213
 Alpha virt. eigenvalues --    0.74358   0.77687   0.79838   0.83841   0.83869

 Mulliken charges:
               1
     1  O   -0.620395
     2  H    0.303903
     3  H    0.234683
     4  O   -0.420346
     5  H    0.261266
     6  H    0.240889
 Sum of Mulliken charges =  -0.00000

 Dipole moment (field-independent basis, Debye):
    X=             -0.8643    Y=             -4.1775    Z=              0.0000  Tot=              4.2660
 Quadrupole moment (field-independent basis, Debye-Ang):
   XX=             -9.2443   YY=             -9.4235   ZZ=            -14.6665
   XY=             -3.1718   XZ=              0.0000   YZ=             -0.0000

 Normal termination of Gaussian 16 at Fri Aug 26 18:38:43 2022.
