 Gaussian 16, Revision A.03,
 Gaussian 16:  ES64L-G16RevA.03 25-Dec-2016

 ------------------
 #p CCSD(T)/cc-pVTZ
 ------------------

 -----------
 H2O_H2O_181
 -----------
 Symbolic Z-matrix:
 Charge =  0 Multiplicity = 1

                         Standard orientation:
 ---------------------------------------------------------------------
 Center     Atomic      Atomic             Coordinates (Angstroms)
 Number     Number       Type             X           Y           Z
 ---------------------------------------------------------------------
      1          8           0        0.076812   -1.173149    0.000000
      2          1           0        0.075554   -0.190549    0.000000
      3          1           0       -0.852272   -1.493006    0.000000
      4          8           0        0.076812    1.010043    0.000000
      5          1           0        0.451675    1.918330    0.000000
      6          1           0       -0.903954    1.070078    0.000000
 ---------------------------------------------------------------------

 SCF Done:  E(RHF) =  -152.061240174     A.U. after   11 cycles
 E2 =    -0.5360720126D+00 EUMP2 =    -0.15259731218696D+03
 CCSD(T)
 CCSD(T)= -0.15262312400D+03

 The electronic state is 1-A'.
 Alpha  occ. eigenvalues --  -20.61405 -20.46916  -1.42110  -1.26231  -0.80313
 Alpha  occ. eigenvalues --   -0.72635  -0.57414  -0.56415  -0.47447  -0.42970
 Alpha virt. eigenvalues --    0.10646   0.16186   0.21202   0.32401   0.49149
 Alpha virt. eigenvalues --    0.51938   0.60009   0.64737   0.71439   0.72312
 Alpha virt. eigenvalues --    0.77104   0.78256   0.80766   0.85087   0.85447

 Mulliken charges:
               1
     1  O   -0.622218
     2  H    0.283603
     3  H    0.199855
     4  O   -0.331846
     5  H    0.232001
     6  H    0.238606
 Sum of Mulliken charges =  -0.00000

 Dipole moment (field-independent basis, Debye):
    X=             -2.3739    Y=              4.4141    Z=              0.0000  Tot=              5.0120
 Quadrupole moment (field-independent basis, Debye-Ang):
   XX=             -9.9314   YY=             -9.8334   ZZ=            -14.5730
   XY=              2.5502   XZ=              0.0000   YZ=              0.0000

 Normal termination of Gaussian 16 at Fri Aug 26 16:25:33 2022.
