 Gaussian 16, Revision A.03,
 Gaussian 16:  ES64L-G16RevA.03 25-Dec-2016

 ------------------
 #p CCSD(T)/cc-pVTZ
 ------------------

 -----------
 H2O_H2O_993
 -----------
 Symbolic Z-matrix:
 Charge =  0 Multiplicity = 1

                         Standard orientation:
 ---------------------------------------------------------------------
 Center     Atomic      Atomic             Coordinates (Angstroms)
 Number     Number       Type             X           Y           Z
 ---------------------------------------------------------------------
      1          8           0        0.033911    1.500040   -0.000000
      2          1           0        0.030353    0.517445   -0.000000
      3          1           0       -0.894422    1.822070   -0.000000
      4          8           0        0.033911   -1.322610    0.000000
      5          1           0        0.940349   -1.701919    0.000000
      6          1           0       -0.618864   -2.057042    0.000000
 ---------------------------------------------------------------------

 SCF Done:  E(RHF) =  -152.113262579     A.U. after   10 cycles
 E2 =    -0.5286411431D+00 EUMP2 =    -0.15264190372187D+03
 CCSD(T)
 CCSD(T)= -0.15266873520D+03

 The electronic state is 1-A'.
 Alpha  occ. eigenvalues --  -20.58839 -20.51522  -1.36368  -1.29237  -0.73620
 Alpha  occ. eigenvalues --   -0.68080  -0.59788  -0.53413  -0.52212  -0.46351
 Alpha virt. eigenvalues --    0.11879   0.18437   0.18661   0.32088   0.48588
 Alpha virt. eigenvalues --    0.54656   0.56465   0.62435   0.68479   0.72229
 Alpha virt. eigenvalues --    0.72709   0.77461   0.82120   0.82769   0.84641

 Mulliken charges:
               1
     1  O   -0.572095
     2  H    0.296750
     3  H    0.243511
     4  O   -0.488175
     5  H    0.265618
     6  H    0.254392
 Sum of Mulliken charges =  -0.00000

 Dipole moment (field-independent basis, Debye):
    X=             -1.1220    Y=             -3.7521    Z=              0.0000  Tot=              3.9162
 Quadrupole moment (field-independent basis, Debye-Ang):
   XX=             -9.1771   YY=             -8.7873   ZZ=            -14.7244
   XY=             -3.5565   XZ=              0.0000   YZ=              0.0000

 Normal termination of Gaussian 16 at Fri Aug 26 21:47:22 2022.
