 Gaussian 16, Revision A.03,
 Gaussian 16:  ES64L-G16RevA.03 25-Dec-2016

 ------------------
 #p CCSD(T)/cc-pVTZ
 ------------------

 -----------
 H2O_H2O_152
 -----------
 Symbolic Z-matrix:
 Charge =  0 Multiplicity = 1

                         Standard orientation:
 ---------------------------------------------------------------------
 Center     Atomic      Atomic             Coordinates (Angstroms)
 Number     Number       Type             X           Y           Z
 ---------------------------------------------------------------------
      1          8           0        0.088246   -1.152950    0.000000
      2          1           0        0.087875   -0.170349    0.000000
      3          1           0       -0.841127   -1.471967    0.000000
      4          8           0        0.088246    1.008665    0.000000
      5          1           0        0.216133    1.982908    0.000000
      6          1           0       -0.874816    0.813685    0.000000
 ---------------------------------------------------------------------

 SCF Done:  E(RHF) =  -152.047491827     A.U. after   11 cycles
 E2 =    -0.5376719940D+00 EUMP2 =    -0.15258516382128D+03
 CCSD(T)
 CCSD(T)= -0.15261093284D+03

 The electronic state is 1-A'.
 Alpha  occ. eigenvalues --  -20.61342 -20.47790  -1.42871  -1.26949  -0.82283
 Alpha  occ. eigenvalues --   -0.70652  -0.57520  -0.56983  -0.48462  -0.43757
 Alpha virt. eigenvalues --    0.10738   0.15957   0.21599   0.31898   0.49379
 Alpha virt. eigenvalues --    0.50998   0.59854   0.66357   0.71249   0.72675
 Alpha virt. eigenvalues --    0.75500   0.78079   0.79899   0.84653   0.86045

 Mulliken charges:
               1
     1  O   -0.600550
     2  H    0.265645
     3  H    0.192897
     4  O   -0.321146
     5  H    0.227031
     6  H    0.236122
 Sum of Mulliken charges =  -0.00000

 Dipole moment (field-independent basis, Debye):
    X=             -2.7466    Y=              4.0316    Z=              0.0000  Tot=              4.8783
 Quadrupole moment (field-independent basis, Debye-Ang):
   XX=            -10.5208   YY=             -9.8516   ZZ=            -14.5420
   XY=              2.1718   XZ=              0.0000   YZ=              0.0000

 Normal termination of Gaussian 16 at Fri Aug 26 16:13:29 2022.
