 Gaussian 16, Revision A.03,
 Gaussian 16:  ES64L-G16RevA.03 25-Dec-2016

 ------------------
 #p CCSD(T)/cc-pVTZ
 ------------------

 -----------
 H2O_H2O_190
 -----------
 Symbolic Z-matrix:
 Charge =  0 Multiplicity = 1

                         Standard orientation:
 ---------------------------------------------------------------------
 Center     Atomic      Atomic             Coordinates (Angstroms)
 Number     Number       Type             X           Y           Z
 ---------------------------------------------------------------------
      1          8           0        0.045035    1.182458   -0.000000
      2          1           0        0.041299    0.199863   -0.000000
      3          1           0       -0.883239    1.504656   -0.000000
      4          8           0        0.045035   -1.002235    0.000000
      5          1           0        0.859958   -1.551241    0.000000
      6          1           0       -0.738585   -1.595062    0.000000
 ---------------------------------------------------------------------

 SCF Done:  E(RHF) =  -152.067418121     A.U. after   11 cycles
 E2 =    -0.5344980625D+00 EUMP2 =    -0.15260191618369D+03
 CCSD(T)
 CCSD(T)= -0.15262771766D+03

 The electronic state is 1-A'.
 Alpha  occ. eigenvalues --  -20.61510 -20.45541  -1.41864  -1.25229  -0.77253
 Alpha  occ. eigenvalues --   -0.76282  -0.57518  -0.55876  -0.45895  -0.41877
 Alpha virt. eigenvalues --    0.10636   0.16842   0.20764   0.33336   0.46908
 Alpha virt. eigenvalues --    0.52480   0.62735   0.65352   0.70530   0.71442
 Alpha virt. eigenvalues --    0.78793   0.80098   0.80563   0.82121   0.85270

 Mulliken charges:
               1
     1  O   -0.655735
     2  H    0.301038
     3  H    0.211289
     4  O   -0.356424
     5  H    0.256182
     6  H    0.243650
 Sum of Mulliken charges =  -0.00000

 Dipole moment (field-independent basis, Debye):
    X=             -1.3849    Y=             -4.8429    Z=              0.0000  Tot=              5.0370
 Quadrupole moment (field-independent basis, Debye-Ang):
   XX=             -9.1087   YY=             -9.9973   ZZ=            -14.6001
   XY=             -2.7810   XZ=              0.0000   YZ=             -0.0000

 Normal termination of Gaussian 16 at Fri Aug 26 16:29:10 2022.
