 Gaussian 16, Revision A.03,
 Gaussian 16:  ES64L-G16RevA.03 25-Dec-2016

 ------------------
 #p CCSD(T)/cc-pVTZ
 ------------------

 ------------
 H2O_H2O_2128
 ------------
 Symbolic Z-matrix:
 Charge =  0 Multiplicity = 1

                         Standard orientation:
 ---------------------------------------------------------------------
 Center     Atomic      Atomic             Coordinates (Angstroms)
 Number     Number       Type             X           Y           Z
 ---------------------------------------------------------------------
      1          8           0        0.085605   -1.943612    0.000000
      2          1           0        0.085272   -0.961010    0.000000
      3          1           0       -0.843779   -2.262594    0.000000
      4          8           0        0.085605    1.794025    0.000000
      5          1           0        0.276974    2.757811    0.000000
      6          1           0       -0.888152    1.662485    0.000000
 ---------------------------------------------------------------------

 SCF Done:  E(RHF) =  -152.109746983     A.U. after   10 cycles
 E2 =    -0.5265135303D+00 EUMP2 =    -0.15263626051368D+03
 CCSD(T)
 CCSD(T)= -0.15266337752D+03

 The electronic state is 1-A'.
 Alpha  occ. eigenvalues --  -20.57209 -20.54531  -1.34492  -1.31851  -0.71961
 Alpha  occ. eigenvalues --   -0.69206  -0.58027  -0.55291  -0.51601  -0.48973
 Alpha virt. eigenvalues --    0.11684   0.16225   0.19801   0.25138   0.52358
 Alpha virt. eigenvalues --    0.55766   0.56596   0.57711   0.68591   0.72893
 Alpha virt. eigenvalues --    0.76544   0.79102   0.80039   0.81873   0.83289

 Mulliken charges:
               1
     1  O   -0.517492
     2  H    0.265791
     3  H    0.245492
     4  O   -0.502504
     5  H    0.258950
     6  H    0.249763
 Sum of Mulliken charges =  -0.00000

 Dipole moment (field-independent basis, Debye):
    X=             -2.8927    Y=              2.7798    Z=              0.0000  Tot=              4.0119
 Quadrupole moment (field-independent basis, Debye-Ang):
   XX=            -10.4264   YY=             -8.5925   ZZ=            -14.7182
   XY=              2.6872   XZ=              0.0000   YZ=              0.0000

 Normal termination of Gaussian 16 at Sun Aug 28 04:34:48 2022.
