 Gaussian 16, Revision A.03,
 Gaussian 16:  ES64L-G16RevA.03 25-Dec-2016

 ------------------
 #p CCSD(T)/cc-pVTZ
 ------------------

 ------------
 H2O_H2O_2663
 ------------
 Symbolic Z-matrix:
 Charge =  0 Multiplicity = 1

                         Standard orientation:
 ---------------------------------------------------------------------
 Center     Atomic      Atomic             Coordinates (Angstroms)
 Number     Number       Type             X           Y           Z
 ---------------------------------------------------------------------
      1          8           0        0.052311    2.169478   -0.000000
      2          1           0        0.050651    1.186878   -0.000000
      3          1           0       -0.876643    2.489714    0.000000
      4          8           0        0.052311   -1.989602   -0.000000
      5          1           0        0.789975   -2.638723   -0.000000
      6          1           0       -0.800957   -2.476880    0.000000
 ---------------------------------------------------------------------

 SCF Done:  E(RHF) =  -152.110461965     A.U. after   10 cycles
 E2 =    -0.5260422458D+00 EUMP2 =    -0.15263650421052D+03
 CCSD(T)
 CCSD(T)= -0.15266362450D+03

 The electronic state is 1-A'.
 Alpha  occ. eigenvalues --  -20.56842 -20.54248  -1.34109  -1.31575  -0.71507
 Alpha  occ. eigenvalues --   -0.68966  -0.57680  -0.55060  -0.51242  -0.48714
 Alpha virt. eigenvalues --    0.12366   0.16254   0.19379   0.23572   0.52884
 Alpha virt. eigenvalues --    0.55620   0.56234   0.58938   0.69041   0.69909
 Alpha virt. eigenvalues --    0.77570   0.78906   0.80071   0.80119   0.83495

 Mulliken charges:
               1
     1  O   -0.521199
     2  H    0.265876
     3  H    0.250431
     4  O   -0.511947
     5  H    0.260372
     6  H    0.256467
 Sum of Mulliken charges =  -0.00000

 Dipole moment (field-independent basis, Debye):
    X=             -1.7794    Y=             -3.2770    Z=             -0.0000  Tot=              3.7289
 Quadrupole moment (field-independent basis, Debye-Ang):
   XX=             -9.2275   YY=             -7.4206   ZZ=            -14.7216
   XY=             -4.3129   XZ=             -0.0000   YZ=              0.0000

 Normal termination of Gaussian 16 at Fri Aug 26 16:23:48 2022.
