 Gaussian 16, Revision A.03,
 Gaussian 16:  ES64L-G16RevA.03 25-Dec-2016

 ------------------
 #p CCSD(T)/cc-pVTZ
 ------------------

 -----------
 H2O_H2O_542
 -----------
 Symbolic Z-matrix:
 Charge =  0 Multiplicity = 1

                         Standard orientation:
 ---------------------------------------------------------------------
 Center     Atomic      Atomic             Coordinates (Angstroms)
 Number     Number       Type             X           Y           Z
 ---------------------------------------------------------------------
      1          8           0        0.037605    1.321308    0.000000
      2          1           0        0.033781    0.338714    0.000000
      3          1           0       -0.890641    1.643589    0.000000
      4          8           0        0.037605   -1.142477   -0.000000
      5          1           0        0.917176   -1.580497   -0.000000
      6          1           0       -0.661994   -1.832454   -0.000000
 ---------------------------------------------------------------------

 SCF Done:  E(RHF) =  -152.102169678     A.U. after   11 cycles
 E2 =    -0.5313493644D+00 EUMP2 =    -0.15263351904241D+03
 CCSD(T)
 CCSD(T)= -0.15265993290D+03

 The electronic state is 1-A'.
 Alpha  occ. eigenvalues --  -20.60088 -20.48969  -1.38459  -1.27389  -0.75251
 Alpha  occ. eigenvalues --   -0.70714  -0.58755  -0.55141  -0.49521  -0.44353
 Alpha virt. eigenvalues --    0.11365   0.17820   0.19648   0.33658   0.47353
 Alpha virt. eigenvalues --    0.53737   0.59938   0.65423   0.69311   0.72287
 Alpha virt. eigenvalues --    0.73732   0.78447   0.80939   0.83015   0.83980

 Mulliken charges:
               1
     1  O   -0.614363
     2  H    0.311382
     3  H    0.231253
     4  O   -0.439410
     5  H    0.262274
     6  H    0.248864
 Sum of Mulliken charges =  -0.00000

 Dipole moment (field-independent basis, Debye):
    X=             -1.2080    Y=             -4.2358    Z=             -0.0000  Tot=              4.4047
 Quadrupole moment (field-independent basis, Debye-Ang):
   XX=             -9.1292   YY=             -9.3773   ZZ=            -14.6795
   XY=             -3.1239   XZ=             -0.0000   YZ=              0.0000

 Normal termination of Gaussian 16 at Fri Aug 26 18:56:37 2022.
