 Gaussian 16, Revision A.03,
 Gaussian 16:  ES64L-G16RevA.03 25-Dec-2016

 ------------------
 #p CCSD(T)/cc-pVTZ
 ------------------

 ------------
 H2O_H2O_3433
 ------------
 Symbolic Z-matrix:
 Charge =  0 Multiplicity = 1

                         Standard orientation:
 ---------------------------------------------------------------------
 Center     Atomic      Atomic             Coordinates (Angstroms)
 Number     Number       Type             X           Y           Z
 ---------------------------------------------------------------------
      1          8           0        0.070195    2.473377    0.000000
      2          1           0        0.069386    1.490776    0.000000
      3          1           0       -0.859036    2.792808   -0.000000
      4          8           0        0.070195   -2.303125    0.000000
      5          1           0        0.560796   -3.154488    0.000000
      6          1           0       -0.894258   -2.491105   -0.000000
 ---------------------------------------------------------------------

 SCF Done:  E(RHF) =  -152.108856629     A.U. after   10 cycles
 E2 =    -0.5259037068D+00 EUMP2 =    -0.15263476033620D+03
 CCSD(T)
 CCSD(T)= -0.15266193326D+03

 The electronic state is 1-A'.
 Alpha  occ. eigenvalues --  -20.56473 -20.54764  -1.33764  -1.32075  -0.71173
 Alpha  occ. eigenvalues --   -0.69466  -0.57267  -0.55547  -0.50884  -0.49200
 Alpha virt. eigenvalues --    0.12515   0.15498   0.19449   0.21932   0.53399
 Alpha virt. eigenvalues --    0.55102   0.56421   0.58129   0.67087   0.69279
 Alpha virt. eigenvalues --    0.78022   0.78738   0.79646   0.80181   0.82919

 Mulliken charges:
               1
     1  O   -0.514500
     2  H    0.262109
     3  H    0.251082
     4  O   -0.513638
     5  H    0.259949
     6  H    0.254997
 Sum of Mulliken charges =  -0.00000

 Dipole moment (field-independent basis, Debye):
    X=             -2.3978    Y=             -3.0329    Z=             -0.0000  Tot=              3.8662
 Quadrupole moment (field-independent basis, Debye-Ang):
   XX=             -9.6828   YY=             -7.3468   ZZ=            -14.7163
   XY=             -3.8575   XZ=             -0.0000   YZ=             -0.0000

 Normal termination of Gaussian 16 at Fri Aug 26 21:40:21 2022.
