 Gaussian 16, Revision A.03,
 Gaussian 16:  ES64L-G16RevA.03 25-Dec-2016

 ------------------
 #p CCSD(T)/cc-pVTZ
 ------------------

 ------------
 H2O_H2O_2677
 ------------
 Symbolic Z-matrix:
 Charge =  0 Multiplicity = 1

                         Standard orientation:
 ---------------------------------------------------------------------
 Center     Atomic      Atomic             Coordinates (Angstroms)
 Number     Number       Type             X           Y           Z
 ---------------------------------------------------------------------
      1          8           0        0.088233   -2.160131    0.000000
      2          1           0        0.088041   -1.177530    0.000000
      3          1           0       -0.841198   -2.478979    0.000000
      4          8           0        0.088233    2.015814    0.000000
      5          1           0        0.216298    2.990034    0.000000
      6          1           0       -0.874865    1.821009    0.000000
 ---------------------------------------------------------------------

 SCF Done:  E(RHF) =  -152.108740537     A.U. after   10 cycles
 E2 =    -0.5261752889D+00 EUMP2 =    -0.15263491582551D+03
 CCSD(T)
 CCSD(T)= -0.15266207432D+03

 The electronic state is 1-A'.
 Alpha  occ. eigenvalues --  -20.56819 -20.54889  -1.34107  -1.32196  -0.71547
 Alpha  occ. eigenvalues --   -0.69567  -0.57596  -0.55649  -0.51218  -0.49314
 Alpha virt. eigenvalues --    0.11650   0.15828   0.19601   0.23594   0.54041
 Alpha virt. eigenvalues --    0.55181   0.56474   0.58111   0.68562   0.69841
 Alpha virt. eigenvalues --    0.77574   0.78800   0.79582   0.80647   0.82939

 Mulliken charges:
               1
     1  O   -0.513332
     2  H    0.262471
     3  H    0.248134
     4  O   -0.506963
     5  H    0.259457
     6  H    0.250233
 Sum of Mulliken charges =  -0.00000

 Dipole moment (field-independent basis, Debye):
    X=             -2.9975    Y=              2.6165    Z=              0.0000  Tot=              3.9788
 Quadrupole moment (field-independent basis, Debye-Ang):
   XX=            -10.5678   YY=             -8.6979   ZZ=            -14.7150
   XY=              2.5531   XZ=              0.0000   YZ=              0.0000

 CCSD(T)=-152.6620743\RMSD=7.103e-09\PG=CS [SG(H4O2)]\\@
 Normal termination of Gaussian 16 at Fri Aug 26 16:29:47 2022.
