 Gaussian 16, Revision A.03,
 Gaussian 16:  ES64L-G16RevA.03 25-Dec-2016

 ------------------
 #p CCSD(T)/cc-pVTZ
 ------------------

 -----------
 H2O_H2O_940
 -----------
 Symbolic Z-matrix:
 Charge =  0 Multiplicity = 1

                         Standard orientation:
 ---------------------------------------------------------------------
 Center     Atomic      Atomic             Coordinates (Angstroms)
 Number     Number       Type             X           Y           Z
 ---------------------------------------------------------------------
      1          8           0        0.044962    1.481651    0.000000
      2          1           0        0.042028    0.499054    0.000000
      3          1           0       -0.883576    1.803091    0.000000
      4          8           0        0.044962   -1.301354    0.000000
      5          1           0        0.860333   -1.849694    0.000000
      6          1           0       -0.738174   -1.894822    0.000000
 ---------------------------------------------------------------------

 SCF Done:  E(RHF) =  -152.112865871     A.U. after   10 cycles
 E2 =    -0.5289106552D+00 EUMP2 =    -0.15264177652612D+03
 CCSD(T)
 CCSD(T)= -0.15266857675D+03

 The electronic state is 1-A'.
 Alpha  occ. eigenvalues --  -20.58985 -20.51260  -1.36550  -1.29026  -0.73695
 Alpha  occ. eigenvalues --   -0.68284  -0.59731  -0.53582  -0.51948  -0.46124
 Alpha virt. eigenvalues --    0.11775   0.18095   0.18989   0.32312   0.48275
 Alpha virt. eigenvalues --    0.54579   0.57249   0.61488   0.69215   0.71650
 Alpha virt. eigenvalues --    0.72640   0.77620   0.82278   0.82768   0.84761

 Mulliken charges:
               1
     1  O   -0.574106
     2  H    0.301391
     3  H    0.239250
     4  O   -0.489127
     5  H    0.265697
     6  H    0.256896
 Sum of Mulliken charges =  -0.00000

 Dipole moment (field-independent basis, Debye):
    X=             -1.4793    Y=             -3.8487    Z=              0.0000  Tot=              4.1232
 Quadrupole moment (field-independent basis, Debye-Ang):
   XX=             -9.1521   YY=             -8.8394   ZZ=            -14.7227
   XY=             -3.3878   XZ=              0.0000   YZ=              0.0000

 Normal termination of Gaussian 16 at Fri Aug 26 21:27:46 2022.
