 Gaussian 16, Revision A.03,
 Gaussian 16:  ES64L-G16RevA.03 25-Dec-2016

 ------------------
 #p CCSD(T)/cc-pVTZ
 ------------------

 ------------
 H2O_H2O_4272
 ------------
 Symbolic Z-matrix:
 Charge =  0 Multiplicity = 1

                         Standard orientation:
 ---------------------------------------------------------------------
 Center     Atomic      Atomic             Coordinates (Angstroms)
 Number     Number       Type             X           Y           Z
 ---------------------------------------------------------------------
      1          8           0       -0.019822    2.800757    0.000000
      2          1           0       -0.017539    1.818158    0.000000
      3          1           0        0.908928    3.121582    0.000000
      4          8           0       -0.019822   -2.633635    0.000000
      5          1           0       -0.993717   -2.764153    0.000000
      6          1           0        0.419485   -3.512564    0.000000
 ---------------------------------------------------------------------

 SCF Done:  E(RHF) =  -152.108577473     A.U. after   10 cycles
 E2 =    -0.5258016210D+00 EUMP2 =    -0.15263437909431D+03
 CCSD(T)
 CCSD(T)= -0.15266157212D+03

 The electronic state is 1-A'.
 Alpha  occ. eigenvalues --  -20.56223 -20.54984  -1.33525  -1.32293  -0.70930
 Alpha  occ. eigenvalues --   -0.69699  -0.57023  -0.55769  -0.50644  -0.49418
 Alpha virt. eigenvalues --    0.13123   0.15027   0.19451   0.21361   0.53397
 Alpha virt. eigenvalues --    0.54984   0.56647   0.57810   0.66739   0.68829
 Alpha virt. eigenvalues --    0.78244   0.79318   0.79436   0.80580   0.82668

 Mulliken charges:
               1
     1  O   -0.514913
     2  H    0.260089
     3  H    0.254614
     4  O   -0.515392
     5  H    0.257489
     6  H    0.258113
 Sum of Mulliken charges =  -0.00000

 Dipole moment (field-independent basis, Debye):
    X=              0.6808    Y=             -2.9387    Z=              0.0000  Tot=              3.0165
 Quadrupole moment (field-independent basis, Debye-Ang):
   XX=             -9.4472   YY=             -7.0929   ZZ=            -14.7153
   XY=              7.1237   XZ=              0.0000   YZ=              0.0000

 Normal termination of Gaussian 16 at Sun Aug 28 01:23:58 2022.
