 Gaussian 16, Revision A.03,
 Gaussian 16:  ES64L-G16RevA.03 25-Dec-2016

 ------------------
 #p CCSD(T)/cc-pVTZ
 ------------------

 -----------
 H2O_H2O_324
 -----------
 Symbolic Z-matrix:
 Charge =  0 Multiplicity = 1

                         Standard orientation:
 ---------------------------------------------------------------------
 Center     Atomic      Atomic             Coordinates (Angstroms)
 Number     Number       Type             X           Y           Z
 ---------------------------------------------------------------------
      1          8           0        0.013756   -1.220895    0.000000
      2          1           0        0.007851   -0.238311    0.000000
      3          1           0       -0.913805   -1.545142    0.000000
      4          8           0        0.013756    1.061715    0.000000
      5          1           0        0.996340    1.067620    0.000000
      6          1           0       -0.310490    1.989276    0.000000
 ---------------------------------------------------------------------

 SCF Done:  E(RHF) =  -152.080417172     A.U. after   11 cycles
 E2 =    -0.5338669764D+00 EUMP2 =    -0.15261428414860D+03
 CCSD(T)
 CCSD(T)= -0.15264034040D+03

 The electronic state is 1-A'.
 Alpha  occ. eigenvalues --  -20.60691 -20.47875  -1.40426  -1.26785  -0.78933
 Alpha  occ. eigenvalues --   -0.70253  -0.58460  -0.56320  -0.48214  -0.43681
 Alpha virt. eigenvalues --    0.11268   0.17708   0.20047   0.34137   0.47802
 Alpha virt. eigenvalues --    0.52418   0.59153   0.68625   0.71880   0.72684
 Alpha virt. eigenvalues --    0.75789   0.77373   0.77432   0.84000   0.85113

 Mulliken charges:
               1
     1  O   -0.639287
     2  H    0.287105
     3  H    0.237224
     4  O   -0.374434
     5  H    0.259947
     6  H    0.229445
 Sum of Mulliken charges =  -0.00000

 Dipole moment (field-independent basis, Debye):
    X=             -0.4384    Y=              4.1276    Z=              0.0000  Tot=              4.1508
 Quadrupole moment (field-independent basis, Debye-Ang):
   XX=             -9.5561   YY=             -9.6430   ZZ=            -14.6179
   XY=              3.2090   XZ=              0.0000   YZ=              0.0000

 Normal termination of Gaussian 16 at Fri Aug 26 17:26:22 2022.
