 Gaussian 16, Revision A.03,
 Gaussian 16:  ES64L-G16RevA.03 25-Dec-2016

 ------------------
 #p CCSD(T)/cc-pVTZ
 ------------------

 ------------
 H2O_H2O_4316
 ------------
 Symbolic Z-matrix:
 Charge =  0 Multiplicity = 1

                         Standard orientation:
 ---------------------------------------------------------------------
 Center     Atomic      Atomic             Coordinates (Angstroms)
 Number     Number       Type             X           Y           Z
 ---------------------------------------------------------------------
      1          8           0        0.041110    2.827666    0.000000
      2          1           0        0.039503    1.845066    0.000000
      3          1           0       -0.887861    3.147852    0.000000
      4          8           0        0.041110   -2.647714   -0.000000
      5          1           0        0.891264   -3.140405   -0.000000
      6          1           0       -0.700664   -3.292134   -0.000000
 ---------------------------------------------------------------------

 SCF Done:  E(RHF) =  -152.108563102     A.U. after   10 cycles
 E2 =    -0.5258066236D+00 EUMP2 =    -0.15263436972512D+03
 CCSD(T)
 CCSD(T)= -0.15266156248D+03

 The electronic state is 1-A'.
 Alpha  occ. eigenvalues --  -20.56219 -20.54897  -1.33519  -1.32206  -0.70923
 Alpha  occ. eigenvalues --   -0.69608  -0.57018  -0.55680  -0.50639  -0.49331
 Alpha virt. eigenvalues --    0.13274   0.15031   0.19677   0.21140   0.53618
 Alpha virt. eigenvalues --    0.54878   0.56643   0.57811   0.66744   0.68885
 Alpha virt. eigenvalues --    0.78249   0.79522   0.79599   0.79964   0.82776

 Mulliken charges:
               1
     1  O   -0.514570
     2  H    0.260888
     3  H    0.253466
     4  O   -0.515217
     5  H    0.258399
     6  H    0.257033
 Sum of Mulliken charges =  -0.00000

 Dipole moment (field-independent basis, Debye):
    X=             -1.4093    Y=             -3.1645    Z=             -0.0000  Tot=              3.4641
 Quadrupole moment (field-independent basis, Debye-Ang):
   XX=             -9.1493   YY=             -6.3599   ZZ=            -14.7153
   XY=             -5.8757   XZ=             -0.0000   YZ=              0.0000

 Normal termination of Gaussian 16 at Sun Aug 28 01:49:13 2022.
