 Gaussian 16, Revision A.03,
 Gaussian 16:  ES64L-G16RevA.03 25-Dec-2016

 ------------------
 #p CCSD(T)/cc-pVTZ
 ------------------

 ------------
 H2O_H2O_1238
 ------------
 Symbolic Z-matrix:
 Charge =  0 Multiplicity = 1

                         Standard orientation:
 ---------------------------------------------------------------------
 Center     Atomic      Atomic             Coordinates (Angstroms)
 Number     Number       Type             X           Y           Z
 ---------------------------------------------------------------------
      1          8           0        0.052368    1.601046   -0.000000
      2          1           0        0.050084    0.618447   -0.000000
      3          1           0       -0.876382    1.921872   -0.000000
      4          8           0        0.052368   -1.421236    0.000000
      5          1           0        0.789620   -2.070826    0.000000
      6          1           0       -0.801209   -1.907973    0.000000
 ---------------------------------------------------------------------

 SCF Done:  E(RHF) =  -152.113995831     A.U. after   10 cycles
 E2 =    -0.5278251074D+00 EUMP2 =    -0.15264182093817D+03
 CCSD(T)
 CCSD(T)= -0.15266875753D+03

 The electronic state is 1-A'.
 Alpha  occ. eigenvalues --  -20.58380 -20.52342  -1.35738  -1.29883  -0.73027
 Alpha  occ. eigenvalues --   -0.67929  -0.59473  -0.53091  -0.52843  -0.47017
 Alpha virt. eigenvalues --    0.11919   0.17746   0.19018   0.30588   0.48962
 Alpha virt. eigenvalues --    0.54817   0.56414   0.59933   0.69402   0.71642
 Alpha virt. eigenvalues --    0.73353   0.76951   0.82067   0.82721   0.84927

 Mulliken charges:
               1
     1  O   -0.552125
     2  H    0.287561
     3  H    0.242101
     4  O   -0.500845
     5  H    0.265143
     6  H    0.258166
 Sum of Mulliken charges =  -0.00000

 Dipole moment (field-independent basis, Debye):
    X=             -1.7419    Y=             -3.6426    Z=              0.0000  Tot=              4.0376
 Quadrupole moment (field-independent basis, Debye-Ang):
   XX=             -9.2327   YY=             -8.5145   ZZ=            -14.7329
   XY=             -3.4941   XZ=              0.0000   YZ=             -0.0000

 Normal termination of Gaussian 16 at Fri Aug 26 23:18:53 2022.
