 Gaussian 16, Revision A.03,
 Gaussian 16:  ES64L-G16RevA.03 25-Dec-2016

 ------------------
 #p CCSD(T)/cc-pVTZ
 ------------------

 -----------
 H2O_H2O_858
 -----------
 Symbolic Z-matrix:
 Charge =  0 Multiplicity = 1

                         Standard orientation:
 ---------------------------------------------------------------------
 Center     Atomic      Atomic             Coordinates (Angstroms)
 Number     Number       Type             X           Y           Z
 ---------------------------------------------------------------------
      1          8           0        0.070247    1.446225   -0.000000
      2          1           0        0.068829    0.463624   -0.000000
      3          1           0       -0.858785    1.766233   -0.000000
      4          8           0        0.070247   -1.276061    0.000000
      5          1           0        0.560320   -2.127727    0.000000
      6          1           0       -0.894322   -1.463442    0.000000
 ---------------------------------------------------------------------

 SCF Done:  E(RHF) =  -152.109951381     A.U. after   10 cycles
 E2 =    -0.5296390753D+00 EUMP2 =    -0.15263959045582D+03
 CCSD(T)
 CCSD(T)= -0.15266636448D+03

 The electronic state is 1-A'.
 Alpha  occ. eigenvalues --  -20.59143 -20.51486  -1.36843  -1.29265  -0.74276
 Alpha  occ. eigenvalues --   -0.68424  -0.59658  -0.53791  -0.52165  -0.46329
 Alpha virt. eigenvalues --    0.11545   0.17166   0.19726   0.32255   0.48130
 Alpha virt. eigenvalues --    0.54254   0.59302   0.60183   0.69888   0.72399
 Alpha virt. eigenvalues --    0.73835   0.77118   0.81259   0.82928   0.84213

 Mulliken charges:
               1
     1  O   -0.567552
     2  H    0.299655
     3  H    0.231289
     4  O   -0.459761
     5  H    0.248474
     6  H    0.247896
 Sum of Mulliken charges =  -0.00000

 Dipole moment (field-independent basis, Debye):
    X=             -2.2964    Y=             -3.6881    Z=              0.0000  Tot=              4.3446
 Quadrupole moment (field-independent basis, Debye-Ang):
   XX=             -9.7070   YY=             -8.9323   ZZ=            -14.7059
   XY=             -2.9986   XZ=              0.0000   YZ=              0.0000

 Normal termination of Gaussian 16 at Fri Aug 26 20:56:43 2022.
