 Gaussian 16, Revision A.03,
 Gaussian 16:  ES64L-G16RevA.03 25-Dec-2016

 ------------------
 #p CCSD(T)/cc-pVTZ
 ------------------

 ------------
 H2O_H2O_4008
 ------------
 Symbolic Z-matrix:
 Charge =  0 Multiplicity = 1

                         Standard orientation:
 ---------------------------------------------------------------------
 Center     Atomic      Atomic             Coordinates (Angstroms)
 Number     Number       Type             X           Y           Z
 ---------------------------------------------------------------------
      1          8           0        0.070188    2.702736   -0.000000
      2          1           0        0.069451    1.720135   -0.000000
      3          1           0       -0.859065    3.022100    0.000000
      4          8           0        0.070188   -2.532475   -0.000000
      5          1           0        0.560851   -3.383802   -0.000000
      6          1           0       -0.894251   -2.720524    0.000000
 ---------------------------------------------------------------------

 SCF Done:  E(RHF) =  -152.108413684     A.U. after   10 cycles
 E2 =    -0.5258487701D+00 EUMP2 =    -0.15263426245386D+03
 CCSD(T)
 CCSD(T)= -0.15266145486D+03

 The electronic state is 1-A'.
 Alpha  occ. eigenvalues --  -20.56298 -20.54929  -1.33597  -1.32237  -0.71005
 Alpha  occ. eigenvalues --   -0.69632  -0.57087  -0.55704  -0.50715  -0.49358
 Alpha virt. eigenvalues --    0.12924   0.15119   0.19486   0.21376   0.53368
 Alpha virt. eigenvalues --    0.54975   0.56545   0.57857   0.66695   0.69012
 Alpha virt. eigenvalues --    0.78180   0.79079   0.79497   0.80362   0.82758

 Mulliken charges:
               1
     1  O   -0.513176
     2  H    0.260787
     3  H    0.251989
     4  O   -0.513953
     5  H    0.259302
     6  H    0.255051
 Sum of Mulliken charges =   0.00000

 Dipole moment (field-independent basis, Debye):
    X=             -2.4032    Y=             -3.0045    Z=             -0.0000  Tot=              3.8474
 Quadrupole moment (field-independent basis, Debye-Ang):
   XX=             -9.6803   YY=             -7.0617   ZZ=            -14.7147
   XY=             -4.0397   XZ=             -0.0000   YZ=             -0.0000

 CCSD(T)=-152.6614549\RMSD=7.164e-09\PG=CS [SG(H4O2)]\\@
 Normal termination of Gaussian 16 at Sat Aug 27 00:58:03 2022.
