 Gaussian 16, Revision A.03,
 Gaussian 16:  ES64L-G16RevA.03 25-Dec-2016

 ------------------
 #p CCSD(T)/cc-pVTZ
 ------------------

 -----------
 H2O_H2O_344
 -----------
 Symbolic Z-matrix:
 Charge =  0 Multiplicity = 1

                         Standard orientation:
 ---------------------------------------------------------------------
 Center     Atomic      Atomic             Coordinates (Angstroms)
 Number     Number       Type             X           Y           Z
 ---------------------------------------------------------------------
      1          8           0        0.030392    1.239709    0.000000
      2          1           0        0.025768    0.257118    0.000000
      3          1           0       -0.897591    1.562746    0.000000
      4          8           0        0.030392   -1.064242   -0.000000
      5          1           0        0.959350   -1.384464   -0.000000
      6          1           0       -0.573793   -1.839140   -0.000000
 ---------------------------------------------------------------------

 SCF Done:  E(RHF) =  -152.086710274     A.U. after   11 cycles
 E2 =    -0.5331233997D+00 EUMP2 =    -0.15261983367422D+03
 CCSD(T)
 CCSD(T)= -0.15264592851D+03

 The electronic state is 1-A'.
 Alpha  occ. eigenvalues --  -20.60781 -20.47343  -1.40099  -1.26341  -0.77043
 Alpha  occ. eigenvalues --   -0.72448  -0.57632  -0.56298  -0.47761  -0.43182
 Alpha virt. eigenvalues --    0.11077   0.17502   0.20140   0.33855   0.47074
 Alpha virt. eigenvalues --    0.53061   0.60497   0.67988   0.69845   0.72012
 Alpha virt. eigenvalues --    0.76652   0.78281   0.79467   0.83565   0.83915

 Mulliken charges:
               1
     1  O   -0.638445
     2  H    0.302158
     3  H    0.226896
     4  O   -0.392230
     5  H    0.261246
     6  H    0.240376
 Sum of Mulliken charges =   0.00000

 Dipole moment (field-independent basis, Debye):
    X=             -0.9594    Y=             -4.4622    Z=             -0.0000  Tot=              4.5642
 Quadrupole moment (field-independent basis, Debye-Ang):
   XX=             -9.1735   YY=             -9.6790   ZZ=            -14.6373
   XY=             -2.9838   XZ=             -0.0000   YZ=             -0.0000

 Normal termination of Gaussian 16 at Fri Aug 26 17:34:48 2022.
