 Gaussian 16, Revision A.03,
 Gaussian 16:  ES64L-G16RevA.03 25-Dec-2016

 ------------------
 #p CCSD(T)/cc-pVTZ
 ------------------

 -----------
 H2O_H2O_789
 -----------
 Symbolic Z-matrix:
 Charge =  0 Multiplicity = 1

                         Standard orientation:
 ---------------------------------------------------------------------
 Center     Atomic      Atomic             Coordinates (Angstroms)
 Number     Number       Type             X           Y           Z
 ---------------------------------------------------------------------
      1          8           0        0.048690    1.421806    0.000000
      2          1           0        0.045861    0.439209    0.000000
      3          1           0       -0.879882    1.743147    0.000000
      4          8           0        0.048690   -1.241533   -0.000000
      5          1           0        0.826515   -1.841944   -0.000000
      6          1           0       -0.771526   -1.782599   -0.000000
 ---------------------------------------------------------------------

 SCF Done:  E(RHF) =  -152.110566960     A.U. after   10 cycles
 E2 =    -0.5297191054D+00 EUMP2 =    -0.15264028606498D+03
 CCSD(T)
 CCSD(T)= -0.15266697672D+03

 The electronic state is 1-A'.
 Alpha  occ. eigenvalues --  -20.59365 -20.50570  -1.37128  -1.28513  -0.74146
 Alpha  occ. eigenvalues --   -0.68927  -0.59551  -0.54078  -0.51223  -0.45572
 Alpha virt. eigenvalues --    0.11613   0.17898   0.19281   0.32914   0.47908
 Alpha virt. eigenvalues --    0.54295   0.58729   0.61699   0.69758   0.71938
 Alpha virt. eigenvalues --    0.72456   0.77898   0.82000   0.82874   0.84562

 Mulliken charges:
               1
     1  O   -0.585916
     2  H    0.308478
     3  H    0.234835
     4  O   -0.476211
     5  H    0.263783
     6  H    0.255032
 Sum of Mulliken charges =   0.00000

 Dipole moment (field-independent basis, Debye):
    X=             -1.5879    Y=             -3.9784    Z=             -0.0000  Tot=              4.2835
 Quadrupole moment (field-independent basis, Debye-Ang):
   XX=             -9.1758   YY=             -9.0260   ZZ=            -14.7109
   XY=             -3.2444   XZ=             -0.0000   YZ=             -0.0000

 Normal termination of Gaussian 16 at Fri Aug 26 20:31:18 2022.
