 Gaussian 16, Revision A.03,
 Gaussian 16:  ES64L-G16RevA.03 25-Dec-2016

 ------------------
 #p CCSD(T)/cc-pVTZ
 ------------------

 ------------
 H2O_H2O_1064
 ------------
 Symbolic Z-matrix:
 Charge =  0 Multiplicity = 1

                         Standard orientation:
 ---------------------------------------------------------------------
 Center     Atomic      Atomic             Coordinates (Angstroms)
 Number     Number       Type             X           Y           Z
 ---------------------------------------------------------------------
      1          8           0        0.048670    1.531508   -0.000000
      2          1           0        0.046057    0.548910   -0.000000
      3          1           0       -0.879973    1.852645    0.000000
      4          8           0        0.048670   -1.351213   -0.000000
      5          1           0        0.826626   -1.951453   -0.000000
      6          1           0       -0.771428   -1.892459    0.000000
 ---------------------------------------------------------------------

 SCF Done:  E(RHF) =  -152.113686793     A.U. after   10 cycles
 E2 =    -0.5284042195D+00 EUMP2 =    -0.15264209101237D+03
 CCSD(T)
 CCSD(T)= -0.15266895925D+03

 The electronic state is 1-A'.
 Alpha  occ. eigenvalues --  -20.58715 -20.51763  -1.36170  -1.29417  -0.73386
 Alpha  occ. eigenvalues --   -0.68033  -0.59684  -0.53242  -0.52481  -0.46534
 Alpha virt. eigenvalues --    0.11843   0.17962   0.18983   0.31640   0.48551
 Alpha virt. eigenvalues --    0.54719   0.56758   0.60666   0.69349   0.71500
 Alpha virt. eigenvalues --    0.72876   0.77327   0.82476   0.82510   0.84889

 Mulliken charges:
               1
     1  O   -0.563811
     2  H    0.295561
     3  H    0.240449
     4  O   -0.495668
     5  H    0.265633
     6  H    0.257836
 Sum of Mulliken charges =  -0.00000

 Dipole moment (field-independent basis, Debye):
    X=             -1.6093    Y=             -3.7570    Z=             -0.0000  Tot=              4.0871
 Quadrupole moment (field-independent basis, Debye-Ang):
   XX=             -9.1838   YY=             -8.6953   ZZ=            -14.7286
   XY=             -3.4336   XZ=             -0.0000   YZ=             -0.0000

 Normal termination of Gaussian 16 at Fri Aug 26 22:14:28 2022.
