 Gaussian 16, Revision A.03,
 Gaussian 16:  ES64L-G16RevA.03 25-Dec-2016

 ------------------
 #p CCSD(T)/cc-pVTZ
 ------------------

 ------------
 H2O_H2O_1561
 ------------
 Symbolic Z-matrix:
 Charge =  0 Multiplicity = 1

                         Standard orientation:
 ---------------------------------------------------------------------
 Center     Atomic      Atomic             Coordinates (Angstroms)
 Number     Number       Type             X           Y           Z
 ---------------------------------------------------------------------
      1          8           0        0.059684    1.729363    0.000000
      2          1           0        0.057960    0.746763    0.000000
      3          1           0       -0.869249    2.049659    0.000000
      4          8           0        0.059684   -1.551975   -0.000000
      5          1           0        0.706261   -2.291869   -0.000000
      6          1           0       -0.849911   -1.923652   -0.000000
 ---------------------------------------------------------------------

 SCF Done:  E(RHF) =  -152.113232138     A.U. after   10 cycles
 E2 =    -0.5270740091D+00 EUMP2 =    -0.15264030614755D+03
 CCSD(T)
 CCSD(T)= -0.15266732047D+03

 The electronic state is 1-A'.
 Alpha  occ. eigenvalues --  -20.57870 -20.53156  -1.35150  -1.30576  -0.72519
 Alpha  occ. eigenvalues --   -0.68148  -0.58918  -0.53939  -0.52276  -0.47720
 Alpha virt. eigenvalues --    0.11995   0.17283   0.19167   0.28507   0.49851
 Alpha virt. eigenvalues --    0.54995   0.56399   0.59097   0.69381   0.72476
 Alpha virt. eigenvalues --    0.74563   0.76782   0.81335   0.83042   0.84570

 Mulliken charges:
               1
     1  O   -0.536641
     2  H    0.276188
     3  H    0.244164
     4  O   -0.503975
     5  H    0.263486
     6  H    0.256778
 Sum of Mulliken charges =  -0.00000

 Dipole moment (field-independent basis, Debye):
    X=             -2.0016    Y=             -3.4549    Z=             -0.0000  Tot=              3.9928
 Quadrupole moment (field-independent basis, Debye-Ang):
   XX=             -9.3767   YY=             -8.2498   ZZ=            -14.7326
   XY=             -3.5325   XZ=             -0.0000   YZ=             -0.0000

 Normal termination of Gaussian 16 at Sat Aug 27 23:18:00 2022.
