 Gaussian 16, Revision A.03,
 Gaussian 16:  ES64L-G16RevA.03 25-Dec-2016

 ------------------
 #p CCSD(T)/cc-pVTZ
 ------------------

 ------------
 H2O_H2O_3390
 ------------
 Symbolic Z-matrix:
 Charge =  0 Multiplicity = 1

                         Standard orientation:
 ---------------------------------------------------------------------
 Center     Atomic      Atomic             Coordinates (Angstroms)
 Number     Number       Type             X           Y           Z
 ---------------------------------------------------------------------
      1          8           0        0.044851    2.458953    0.000000
      2          1           0        0.043127    1.476353    0.000000
      3          1           0       -0.884082    2.779249    0.000000
      4          8           0        0.044851   -2.278546   -0.000000
      5          1           0        0.860896   -2.825881   -0.000000
      6          1           0       -0.737553   -2.872978   -0.000000
 ---------------------------------------------------------------------

 SCF Done:  E(RHF) =  -152.109358673     A.U. after   10 cycles
 E2 =    -0.5258696526D+00 EUMP2 =    -0.15263522832595D+03
 CCSD(T)
 CCSD(T)= -0.15266238993D+03

 The electronic state is 1-A'.
 Alpha  occ. eigenvalues --  -20.56482 -20.54603  -1.33769  -1.31919  -0.71171
 Alpha  occ. eigenvalues --   -0.69316  -0.57295  -0.55403  -0.50895  -0.49050
 Alpha virt. eigenvalues --    0.12709   0.15626   0.19538   0.21967   0.53368
 Alpha virt. eigenvalues --    0.55171   0.56464   0.58118   0.67227   0.69352
 Alpha virt. eigenvalues --    0.78010   0.79062   0.79423   0.79784   0.83093

 Mulliken charges:
               1
     1  O   -0.517307
     2  H    0.263244
     3  H    0.252456
     4  O   -0.515484
     5  H    0.259748
     6  H    0.257343
 Sum of Mulliken charges =  -0.00000

 Dipole moment (field-independent basis, Debye):
    X=             -1.5323    Y=             -3.2184    Z=             -0.0000  Tot=              3.5645
 Quadrupole moment (field-independent basis, Debye-Ang):
   XX=             -9.1569   YY=             -6.9317   ZZ=            -14.7182
   XY=             -5.0505   XZ=             -0.0000   YZ=              0.0000

 Normal termination of Gaussian 16 at Fri Aug 26 21:26:05 2022.
