 Gaussian 16, Revision A.03,
 Gaussian 16:  ES64L-G16RevA.03 25-Dec-2016

 ------------------
 #p CCSD(T)/cc-pVTZ
 ------------------

 ------------
 H2O_H2O_3180
 ------------
 Symbolic Z-matrix:
 Charge =  0 Multiplicity = 1

                         Standard orientation:
 ---------------------------------------------------------------------
 Center     Atomic      Atomic             Coordinates (Angstroms)
 Number     Number       Type             X           Y           Z
 ---------------------------------------------------------------------
      1          8           0        0.079852    2.367579   -0.000000
      2          1           0        0.079366    1.384978   -0.000000
      3          1           0       -0.849484    2.686705   -0.000000
      4          8           0        0.079852   -2.208517    0.000000
      5          1           0        0.395238   -3.139128    0.000000
      6          1           0       -0.902744   -2.205052    0.000000
 ---------------------------------------------------------------------

 SCF Done:  E(RHF) =  -152.108755556     A.U. after   10 cycles
 E2 =    -0.5259744523D+00 EUMP2 =    -0.15263473000795D+03
 CCSD(T)
 CCSD(T)= -0.15266190002D+03

 The electronic state is 1-A'.
 Alpha  occ. eigenvalues --  -20.56573 -20.54828  -1.33863  -1.32138  -0.71280
 Alpha  occ. eigenvalues --   -0.69524  -0.57359  -0.55604  -0.50980  -0.49260
 Alpha virt. eigenvalues --    0.12132   0.15606   0.19379   0.22444   0.53712
 Alpha virt. eigenvalues --    0.55036   0.56385   0.58276   0.67549   0.69222
 Alpha virt. eigenvalues --    0.77923   0.78648   0.79593   0.80649   0.82829

 Mulliken charges:
               1
     1  O   -0.513605
     2  H    0.261791
     3  H    0.250092
     4  O   -0.511576
     5  H    0.259916
     6  H    0.253382
 Sum of Mulliken charges =  -0.00000

 Dipole moment (field-independent basis, Debye):
    X=             -2.7235    Y=             -2.8472    Z=              0.0000  Tot=              3.9400
 Quadrupole moment (field-independent basis, Debye-Ang):
   XX=            -10.1017   YY=             -7.9517   ZZ=            -14.7158
   XY=             -3.2116   XZ=              0.0000   YZ=             -0.0000

 Normal termination of Gaussian 16 at Fri Aug 26 20:15:03 2022.
