 Gaussian 16, Revision A.03,
 Gaussian 16:  ES64L-G16RevA.03 25-Dec-2016

 ------------------
 #p CCSD(T)/cc-pVTZ
 ------------------

 ------------
 H2O_H2O_2826
 ------------
 Symbolic Z-matrix:
 Charge =  0 Multiplicity = 1

                         Standard orientation:
 ---------------------------------------------------------------------
 Center     Atomic      Atomic             Coordinates (Angstroms)
 Number     Number       Type             X           Y           Z
 ---------------------------------------------------------------------
      1          8           0        0.090685   -2.216916    0.000000
      2          1           0        0.090595   -1.234315    0.000000
      3          1           0       -0.838779   -2.535667    0.000000
      4          8           0        0.090685    2.078209    0.000000
      5          1           0        0.154861    3.058712    0.000000
      6          1           0       -0.857636    1.820929    0.000000
 ---------------------------------------------------------------------

 SCF Done:  E(RHF) =  -152.108379199     A.U. after   10 cycles
 E2 =    -0.5261297601D+00 EUMP2 =    -0.15263450895923D+03
 CCSD(T)
 CCSD(T)= -0.15266168100D+03

 The electronic state is 1-A'.
 Alpha  occ. eigenvalues --  -20.56737 -20.55027  -1.34028  -1.32330  -0.71467
 Alpha  occ. eigenvalues --   -0.69704  -0.57505  -0.55782  -0.51137  -0.49445
 Alpha virt. eigenvalues --    0.11571   0.15694   0.19524   0.23427   0.54274
 Alpha virt. eigenvalues --    0.54881   0.56471   0.58110   0.68401   0.69239
 Alpha virt. eigenvalues --    0.77711   0.78546   0.79443   0.80837   0.82793

 Mulliken charges:
               1
     1  O   -0.511845
     2  H    0.261273
     3  H    0.248656
     4  O   -0.507479
     5  H    0.259621
     6  H    0.249773
 Sum of Mulliken charges =  -0.00000

 Dipole moment (field-independent basis, Debye):
    X=             -3.0840    Y=              2.5014    Z=              0.0000  Tot=              3.9709
 Quadrupole moment (field-independent basis, Debye-Ang):
   XX=            -10.7160   YY=             -8.9314   ZZ=            -14.7137
   XY=              2.3579   XZ=              0.0000   YZ=              0.0000

 Normal termination of Gaussian 16 at Fri Aug 26 17:35:40 2022.
