 Gaussian 16, Revision A.03,
 Gaussian 16:  ES64L-G16RevA.03 25-Dec-2016

 ------------------
 #p CCSD(T)/cc-pVTZ
 ------------------

 ------------
 H2O_H2O_4794
 ------------
 Symbolic Z-matrix:
 Charge =  0 Multiplicity = 1

                         Standard orientation:
 ---------------------------------------------------------------------
 Center     Atomic      Atomic             Coordinates (Angstroms)
 Number     Number       Type             X           Y           Z
 ---------------------------------------------------------------------
      1          8           0        0.030141    3.014792    0.000000
      2          1           0        0.028321    2.032192    0.000000
      3          1           0       -0.898760    3.335179    0.000000
      4          8           0        0.030141   -2.839151    0.000000
      5          1           0        0.960010   -3.156721    0.000000
      6          1           0       -0.571830   -3.615771    0.000000
 ---------------------------------------------------------------------

 SCF Done:  E(RHF) =  -152.108345710     A.U. after   10 cycles
 E2 =    -0.5258000357D+00 EUMP2 =    -0.15263414574558D+03
 CCSD(T)
 CCSD(T)= -0.15266134612D+03

 The electronic state is 1-A'.
 Alpha  occ. eigenvalues --  -20.56133 -20.55028  -1.33436  -1.32335  -0.70840
 Alpha  occ. eigenvalues --   -0.69739  -0.56926  -0.55806  -0.50554  -0.49458
 Alpha virt. eigenvalues --    0.13473   0.14815   0.19692   0.20964   0.53670
 Alpha virt. eigenvalues --    0.54821   0.56709   0.57770   0.66990   0.68558
 Alpha virt. eigenvalues --    0.78329   0.79401   0.79690   0.80509   0.82313

 Mulliken charges:
               1
     1  O   -0.513805
     2  H    0.259600
     3  H    0.254151
     4  O   -0.514371
     5  H    0.257392
     6  H    0.257034
 Sum of Mulliken charges =  -0.00000

 Dipole moment (field-independent basis, Debye):
    X=             -1.0349    Y=             -3.0755    Z=             -0.0000  Tot=              3.2450
 Quadrupole moment (field-independent basis, Debye-Ang):
   XX=             -9.2307   YY=             -6.3126   ZZ=            -14.7146
   XY=             -6.9244   XZ=             -0.0000   YZ=             -0.0000

 Normal termination of Gaussian 16 at Sun Aug 28 05:56:12 2022.
