 Gaussian 16, Revision A.03,
 Gaussian 16:  ES64L-G16RevA.03 25-Dec-2016

 ------------------
 #p CCSD(T)/cc-pVTZ
 ------------------

 ------------
 H2O_H2O_3686
 ------------
 Symbolic Z-matrix:
 Charge =  0 Multiplicity = 1

                         Standard orientation:
 ---------------------------------------------------------------------
 Center     Atomic      Atomic             Coordinates (Angstroms)
 Number     Number       Type             X           Y           Z
 ---------------------------------------------------------------------
      1          8           0        0.059631    2.577012   -0.000000
      2          1           0        0.058494    1.594411   -0.000000
      3          1           0       -0.869493    2.896753   -0.000000
      4          8           0        0.059631   -2.399554    0.000000
      5          1           0        0.706651   -3.139061    0.000000
      6          1           0       -0.849743   -2.771773    0.000000
 ---------------------------------------------------------------------

 SCF Done:  E(RHF) =  -152.108851938     A.U. after   10 cycles
 E2 =    -0.5258559593D+00 EUMP2 =    -0.15263470789744D+03
 CCSD(T)
 CCSD(T)= -0.15266188579D+03

 The electronic state is 1-A'.
 Alpha  occ. eigenvalues --  -20.56385 -20.54757  -1.33678  -1.32069  -0.71083
 Alpha  occ. eigenvalues --   -0.69464  -0.57185  -0.55544  -0.50800  -0.49195
 Alpha virt. eigenvalues --    0.12822   0.15369   0.19557   0.21583   0.53431
 Alpha virt. eigenvalues --    0.55006   0.56501   0.57945   0.66806   0.69247
 Alpha virt. eigenvalues --    0.78101   0.79010   0.79650   0.79824   0.82940

 Mulliken charges:
               1
     1  O   -0.515035
     2  H    0.262152
     3  H    0.252000
     4  O   -0.514916
     5  H    0.259678
     6  H    0.256122
 Sum of Mulliken charges =  -0.00000

 Dipole moment (field-independent basis, Debye):
    X=             -2.0394    Y=             -3.1474    Z=              0.0000  Tot=              3.7504
 Quadrupole moment (field-independent basis, Debye-Ang):
   XX=             -9.3629   YY=             -6.8798   ZZ=            -14.7164
   XY=             -4.5210   XZ=              0.0000   YZ=             -0.0000

 Normal termination of Gaussian 16 at Fri Aug 26 23:06:37 2022.
