 Gaussian 16, Revision A.03,
 Gaussian 16:  ES64L-G16RevA.03 25-Dec-2016

 ------------------
 #p CCSD(T)/cc-pVTZ
 ------------------

 ------------
 H2O_H2O_2319
 ------------
 Symbolic Z-matrix:
 Charge =  0 Multiplicity = 1

                         Standard orientation:
 ---------------------------------------------------------------------
 Center     Atomic      Atomic             Coordinates (Angstroms)
 Number     Number       Type             X           Y           Z
 ---------------------------------------------------------------------
      1          8           0        0.030224    2.027544    0.000000
      2          1           0        0.027478    1.044947    0.000000
      3          1           0       -0.898375    2.348807    0.000000
      4          8           0        0.030224   -1.851961   -0.000000
      5          1           0        0.959793   -2.170407   -0.000000
      6          1           0       -0.572478   -2.628012   -0.000000
 ---------------------------------------------------------------------

 SCF Done:  E(RHF) =  -152.111456368     A.U. after   10 cycles
 E2 =    -0.5261646991D+00 EUMP2 =    -0.15263762106758D+03
 CCSD(T)
 CCSD(T)= -0.15266471313D+03

 The electronic state is 1-A'.
 Alpha  occ. eigenvalues --  -20.57063 -20.54033  -1.34324  -1.31374  -0.71720
 Alpha  occ. eigenvalues --   -0.68784  -0.57952  -0.54858  -0.51461  -0.48524
 Alpha virt. eigenvalues --    0.12300   0.16653   0.19245   0.24899   0.52810
 Alpha virt. eigenvalues --    0.55317   0.56410   0.58740   0.69003   0.71531
 Alpha virt. eigenvalues --    0.77057   0.78564   0.80346   0.82381   0.83631

 Mulliken charges:
               1
     1  O   -0.526590
     2  H    0.266977
     3  H    0.252086
     4  O   -0.510923
     5  H    0.260759
     6  H    0.257691
 Sum of Mulliken charges =   0.00000

 Dipole moment (field-independent basis, Debye):
    X=             -1.0275    Y=             -3.2448    Z=             -0.0000  Tot=              3.4036
 Quadrupole moment (field-independent basis, Debye-Ang):
   XX=             -9.2300   YY=             -7.7594   ZZ=            -14.7251
   XY=             -4.7826   XZ=             -0.0000   YZ=             -0.0000

 Normal termination of Gaussian 16 at Sun Aug 28 06:17:19 2022.
