 Gaussian 16, Revision A.03,
 Gaussian 16:  ES64L-G16RevA.03 25-Dec-2016

 ------------------
 #p CCSD(T)/cc-pVTZ
 ------------------

 ------------
 H2O_H2O_2276
 ------------
 Symbolic Z-matrix:
 Charge =  0 Multiplicity = 1

                         Standard orientation:
 ---------------------------------------------------------------------
 Center     Atomic      Atomic             Coordinates (Angstroms)
 Number     Number       Type             X           Y           Z
 ---------------------------------------------------------------------
      1          8           0        0.090686   -1.997532    0.000000
      2          1           0        0.090586   -1.014931    0.000000
      3          1           0       -0.838775   -2.316293    0.000000
      4          8           0        0.090686    1.858827    0.000000
      5          1           0        0.154851    2.839331    0.000000
      6          1           0       -0.857634    1.601538    0.000000
 ---------------------------------------------------------------------

 SCF Done:  E(RHF) =  -152.108914955     A.U. after   10 cycles
 E2 =    -0.5264413825D+00 EUMP2 =    -0.15263535633785D+03
 CCSD(T)
 CCSD(T)= -0.15266249894D+03

 The electronic state is 1-A'.
 Alpha  occ. eigenvalues --  -20.57081 -20.54844  -1.34370  -1.32151  -0.71849
 Alpha  occ. eigenvalues --   -0.69498  -0.57864  -0.55592  -0.51474  -0.49267
 Alpha virt. eigenvalues --    0.11515   0.16009   0.19926   0.24650   0.52977
 Alpha virt. eigenvalues --    0.55818   0.56636   0.57590   0.68333   0.72288
 Alpha virt. eigenvalues --    0.76898   0.79557   0.79734   0.80038   0.83309

 Mulliken charges:
               1
     1  O   -0.514223
     2  H    0.264076
     3  H    0.246143
     4  O   -0.502619
     5  H    0.258998
     6  H    0.247625
 Sum of Mulliken charges =  -0.00000

 Dipole moment (field-independent basis, Debye):
    X=             -3.0679    Y=              2.5536    Z=              0.0000  Tot=              3.9916
 Quadrupole moment (field-independent basis, Debye-Ang):
   XX=            -10.7282   YY=             -8.9455   ZZ=            -14.7148
   XY=              2.3347   XZ=              0.0000   YZ=              0.0000

 Normal termination of Gaussian 16 at Sun Aug 28 05:56:14 2022.
