 Gaussian 16, Revision A.03,
 Gaussian 16:  ES64L-G16RevA.03 25-Dec-2016

 ------------------
 #p CCSD(T)/cc-pVTZ
 ------------------

 ------------
 H2O_H2O_3541
 ------------
 Symbolic Z-matrix:
 Charge =  0 Multiplicity = 1

                         Standard orientation:
 ---------------------------------------------------------------------
 Center     Atomic      Atomic             Coordinates (Angstroms)
 Number     Number       Type             X           Y           Z
 ---------------------------------------------------------------------
      1          8           0        0.041129    2.518528    0.000000
      2          1           0        0.039318    1.535929    0.000000
      3          1           0       -0.887776    2.838907    0.000000
      4          8           0        0.041129   -2.338593   -0.000000
      5          1           0        0.891180   -2.831461   -0.000000
      6          1           0       -0.700779   -2.982859   -0.000000
 ---------------------------------------------------------------------

 SCF Done:  E(RHF) =  -152.109207169     A.U. after   10 cycles
 E2 =    -0.5258489794D+00 EUMP2 =    -0.15263505614789D+03
 CCSD(T)
 CCSD(T)= -0.15266222419D+03

 The electronic state is 1-A'.
 Alpha  occ. eigenvalues --  -20.56426 -20.54664  -1.33716  -1.31978  -0.71118
 Alpha  occ. eigenvalues --   -0.69376  -0.57238  -0.55461  -0.50841  -0.49108
 Alpha virt. eigenvalues --    0.12797   0.15515   0.19558   0.21776   0.53416
 Alpha virt. eigenvalues --    0.55098   0.56507   0.57995   0.66977   0.69319
 Alpha virt. eigenvalues --    0.78062   0.79063   0.79560   0.79729   0.83037

 Mulliken charges:
               1
     1  O   -0.516884
     2  H    0.262787
     3  H    0.252881
     4  O   -0.515839
     5  H    0.259473
     6  H    0.257582
 Sum of Mulliken charges =  -0.00000

 Dipole moment (field-independent basis, Debye):
    X=             -1.4062    Y=             -3.1999    Z=             -0.0000  Tot=              3.4953
 Quadrupole moment (field-independent basis, Debye-Ang):
   XX=             -9.1491   YY=             -6.8544   ZZ=            -14.7177
   XY=             -5.3216   XZ=             -0.0000   YZ=              0.0000

 Normal termination of Gaussian 16 at Fri Aug 26 22:17:17 2022.
