 Gaussian 16, Revision A.03,
 Gaussian 16:  ES64L-G16RevA.03 25-Dec-2016

 ------------------
 #p CCSD(T)/cc-pVTZ
 ------------------

 ------------
 H2O_H2O_1589
 ------------
 Symbolic Z-matrix:
 Charge =  0 Multiplicity = 1

                         Standard orientation:
 ---------------------------------------------------------------------
 Center     Atomic      Atomic             Coordinates (Angstroms)
 Number     Number       Type             X           Y           Z
 ---------------------------------------------------------------------
      1          8           0        0.048639    1.740934   -0.000000
      2          1           0        0.046358    0.758335   -0.000000
      3          1           0       -0.880111    2.061758   -0.000000
      4          8           0        0.048639   -1.560607    0.000000
      5          1           0        0.826799   -2.160584    0.000000
      6          1           0       -0.771275   -2.102129    0.000000
 ---------------------------------------------------------------------

 SCF Done:  E(RHF) =  -152.113616097     A.U. after   10 cycles
 E2 =    -0.5269735076D+00 EUMP2 =    -0.15264058960409D+03
 CCSD(T)
 CCSD(T)= -0.15266760200D+03

 The electronic state is 1-A'.
 Alpha  occ. eigenvalues --  -20.57836 -20.53086  -1.35106  -1.30508  -0.72456
 Alpha  occ. eigenvalues --   -0.68090  -0.58906  -0.53882  -0.52241  -0.47660
 Alpha virt. eigenvalues --    0.12084   0.17470   0.19024   0.28487   0.50196
 Alpha virt. eigenvalues --    0.54695   0.56221   0.59385   0.69065   0.72098
 Alpha virt. eigenvalues --    0.74687   0.76824   0.81364   0.83114   0.84748

 Mulliken charges:
               1
     1  O   -0.538739
     2  H    0.275882
     3  H    0.246254
     4  O   -0.506631
     5  H    0.264723
     6  H    0.258509
 Sum of Mulliken charges =  -0.00000

 Dipole moment (field-independent basis, Debye):
    X=             -1.6332    Y=             -3.5053    Z=              0.0000  Tot=              3.8671
 Quadrupole moment (field-independent basis, Debye-Ang):
   XX=             -9.1886   YY=             -8.1918   ZZ=            -14.7344
   XY=             -3.7741   XZ=              0.0000   YZ=             -0.0000

 Normal termination of Gaussian 16 at Sat Aug 27 23:31:12 2022.
