 Gaussian 16, Revision A.03,
 Gaussian 16:  ES64L-G16RevA.03 25-Dec-2016

 ------------------
 #p CCSD(T)/cc-pVTZ
 ------------------

 ------------
 H2O_H2O_1465
 ------------
 Symbolic Z-matrix:
 Charge =  0 Multiplicity = 1

                         Standard orientation:
 ---------------------------------------------------------------------
 Center     Atomic      Atomic             Coordinates (Angstroms)
 Number     Number       Type             X           Y           Z
 ---------------------------------------------------------------------
      1          8           0        0.044927    1.691078    0.000000
      2          1           0        0.042377    0.708480    0.000000
      3          1           0       -0.883736    2.012155    0.000000
      4          8           0        0.044927   -1.510746   -0.000000
      5          1           0        0.860511   -2.058769   -0.000000
      6          1           0       -0.737977   -2.104520   -0.000000
 ---------------------------------------------------------------------

 SCF Done:  E(RHF) =  -152.114003271     A.U. after   10 cycles
 E2 =    -0.5272053083D+00 EUMP2 =    -0.15264120857920D+03
 CCSD(T)
 CCSD(T)= -0.15266819835D+03

 The electronic state is 1-A'.
 Alpha  occ. eigenvalues --  -20.58008 -20.52836  -1.35298  -1.30292  -0.72629
 Alpha  occ. eigenvalues --   -0.67986  -0.59121  -0.53620  -0.52428  -0.47443
 Alpha virt. eigenvalues --    0.12061   0.17674   0.18946   0.29253   0.49884
 Alpha virt. eigenvalues --    0.54592   0.56083   0.59762   0.68969   0.71904
 Alpha virt. eigenvalues --    0.74181   0.76861   0.81608   0.83002   0.84872

 Mulliken charges:
               1
     1  O   -0.543731
     2  H    0.279192
     3  H    0.246005
     4  O   -0.506070
     5  H    0.265515
     6  H    0.259088
 Sum of Mulliken charges =  -0.00000

 Dipole moment (field-independent basis, Debye):
    X=             -1.5050    Y=             -3.5512    Z=             -0.0000  Tot=              3.8570
 Quadrupole moment (field-independent basis, Debye-Ang):
   XX=             -9.1609   YY=             -8.2999   ZZ=            -14.7354
   XY=             -3.7599   XZ=             -0.0000   YZ=             -0.0000

 CCSD(T)=-152.6681984\RMSD=6.594e-09\PG=CS [SG(H4O2)]\\@
 Normal termination of Gaussian 16 at Sat Aug 27 00:44:54 2022.
