 Gaussian 16, Revision A.03,
 Gaussian 16:  ES64L-G16RevA.03 25-Dec-2016

 ------------------
 #p CCSD(T)/cc-pVTZ
 ------------------

 ------------
 H2O_H2O_2228
 ------------
 Symbolic Z-matrix:
 Charge =  0 Multiplicity = 1

                         Standard orientation:
 ---------------------------------------------------------------------
 Center     Atomic      Atomic             Coordinates (Angstroms)
 Number     Number       Type             X           Y           Z
 ---------------------------------------------------------------------
      1          8           0        0.085605   -1.983500    0.000000
      2          1           0        0.085278   -1.000898    0.000000
      3          1           0       -0.843782   -2.302475    0.000000
      4          8           0        0.085605    1.833912    0.000000
      5          1           0        0.276981    2.797697    0.000000
      6          1           0       -0.888153    1.702380    0.000000
 ---------------------------------------------------------------------

 SCF Done:  E(RHF) =  -152.109589470     A.U. after   10 cycles
 E2 =    -0.5264279243D+00 EUMP2 =    -0.15263601739413D+03
 CCSD(T)
 CCSD(T)= -0.15266314164D+03

 The electronic state is 1-A'.
 Alpha  occ. eigenvalues --  -20.57127 -20.54590  -1.34409  -1.31907  -0.71868
 Alpha  occ. eigenvalues --   -0.69266  -0.57935  -0.55353  -0.51520  -0.49029
 Alpha virt. eigenvalues --    0.11692   0.16164   0.19761   0.24784   0.52744
 Alpha virt. eigenvalues --    0.55775   0.56523   0.57766   0.68584   0.72359
 Alpha virt. eigenvalues --    0.76814   0.79317   0.79950   0.81190   0.83381

 Mulliken charges:
               1
     1  O   -0.516746
     2  H    0.265155
     3  H    0.246082
     4  O   -0.503562
     5  H    0.259078
     6  H    0.249992
 Sum of Mulliken charges =  -0.00000

 Dipole moment (field-independent basis, Debye):
    X=             -2.8961    Y=              2.7652    Z=              0.0000  Tot=              4.0042
 Quadrupole moment (field-independent basis, Debye-Ang):
   XX=            -10.4238   YY=             -8.5718   ZZ=            -14.7177
   XY=              2.6987   XZ=              0.0000   YZ=              0.0000

 Normal termination of Gaussian 16 at Sun Aug 28 05:33:47 2022.
