 Gaussian 16, Revision A.03,
 Gaussian 16:  ES64L-G16RevA.03 25-Dec-2016

 ------------------
 #p CCSD(T)/cc-pVTZ
 ------------------

 -----------
 H2O_H2O_341
 -----------
 Symbolic Z-matrix:
 Charge =  0 Multiplicity = 1

                         Standard orientation:
 ---------------------------------------------------------------------
 Center     Atomic      Atomic             Coordinates (Angstroms)
 Number     Number       Type             X           Y           Z
 ---------------------------------------------------------------------
      1          8           0        0.041312    1.242041    0.000000
      2          1           0        0.037495    0.259447    0.000000
      3          1           0       -0.886936    1.564316    0.000000
      4          8           0        0.041312   -1.062274   -0.000000
      5          1           0        0.890356   -1.556877   -0.000000
      6          1           0       -0.701910   -1.705023   -0.000000
 ---------------------------------------------------------------------

 SCF Done:  E(RHF) =  -152.087319952     A.U. after   11 cycles
 E2 =    -0.5330655222D+00 EUMP2 =    -0.15262038547435D+03
 CCSD(T)
 CCSD(T)= -0.15264647631D+03

 The electronic state is 1-A'.
 Alpha  occ. eigenvalues --  -20.60850 -20.47188  -1.40108  -1.26223  -0.76303
 Alpha  occ. eigenvalues --   -0.73463  -0.57317  -0.56352  -0.47651  -0.43040
 Alpha virt. eigenvalues --    0.10986   0.17323   0.20251   0.33647   0.47011
 Alpha virt. eigenvalues --    0.53079   0.61670   0.65891   0.70071   0.72008
 Alpha virt. eigenvalues --    0.76869   0.79230   0.80476   0.82426   0.83867

 Mulliken charges:
               1
     1  O   -0.636778
     2  H    0.308452
     3  H    0.221302
     4  O   -0.398306
     5  H    0.259516
     6  H    0.245814
 Sum of Mulliken charges =  -0.00000

 Dipole moment (field-independent basis, Debye):
    X=             -1.2978    Y=             -4.5586    Z=             -0.0000  Tot=              4.7398
 Quadrupole moment (field-independent basis, Debye-Ang):
   XX=             -9.1083   YY=             -9.7141   ZZ=            -14.6407
   XY=             -2.9258   XZ=             -0.0000   YZ=              0.0000

 Normal termination of Gaussian 16 at Fri Aug 26 17:33:37 2022.
