 Gaussian 16, Revision A.03,
 Gaussian 16:  ES64L-G16RevA.03 25-Dec-2016

 ------------------
 #p CCSD(T)/cc-pVTZ
 ------------------

 ------------
 H2O_H2O_4393
 ------------
 Symbolic Z-matrix:
 Charge =  0 Multiplicity = 1

                         Standard orientation:
 ---------------------------------------------------------------------
 Center     Atomic      Atomic             Coordinates (Angstroms)
 Number     Number       Type             X           Y           Z
 ---------------------------------------------------------------------
      1          8           0        0.033754    2.856279   -0.000000
      2          1           0        0.031939    1.873679   -0.000000
      3          1           0       -0.895149    3.176661    0.000000
      4          8           0        0.033754   -2.678728   -0.000000
      5          1           0        0.940864   -3.056429   -0.000000
      6          1           0       -0.617718   -3.414317    0.000000
 ---------------------------------------------------------------------

 SCF Done:  E(RHF) =  -152.108538769     A.U. after   10 cycles
 E2 =    -0.5258019788D+00 EUMP2 =    -0.15263434074830D+03
 CCSD(T)
 CCSD(T)= -0.15266153486D+03

 The electronic state is 1-A'.
 Alpha  occ. eigenvalues --  -20.56202 -20.54931  -1.33503  -1.32240  -0.70906
 Alpha  occ. eigenvalues --   -0.69643  -0.57001  -0.55714  -0.50623  -0.49365
 Alpha virt. eigenvalues --    0.13299   0.14991   0.19656   0.21128   0.53595
 Alpha virt. eigenvalues --    0.54887   0.56658   0.57807   0.66779   0.68817
 Alpha virt. eigenvalues --    0.78264   0.79489   0.79531   0.80195   0.82720

 Mulliken charges:
               1
     1  O   -0.514589
     2  H    0.260557
     3  H    0.253860
     4  O   -0.515203
     5  H    0.258042
     6  H    0.257333
 Sum of Mulliken charges =  -0.00000

 Dipole moment (field-independent basis, Debye):
    X=             -1.1577    Y=             -3.1195    Z=              0.0000  Tot=              3.3274
 Quadrupole moment (field-independent basis, Debye-Ang):
   XX=             -9.1867   YY=             -6.4417   ZZ=            -14.7152
   XY=             -6.3606   XZ=             -0.0000   YZ=              0.0000

 Normal termination of Gaussian 16 at Sun Aug 28 02:27:44 2022.
