 Gaussian 16, Revision A.03,
 Gaussian 16:  ES64L-G16RevA.03 25-Dec-2016

 ------------------
 #p CCSD(T)/cc-pVTZ
 ------------------

 ------------
 H2O_H2O_1875
 ------------
 Symbolic Z-matrix:
 Charge =  0 Multiplicity = 1

                         Standard orientation:
 ---------------------------------------------------------------------
 Center     Atomic      Atomic             Coordinates (Angstroms)
 Number     Number       Type             X           Y           Z
 ---------------------------------------------------------------------
      1          8           0        0.092949   -1.834767    0.000000
      2          1           0        0.092949   -0.852165    0.000000
      3          1           0       -0.836544   -2.153433    0.000000
      4          8           0        0.092949    1.701979    0.000000
      5          1           0        0.092950    2.684582    0.000000
      6          1           0       -0.836544    1.383313    0.000000
 ---------------------------------------------------------------------

 SCF Done:  E(RHF) =  -152.108889984     A.U. after   10 cycles
 E2 =    -0.5269231151D+00 EUMP2 =    -0.15263581309897D+03
 CCSD(T)
 CCSD(T)= -0.15266294218D+03

 The electronic state is 1-A'.
 Alpha  occ. eigenvalues --  -20.57424 -20.54780  -1.34732  -1.32094  -0.72320
 Alpha  occ. eigenvalues --   -0.69376  -0.58222  -0.55508  -0.51816  -0.49201
 Alpha virt. eigenvalues --    0.11444   0.16142   0.20316   0.26030   0.51533
 Alpha virt. eigenvalues --    0.55147   0.57275   0.57409   0.67895   0.73967
 Alpha virt. eigenvalues --    0.75513   0.78307   0.79999   0.82579   0.83131

 Mulliken charges:
               1
     1  O   -0.515714
     2  H    0.266947
     3  H    0.243338
     4  O   -0.495359
     5  H    0.256983
     6  H    0.243805
 Sum of Mulliken charges =  -0.00000

 Dipole moment (field-independent basis, Debye):
    X=             -3.1263    Y=              2.5004    Z=              0.0000  Tot=              4.0032
 Quadrupole moment (field-independent basis, Debye-Ang):
   XX=            -10.8859   YY=             -9.1476   ZZ=            -14.7131
   XY=              2.1313   XZ=              0.0000   YZ=              0.0000

 2634\MP4DQ=-152.6446442\MP4SDQ=-152.6477718\CCSD=-152.64715\CCSD(T)=-1
 Normal termination of Gaussian 16 at Sun Aug 28 02:21:57 2022.
