 Gaussian 16, Revision A.03,
 Gaussian 16:  ES64L-G16RevA.03 25-Dec-2016

 ------------------
 #p CCSD(T)/cc-pVTZ
 ------------------

 ------------
 H2O_H2O_4094
 ------------
 Symbolic Z-matrix:
 Charge =  0 Multiplicity = 1

                         Standard orientation:
 ---------------------------------------------------------------------
 Center     Atomic      Atomic             Coordinates (Angstroms)
 Number     Number       Type             X           Y           Z
 ---------------------------------------------------------------------
      1          8           0        0.030158    2.735572    0.000000
      2          1           0        0.028146    1.752973    0.000000
      3          1           0       -0.898680    3.056141    0.000000
      4          8           0        0.030158   -2.559944   -0.000000
      5          1           0        0.959965   -2.877695   -0.000000
      6          1           0       -0.571963   -3.336446   -0.000000
 ---------------------------------------------------------------------

 SCF Done:  E(RHF) =  -152.108731027     A.U. after   10 cycles
 E2 =    -0.5258073089D+00 EUMP2 =    -0.15263453833559D+03
 CCSD(T)
 CCSD(T)= -0.15266172570D+03

 The electronic state is 1-A'.
 Alpha  occ. eigenvalues --  -20.56264 -20.54872  -1.33563  -1.32182  -0.70967
 Alpha  occ. eigenvalues --   -0.69585  -0.57068  -0.55660  -0.50685  -0.49309
 Alpha virt. eigenvalues --    0.13104   0.15147   0.19578   0.21337   0.53476
 Alpha virt. eigenvalues --    0.54974   0.56619   0.57829   0.66683   0.69006
 Alpha virt. eigenvalues --    0.78207   0.79253   0.79541   0.80153   0.82824

 Mulliken charges:
               1
     1  O   -0.515395
     2  H    0.261095
     3  H    0.253942
     4  O   -0.515793
     5  H    0.258303
     6  H    0.257849
 Sum of Mulliken charges =  -0.00000

 Dipole moment (field-independent basis, Debye):
    X=             -1.0338    Y=             -3.0956    Z=             -0.0000  Tot=              3.2637
 Quadrupole moment (field-independent basis, Debye-Ang):
   XX=             -9.2300   YY=             -6.7224   ZZ=            -14.7159
   XY=             -6.3194   XZ=             -0.0000   YZ=             -0.0000

 Normal termination of Gaussian 16 at Sat Aug 27 23:27:05 2022.
