 Gaussian 16, Revision A.03,
 Gaussian 16:  ES64L-G16RevA.03 25-Dec-2016

 ------------------
 #p CCSD(T)/cc-pVTZ
 ------------------

 ------------
 H2O_H2O_3235
 ------------
 Symbolic Z-matrix:
 Charge =  0 Multiplicity = 1

                         Standard orientation:
 ---------------------------------------------------------------------
 Center     Atomic      Atomic             Coordinates (Angstroms)
 Number     Number       Type             X           Y           Z
 ---------------------------------------------------------------------
      1          8           0        0.063234    2.396459   -0.000000
      2          1           0        0.062142    1.413858   -0.000000
      3          1           0       -0.865904    2.716159   -0.000000
      4          8           0        0.063234   -2.220949    0.000000
      5          1           0        0.660538   -3.001163    0.000000
      6          1           0       -0.868522   -2.532937    0.000000
 ---------------------------------------------------------------------

 SCF Done:  E(RHF) =  -152.109259472     A.U. after   10 cycles
 E2 =    -0.5259202781D+00 EUMP2 =    -0.15263517974964D+03
 CCSD(T)
 CCSD(T)= -0.15266233953D+03

 The electronic state is 1-A'.
 Alpha  occ. eigenvalues --  -20.56549 -20.54619  -1.33835  -1.31934  -0.71241
 Alpha  occ. eigenvalues --   -0.69324  -0.57354  -0.55412  -0.50959  -0.49063
 Alpha virt. eigenvalues --    0.12505   0.15687   0.19479   0.22191   0.53390
 Alpha virt. eigenvalues --    0.55205   0.56373   0.58308   0.67516   0.69340
 Alpha virt. eigenvalues --    0.77947   0.78854   0.79774   0.79775   0.83062

 Mulliken charges:
               1
     1  O   -0.516212
     2  H    0.263207
     3  H    0.251037
     4  O   -0.513848
     5  H    0.260090
     6  H    0.255727
 Sum of Mulliken charges =  -0.00000

 Dipole moment (field-independent basis, Debye):
    X=             -2.1581    Y=             -3.1413    Z=              0.0000  Tot=              3.8112
 Quadrupole moment (field-independent basis, Debye-Ang):
   XX=             -9.4570   YY=             -7.2276   ZZ=            -14.7178
   XY=             -4.1454   XZ=              0.0000   YZ=             -0.0000

 CCSD(T)=-152.6623395\RMSD=6.990e-09\PG=CS [SG(H4O2)]\\@
 Normal termination of Gaussian 16 at Fri Aug 26 20:33:15 2022.
