 Gaussian 16, Revision A.03,
 Gaussian 16:  ES64L-G16RevA.03 25-Dec-2016

 ------------------
 #p CCSD(T)/cc-pVTZ
 ------------------

 -----------
 H2O_H2O_842
 -----------
 Symbolic Z-matrix:
 Charge =  0 Multiplicity = 1

                         Standard orientation:
 ---------------------------------------------------------------------
 Center     Atomic      Atomic             Coordinates (Angstroms)
 Number     Number       Type             X           Y           Z
 ---------------------------------------------------------------------
      1          8           0        0.037574    1.440983    0.000000
      2          1           0        0.034088    0.458388    0.000000
      3          1           0       -0.890783    1.762945    0.000000
      4          8           0        0.037574   -1.262127   -0.000000
      5          1           0        0.917296   -1.699843   -0.000000
      6          1           0       -0.661787   -1.952344   -0.000000
 ---------------------------------------------------------------------

 SCF Done:  E(RHF) =  -152.111579803     A.U. after   10 cycles
 E2 =    -0.5293732953D+00 EUMP2 =    -0.15264095309817D+03
 CCSD(T)
 CCSD(T)= -0.15266768510D+03

 The electronic state is 1-A'.
 Alpha  occ. eigenvalues --  -20.59208 -20.50822  -1.36903  -1.28702  -0.74028
 Alpha  occ. eigenvalues --   -0.68570  -0.59712  -0.53883  -0.51476  -0.45781
 Alpha virt. eigenvalues --    0.11732   0.18250   0.18968   0.32804   0.48086
 Alpha virt. eigenvalues --    0.54444   0.57533   0.62975   0.68754   0.72153
 Alpha virt. eigenvalues --    0.72502   0.77790   0.81888   0.83028   0.84528

 Mulliken charges:
               1
     1  O   -0.584130
     2  H    0.304409
     3  H    0.239560
     4  O   -0.479254
     5  H    0.265176
     6  H    0.254238
 Sum of Mulliken charges =  -0.00000

 Dipole moment (field-independent basis, Debye):
    X=             -1.2324    Y=             -3.9041    Z=             -0.0000  Tot=              4.0940
 Quadrupole moment (field-independent basis, Debye-Ang):
   XX=             -9.1459   YY=             -8.9623   ZZ=            -14.7152
   XY=             -3.3843   XZ=             -0.0000   YZ=              0.0000

 Normal termination of Gaussian 16 at Fri Aug 26 20:50:51 2022.
