 Gaussian 16, Revision A.03,
 Gaussian 16:  ES64L-G16RevA.03 25-Dec-2016

 ------------------
 #p CCSD(T)/cc-pVTZ
 ------------------

 ------------
 H2O_H2O_1225
 ------------
 Symbolic Z-matrix:
 Charge =  0 Multiplicity = 1

                         Standard orientation:
 ---------------------------------------------------------------------
 Center     Atomic      Atomic             Coordinates (Angstroms)
 Number     Number       Type             X           Y           Z
 ---------------------------------------------------------------------
      1          8           0        0.092949   -1.575496    0.000000
      2          1           0        0.092949   -0.592895    0.000000
      3          1           0       -0.836544   -1.894163    0.000000
      4          8           0        0.092949    1.442709    0.000000
      5          1           0        0.092949    2.425311    0.000000
      6          1           0       -0.836544    1.124043    0.000000
 ---------------------------------------------------------------------

 SCF Done:  E(RHF) =  -152.107801623     A.U. after   10 cycles
 E2 =    -0.5285964546D+00 EUMP2 =    -0.15263639807786D+03
 CCSD(T)
 CCSD(T)= -0.15266345023D+03

 The electronic state is 1-A'.
 Alpha  occ. eigenvalues --  -20.58269 -20.54086  -1.35757  -1.31503  -0.73809
 Alpha  occ. eigenvalues --   -0.68620  -0.59138  -0.54796  -0.52739  -0.48578
 Alpha virt. eigenvalues --    0.11468   0.16344   0.20668   0.29261   0.48788
 Alpha virt. eigenvalues --    0.53540   0.57941   0.59411   0.67923   0.72378
 Alpha virt. eigenvalues --    0.73968   0.78226   0.80670   0.81250   0.83137

 Mulliken charges:
               1
     1  O   -0.525600
     2  H    0.277468
     3  H    0.235235
     4  O   -0.463825
     5  H    0.241833
     6  H    0.234890
 Sum of Mulliken charges =  -0.00000

 Dipole moment (field-independent basis, Debye):
    X=             -3.0820    Y=              2.6863    Z=              0.0000  Tot=              4.0884
 Quadrupole moment (field-independent basis, Debye-Ang):
   XX=            -10.9029   YY=             -9.1761   ZZ=            -14.7011
   XY=              2.1006   XZ=              0.0000   YZ=              0.0000

 Normal termination of Gaussian 16 at Fri Aug 26 23:14:09 2022.
