 Gaussian 16, Revision A.03,
 Gaussian 16:  ES64L-G16RevA.03 25-Dec-2016

 ------------------
 #p CCSD(T)/cc-pVTZ
 ------------------

 ------------
 H2O_H2O_1967
 ------------
 Symbolic Z-matrix:
 Charge =  0 Multiplicity = 1

                         Standard orientation:
 ---------------------------------------------------------------------
 Center     Atomic      Atomic             Coordinates (Angstroms)
 Number     Number       Type             X           Y           Z
 ---------------------------------------------------------------------
      1          8           0        0.037495    1.889751   -0.000000
      2          1           0        0.034878    0.907153   -0.000000
      3          1           0       -0.891146    2.210892   -0.000000
      4          8           0        0.037495   -1.710828    0.000000
      5          1           0        0.917604   -2.147767    0.000000
      6          1           0       -0.661255   -2.401664    0.000000
 ---------------------------------------------------------------------

 SCF Done:  E(RHF) =  -152.112553449     A.U. after   10 cycles
 E2 =    -0.5264328380D+00 EUMP2 =    -0.15263898628733D+03
 CCSD(T)
 CCSD(T)= -0.15266604467D+03

 The electronic state is 1-A'.
 Alpha  occ. eigenvalues --  -20.57386 -20.53632  -1.34639  -1.30998  -0.72019
 Alpha  occ. eigenvalues --   -0.68441  -0.58350  -0.54453  -0.51779  -0.48153
 Alpha virt. eigenvalues --    0.12237   0.17081   0.19131   0.26455   0.51731
 Alpha virt. eigenvalues --    0.54832   0.56394   0.58990   0.69090   0.72429
 Alpha virt. eigenvalues --    0.76123   0.77558   0.80780   0.83420   0.84403

 Mulliken charges:
               1
     1  O   -0.531403
     2  H    0.269644
     3  H    0.250068
     4  O   -0.508691
     5  H    0.262257
     6  H    0.258125
 Sum of Mulliken charges =  -0.00000

 Dipole moment (field-independent basis, Debye):
    X=             -1.2683    Y=             -3.3752    Z=              0.0000  Tot=              3.6056
 Quadrupole moment (field-independent basis, Debye-Ang):
   XX=             -9.1609   YY=             -7.9199   ZZ=            -14.7299
   XY=             -4.2834   XZ=              0.0000   YZ=             -0.0000

 Normal termination of Gaussian 16 at Sun Aug 28 03:13:33 2022.
