 Gaussian 16, Revision A.03,
 Gaussian 16:  ES64L-G16RevA.03 25-Dec-2016

 ------------------
 #p CCSD(T)/cc-pVTZ
 ------------------

 ------------
 H2O_H2O_2452
 ------------
 Symbolic Z-matrix:
 Charge =  0 Multiplicity = 1

                         Standard orientation:
 ---------------------------------------------------------------------
 Center     Atomic      Atomic             Coordinates (Angstroms)
 Number     Number       Type             X           Y           Z
 ---------------------------------------------------------------------
      1          8           0        0.088233   -2.070383    0.000000
      2          1           0        0.088033   -1.087781    0.000000
      3          1           0       -0.841195   -2.389239    0.000000
      4          8           0        0.088233    1.926067    0.000000
      5          1           0        0.216290    2.900289    0.000000
      6          1           0       -0.874863    1.731254    0.000000
 ---------------------------------------------------------------------

 SCF Done:  E(RHF) =  -152.108998684     A.U. after   10 cycles
 E2 =    -0.5262940733D+00 EUMP2 =    -0.15263529275736D+03
 CCSD(T)
 CCSD(T)= -0.15266243838D+03

 The electronic state is 1-A'.
 Alpha  occ. eigenvalues --  -20.56959 -20.54805  -1.34245  -1.32114  -0.71697
 Alpha  occ. eigenvalues --   -0.69477  -0.57744  -0.55564  -0.51355  -0.49232
 Alpha virt. eigenvalues --    0.11620   0.15965   0.19734   0.24124   0.53501
 Alpha virt. eigenvalues --    0.55608   0.56514   0.57886   0.68522   0.71114
 Alpha virt. eigenvalues --    0.77268   0.79273   0.79702   0.80286   0.83222

 Mulliken charges:
               1
     1  O   -0.514378
     2  H    0.263551
     3  H    0.247138
     4  O   -0.505037
     5  H    0.259217
     6  H    0.249510
 Sum of Mulliken charges =  -0.00000

 Dipole moment (field-independent basis, Debye):
    X=             -2.9913    Y=              2.6385    Z=              0.0000  Tot=              3.9887
 Quadrupole moment (field-independent basis, Debye-Ang):
   XX=            -10.5726   YY=             -8.7231   ZZ=            -14.7156
   XY=              2.5364   XZ=              0.0000   YZ=              0.0000

 Normal termination of Gaussian 16 at Sun Aug 28 07:25:22 2022.
