 Gaussian 16, Revision A.03,
 Gaussian 16:  ES64L-G16RevA.03 25-Dec-2016

 ------------------
 #p CCSD(T)/cc-pVTZ
 ------------------

 -----------
 H2O_H2O_520
 -----------
 Symbolic Z-matrix:
 Charge =  0 Multiplicity = 1

                         Standard orientation:
 ---------------------------------------------------------------------
 Center     Atomic      Atomic             Coordinates (Angstroms)
 Number     Number       Type             X           Y           Z
 ---------------------------------------------------------------------
      1          8           0        0.026844    1.308231    0.000000
      2          1           0        0.022238    0.325641    0.000000
      3          1           0       -0.901146    1.631251    0.000000
      4          8           0        0.026844   -1.135122   -0.000000
      5          1           0        0.974762   -1.393883   -0.000000
      6          1           0       -0.525351   -1.947887   -0.000000
 ---------------------------------------------------------------------

 SCF Done:  E(RHF) =  -152.100106578     A.U. after   11 cycles
 E2 =    -0.5316149253D+00 EUMP2 =    -0.15263172150313D+03
 CCSD(T)
 CCSD(T)= -0.15265810913D+03

 The electronic state is 1-A'.
 Alpha  occ. eigenvalues --  -20.60104 -20.48994  -1.38616  -1.27437  -0.75887
 Alpha  occ. eigenvalues --   -0.70241  -0.58926  -0.55217  -0.49500  -0.44406
 Alpha virt. eigenvalues --    0.11416   0.17924   0.19611   0.33851   0.47455
 Alpha virt. eigenvalues --    0.53620   0.59107   0.67878   0.68843   0.72231
 Alpha virt. eigenvalues --    0.74122   0.77665   0.79962   0.83844   0.83862

 Mulliken charges:
               1
     1  O   -0.617578
     2  H    0.304281
     3  H    0.235506
     4  O   -0.424963
     5  H    0.261350
     6  H    0.241403
 Sum of Mulliken charges =  -0.00000

 Dipole moment (field-independent basis, Debye):
    X=             -0.8663    Y=             -4.1430    Z=             -0.0000  Tot=              4.2326
 Quadrupole moment (field-independent basis, Debye-Ang):
   XX=             -9.2468   YY=             -9.3865   ZZ=            -14.6709
   XY=             -3.1975   XZ=             -0.0000   YZ=              0.0000

 Normal termination of Gaussian 16 at Fri Aug 26 18:48:15 2022.
