 Gaussian 16, Revision A.03,
 Gaussian 16:  ES64L-G16RevA.03 25-Dec-2016

 ------------------
 #p CCSD(T)/cc-pVTZ
 ------------------

 ------------
 H2O_H2O_1011
 ------------
 Symbolic Z-matrix:
 Charge =  0 Multiplicity = 1

                         Standard orientation:
 ---------------------------------------------------------------------
 Center     Atomic      Atomic             Coordinates (Angstroms)
 Number     Number       Type             X           Y           Z
 ---------------------------------------------------------------------
      1          8           0        0.059708    1.509964   -0.000000
      2          1           0        0.057718    0.527365   -0.000000
      3          1           0       -0.869138    1.830512   -0.000000
      4          8           0        0.059708   -1.332609    0.000000
      5          1           0        0.706085   -2.072678    0.000000
      6          1           0       -0.849988   -1.704040    0.000000
 ---------------------------------------------------------------------

 SCF Done:  E(RHF) =  -152.112783439     A.U. after   10 cycles
 E2 =    -0.5287107470D+00 EUMP2 =    -0.15264149418634D+03
 CCSD(T)
 CCSD(T)= -0.15266834411D+03

 The electronic state is 1-A'.
 Alpha  occ. eigenvalues --  -20.58819 -20.51745  -1.36325  -1.29420  -0.73585
 Alpha  occ. eigenvalues --   -0.68145  -0.59677  -0.53369  -0.52451  -0.46522
 Alpha virt. eigenvalues --    0.11734   0.17588   0.19290   0.31779   0.48303
 Alpha virt. eigenvalues --    0.54638   0.57917   0.59949   0.69847   0.72248
 Alpha virt. eigenvalues --    0.72739   0.77114   0.82189   0.82591   0.84668

 Mulliken charges:
               1
     1  O   -0.563170
     2  H    0.297233
     3  H    0.236918
     4  O   -0.486583
     5  H    0.260616
     6  H    0.254986
 Sum of Mulliken charges =  -0.00000

 Dipole moment (field-independent basis, Debye):
    X=             -1.9679    Y=             -3.7274    Z=              0.0000  Tot=              4.2150
 Quadrupole moment (field-independent basis, Debye-Ang):
   XX=             -9.3752   YY=             -8.7558   ZZ=            -14.7230
   XY=             -3.2569   XZ=              0.0000   YZ=             -0.0000

 CCSD(T)=-152.6683441\RMSD=7.718e-09\PG=CS [SG(H4O2)]\\@
 Normal termination of Gaussian 16 at Fri Aug 26 21:53:45 2022.
