 Gaussian 16, Revision A.03,
 Gaussian 16:  ES64L-G16RevA.03 25-Dec-2016

 ------------------
 #p CCSD(T)/cc-pVTZ
 ------------------

 ------------
 H2O_H2O_1341
 ------------
 Symbolic Z-matrix:
 Charge =  0 Multiplicity = 1

                         Standard orientation:
 ---------------------------------------------------------------------
 Center     Atomic      Atomic             Coordinates (Angstroms)
 Number     Number       Type             X           Y           Z
 ---------------------------------------------------------------------
      1          8           0        0.041222    1.640957    0.000000
      2          1           0        0.038387    0.658360    0.000000
      3          1           0       -0.887347    1.962305    0.000000
      4          8           0        0.041222   -1.461108   -0.000000
      5          1           0        0.890760   -1.954862   -0.000000
      6          1           0       -0.701358   -2.104600   -0.000000
 ---------------------------------------------------------------------

 SCF Done:  E(RHF) =  -152.114238796     A.U. after   10 cycles
 E2 =    -0.5274858781D+00 EUMP2 =    -0.15264172467387D+03
 CCSD(T)
 CCSD(T)= -0.15266868666D+03

 The electronic state is 1-A'.
 Alpha  occ. eigenvalues --  -20.58196 -20.52557  -1.35519  -1.30059  -0.72830
 Alpha  occ. eigenvalues --   -0.67916  -0.59337  -0.53325  -0.52639  -0.47205
 Alpha virt. eigenvalues --    0.12032   0.17887   0.18862   0.30024   0.49573
 Alpha virt. eigenvalues --    0.54581   0.55955   0.60287   0.68826   0.71848
 Alpha virt. eigenvalues --    0.73702   0.77003   0.81868   0.82865   0.84916

 Mulliken charges:
               1
     1  O   -0.549665
     2  H    0.283171
     3  H    0.245713
     4  O   -0.504281
     5  H    0.266075
     6  H    0.258987
 Sum of Mulliken charges =  -0.00000

 Dipole moment (field-independent basis, Debye):
    X=             -1.3773    Y=             -3.5953    Z=             -0.0000  Tot=              3.8501
 Quadrupole moment (field-independent basis, Debye-Ang):
   XX=             -9.1504   YY=             -8.4185   ZZ=            -14.7351
   XY=             -3.7322   XZ=             -0.0000   YZ=             -0.0000

 CCSD(T)=-152.6686867\RMSD=6.659e-09\PG=CS [SG(H4O2)]\\@
 Normal termination of Gaussian 16 at Fri Aug 26 23:58:11 2022.
