 Gaussian 16, Revision A.03,
 Gaussian 16:  ES64L-G16RevA.03 25-Dec-2016

 ------------------
 #p CCSD(T)/cc-pVTZ
 ------------------

 ------------
 H2O_H2O_1138
 ------------
 Symbolic Z-matrix:
 Charge =  0 Multiplicity = 1

                         Standard orientation:
 ---------------------------------------------------------------------
 Center     Atomic      Atomic             Coordinates (Angstroms)
 Number     Number       Type             X           Y           Z
 ---------------------------------------------------------------------
      1          8           0        0.052374    1.561155    0.000000
      2          1           0        0.050028    0.578557    0.000000
      3          1           0       -0.876356    1.882039    0.000000
      4          8           0        0.052374   -1.381352   -0.000000
      5          1           0        0.789584   -2.030988   -0.000000
      6          1           0       -0.801234   -1.868034   -0.000000
 ---------------------------------------------------------------------

 SCF Done:  E(RHF) =  -152.113828991     A.U. after   10 cycles
 E2 =    -0.5281531869D+00 EUMP2 =    -0.15264198217798D+03
 CCSD(T)
 CCSD(T)= -0.15266888381D+03

 The electronic state is 1-A'.
 Alpha  occ. eigenvalues --  -20.58566 -20.52048  -1.35974  -1.29646  -0.73231
 Alpha  occ. eigenvalues --   -0.67967  -0.59603  -0.53061  -0.52780  -0.46770
 Alpha virt. eigenvalues --    0.11865   0.17809   0.19039   0.31183   0.48684
 Alpha virt. eigenvalues --    0.54779   0.56696   0.60173   0.69502   0.71573
 Alpha virt. eigenvalues --    0.73057   0.77111   0.82300   0.82582   0.84902

 Mulliken charges:
               1
     1  O   -0.557828
     2  H    0.292015
     3  H    0.240716
     4  O   -0.497613
     5  H    0.264920
     6  H    0.257790
 Sum of Mulliken charges =   0.00000

 Dipole moment (field-independent basis, Debye):
    X=             -1.7361    Y=             -3.6986    Z=             -0.0000  Tot=              4.0858
 Quadrupole moment (field-independent basis, Debye-Ang):
   XX=             -9.2315   YY=             -8.6160   ZZ=            -14.7305
   XY=             -3.4334   XZ=             -0.0000   YZ=              0.0000

 Normal termination of Gaussian 16 at Fri Aug 26 22:41:21 2022.
