 Gaussian 16, Revision A.03,
 Gaussian 16:  ES64L-G16RevA.03 25-Dec-2016

 ------------------
 #p CCSD(T)/cc-pVTZ
 ------------------

 -----------
 H2O_H2O_795
 -----------
 Symbolic Z-matrix:
 Charge =  0 Multiplicity = 1

                         Standard orientation:
 ---------------------------------------------------------------------
 Center     Atomic      Atomic             Coordinates (Angstroms)
 Number     Number       Type             X           Y           Z
 ---------------------------------------------------------------------
      1          8           0        0.026810    1.417932   -0.000000
      2          1           0        0.022584    0.435340   -0.000000
      3          1           0       -0.901304    1.740593   -0.000000
      4          8           0        0.026810   -1.244801    0.000000
      5          1           0        0.974828   -1.503196    0.000000
      6          1           0       -0.525070   -2.057780    0.000000
 ---------------------------------------------------------------------

 SCF Done:  E(RHF) =  -152.110185791     A.U. after   10 cycles
 E2 =    -0.5296636655D+00 EUMP2 =    -0.15263984945642D+03
 CCSD(T)
 CCSD(T)= -0.15266654965D+03

 The electronic state is 1-A'.
 Alpha  occ. eigenvalues --  -20.59282 -20.50755  -1.37087  -1.28681  -0.74422
 Alpha  occ. eigenvalues --   -0.68510  -0.59798  -0.54014  -0.51373  -0.45755
 Alpha virt. eigenvalues --    0.11756   0.18345   0.18953   0.33069   0.48109
 Alpha virt. eigenvalues --    0.54341   0.57329   0.64882   0.68252   0.72400
 Alpha virt. eigenvalues --    0.73040   0.77383   0.81196   0.83310   0.84230

 Mulliken charges:
               1
     1  O   -0.589262
     2  H    0.301340
     3  H    0.242624
     4  O   -0.464232
     5  H    0.262987
     6  H    0.246542
 Sum of Mulliken charges =  -0.00000

 Dipole moment (field-independent basis, Debye):
    X=             -0.8829    Y=             -3.8288    Z=              0.0000  Tot=              3.9293
 Quadrupole moment (field-independent basis, Debye-Ang):
   XX=             -9.2682   YY=             -9.0228   ZZ=            -14.7070
   XY=             -3.4730   XZ=              0.0000   YZ=             -0.0000

 Normal termination of Gaussian 16 at Fri Aug 26 20:33:31 2022.
