 Gaussian 16, Revision A.03,
 Gaussian 16:  ES64L-G16RevA.03 25-Dec-2016

 ------------------
 #p CCSD(T)/cc-pVTZ
 ------------------

 ------------
 H2O_H2O_2369
 ------------
 Symbolic Z-matrix:
 Charge =  0 Multiplicity = 1

                         Standard orientation:
 ---------------------------------------------------------------------
 Center     Atomic      Atomic             Coordinates (Angstroms)
 Number     Number       Type             X           Y           Z
 ---------------------------------------------------------------------
      1          8           0        0.030221    2.047489   -0.000000
      2          1           0        0.027503    1.064892   -0.000000
      3          1           0       -0.898387    2.368726   -0.000000
      4          8           0        0.030221   -1.871904    0.000000
      5          1           0        0.959800   -2.190324    0.000000
      6          1           0       -0.572458   -2.647973    0.000000
 ---------------------------------------------------------------------

 SCF Done:  E(RHF) =  -152.111322279     A.U. after   10 cycles
 E2 =    -0.5261379137D+00 EUMP2 =    -0.15263746019290D+03
 CCSD(T)
 CCSD(T)= -0.15266455631D+03

 The electronic state is 1-A'.
 Alpha  occ. eigenvalues --  -20.57025 -20.54074  -1.34287  -1.31412  -0.71683
 Alpha  occ. eigenvalues --   -0.68821  -0.57906  -0.54899  -0.51424  -0.48561
 Alpha virt. eigenvalues --    0.12309   0.16597   0.19258   0.24705   0.52887
 Alpha virt. eigenvalues --    0.55382   0.56414   0.58737   0.69001   0.71313
 Alpha virt. eigenvalues --    0.77154   0.78655   0.80301   0.81975   0.83657

 Mulliken charges:
               1
     1  O   -0.525995
     2  H    0.266753
     3  H    0.252183
     4  O   -0.511242
     5  H    0.260639
     6  H    0.257662
 Sum of Mulliken charges =  -0.00000

 Dipole moment (field-independent basis, Debye):
    X=             -1.0278    Y=             -3.2370    Z=              0.0000  Tot=              3.3963
 Quadrupole moment (field-independent basis, Debye-Ang):
   XX=             -9.2298   YY=             -7.7284   ZZ=            -14.7246
   XY=             -4.8260   XZ=              0.0000   YZ=             -0.0000

 Normal termination of Gaussian 16 at Sun Aug 28 06:43:36 2022.
