 Gaussian 16, Revision A.03,
 Gaussian 16:  ES64L-G16RevA.03 25-Dec-2016

 ------------------
 #p CCSD(T)/cc-pVTZ
 ------------------

 ------------
 H2O_H2O_3690
 ------------
 Symbolic Z-matrix:
 Charge =  0 Multiplicity = 1

                         Standard orientation:
 ---------------------------------------------------------------------
 Center     Atomic      Atomic             Coordinates (Angstroms)
 Number     Number       Type             X           Y           Z
 ---------------------------------------------------------------------
      1          8           0        0.044843    2.578620    0.000000
      2          1           0        0.043203    1.596020    0.000000
      3          1           0       -0.884117    2.898837    0.000000
      4          8           0        0.044843   -2.398205   -0.000000
      5          1           0        0.860935   -2.945472   -0.000000
      6          1           0       -0.737511   -2.992703   -0.000000
 ---------------------------------------------------------------------

 SCF Done:  E(RHF) =  -152.109027039     A.U. after   10 cycles
 E2 =    -0.5258385094D+00 EUMP2 =    -0.15263486554866D+03
 CCSD(T)
 CCSD(T)= -0.15266204006D+03

 The electronic state is 1-A'.
 Alpha  occ. eigenvalues --  -20.56379 -20.54715  -1.33672  -1.32028  -0.71074
 Alpha  occ. eigenvalues --   -0.69426  -0.57187  -0.55508  -0.50795  -0.49156
 Alpha virt. eigenvalues --    0.12891   0.15403   0.19593   0.21590   0.53473
 Alpha virt. eigenvalues --    0.55007   0.56531   0.57919   0.66810   0.69268
 Alpha virt. eigenvalues --    0.78105   0.79224   0.79521   0.79685   0.82987

 Mulliken charges:
               1
     1  O   -0.516149
     2  H    0.262436
     3  H    0.252801
     4  O   -0.515768
     5  H    0.259401
     6  H    0.257280
 Sum of Mulliken charges =  -0.00000

 Dipole moment (field-independent basis, Debye):
    X=             -1.5340    Y=             -3.1999    Z=             -0.0000  Tot=              3.5485
 Quadrupole moment (field-independent basis, Debye-Ang):
   XX=             -9.1568   YY=             -6.7393   ZZ=            -14.7170
   XY=             -5.2498   XZ=             -0.0000   YZ=              0.0000

 Normal termination of Gaussian 16 at Fri Aug 26 23:07:55 2022.
