 Gaussian 16, Revision A.03,
 Gaussian 16:  ES64L-G16RevA.03 25-Dec-2016

 ------------------
 #p CCSD(T)/cc-pVTZ
 ------------------

 ------------
 H2O_H2O_3880
 ------------
 Symbolic Z-matrix:
 Charge =  0 Multiplicity = 1

                         Standard orientation:
 ---------------------------------------------------------------------
 Center     Atomic      Atomic             Coordinates (Angstroms)
 Number     Number       Type             X           Y           Z
 ---------------------------------------------------------------------
      1          8           0        0.079847    2.646798    0.000000
      2          1           0        0.079414    1.664196    0.000000
      3          1           0       -0.849505    2.965874    0.000000
      4          8           0        0.079847   -2.487727   -0.000000
      5          1           0        0.395284   -3.418320   -0.000000
      6          1           0       -0.902749   -2.484314   -0.000000
 ---------------------------------------------------------------------

 SCF Done:  E(RHF) =  -152.108242597     A.U. after   10 cycles
 E2 =    -0.5258767292D+00 EUMP2 =    -0.15263411932574D+03
 CCSD(T)
 CCSD(T)= -0.15266131413D+03

 The electronic state is 1-A'.
 Alpha  occ. eigenvalues --  -20.56336 -20.55015  -1.33635  -1.32322  -0.71047
 Alpha  occ. eigenvalues --   -0.69715  -0.57116  -0.55784  -0.50750  -0.49440
 Alpha virt. eigenvalues --    0.12626   0.15145   0.19290   0.21661   0.53226
 Alpha virt. eigenvalues --    0.55028   0.56499   0.57911   0.66721   0.68993
 Alpha virt. eigenvalues --    0.78148   0.78929   0.79419   0.80788   0.82658

 Mulliken charges:
               1
     1  O   -0.512075
     2  H    0.260105
     3  H    0.251516
     4  O   -0.512849
     5  H    0.259419
     6  H    0.253885
 Sum of Mulliken charges =  -0.00000

 Dipole moment (field-independent basis, Debye):
    X=             -2.7325    Y=             -2.8109    Z=             -0.0000  Tot=              3.9202
 Quadrupole moment (field-independent basis, Debye-Ang):
   XX=            -10.0963   YY=             -7.7186   ZZ=            -14.7140
   XY=             -3.3407   XZ=             -0.0000   YZ=              0.0000

 Normal termination of Gaussian 16 at Sat Aug 27 00:14:54 2022.
