 Gaussian 16, Revision A.03,
 Gaussian 16:  ES64L-G16RevA.03 25-Dec-2016

 ------------------
 #p CCSD(T)/cc-pVTZ
 ------------------

 ------------
 H2O_H2O_1405
 ------------
 Symbolic Z-matrix:
 Charge =  0 Multiplicity = 1

                         Standard orientation:
 ---------------------------------------------------------------------
 Center     Atomic      Atomic             Coordinates (Angstroms)
 Number     Number       Type             X           Y           Z
 ---------------------------------------------------------------------
      1          8           0        0.079869   -1.659554    0.000000
      2          1           0        0.079166   -0.676953    0.000000
      3          1           0       -0.849396   -1.978886    0.000000
      4          8           0        0.079869    1.500528    0.000000
      5          1           0        0.395051    2.431209    0.000000
      6          1           0       -0.902726    1.496845    0.000000
 ---------------------------------------------------------------------

 SCF Done:  E(RHF) =  -152.111470753     A.U. after   10 cycles
 E2 =    -0.5276106443D+00 EUMP2 =    -0.15263908139726D+03
 CCSD(T)
 CCSD(T)= -0.15266610214D+03

 The electronic state is 1-A'.
 Alpha  occ. eigenvalues --  -20.58045 -20.53494  -1.35395  -1.30914  -0.72936
 Alpha  occ. eigenvalues --   -0.68407  -0.59025  -0.54234  -0.52475  -0.48031
 Alpha virt. eigenvalues --    0.11708   0.16759   0.19772   0.28850   0.49374
 Alpha virt. eigenvalues --    0.54974   0.57720   0.58364   0.69337   0.73772
 Alpha virt. eigenvalues --    0.74559   0.76989   0.81226   0.82407   0.83907

 Mulliken charges:
               1
     1  O   -0.532980
     2  H    0.277938
     3  H    0.239572
     4  O   -0.485823
     5  H    0.251332
     6  H    0.249960
 Sum of Mulliken charges =  -0.00000

 Dipole moment (field-independent basis, Debye):
    X=             -2.6648    Y=              3.1420    Z=              0.0000  Tot=              4.1199
 Quadrupole moment (field-independent basis, Debye-Ang):
   XX=            -10.1351   YY=             -8.6162   ZZ=            -14.7217
   XY=              2.8691   XZ=              0.0000   YZ=              0.0000

 Normal termination of Gaussian 16 at Sat Aug 27 00:23:01 2022.
