 Gaussian 16, Revision A.03,
 Gaussian 16:  ES64L-G16RevA.03 25-Dec-2016

 ------------------
 #p CCSD(T)/cc-pVTZ
 ------------------

 -----------
 H2O_H2O_946
 -----------
 Symbolic Z-matrix:
 Charge =  0 Multiplicity = 1

                         Standard orientation:
 ---------------------------------------------------------------------
 Center     Atomic      Atomic             Coordinates (Angstroms)
 Number     Number       Type             X           Y           Z
 ---------------------------------------------------------------------
      1          8           0       -0.023351    1.476231    0.000000
      2          1           0       -0.019097    0.493638    0.000000
      3          1           0        0.904753    1.798919    0.000000
      4          8           0       -0.023351   -1.305922    0.000000
      5          1           0       -0.986234   -1.501789    0.000000
      6          1           0        0.474201   -2.153240    0.000000
 ---------------------------------------------------------------------

 SCF Done:  E(RHF) =  -152.112222167     A.U. after   10 cycles
 E2 =    -0.5288807956D+00 EUMP2 =    -0.15264110296234D+03
 CCSD(T)
 CCSD(T)= -0.15266791622D+03

 The electronic state is 1-A'.
 Alpha  occ. eigenvalues --  -20.58895 -20.51548  -1.36506  -1.29290  -0.73947
 Alpha  occ. eigenvalues --   -0.68030  -0.59893  -0.53511  -0.52208  -0.46400
 Alpha virt. eigenvalues --    0.11906   0.18402   0.18765   0.32348   0.48633
 Alpha virt. eigenvalues --    0.54560   0.56429   0.63746   0.68301   0.72552
 Alpha virt. eigenvalues --    0.73304   0.77017   0.81553   0.82877   0.84322

 Mulliken charges:
               1
     1  O   -0.576047
     2  H    0.294461
     3  H    0.246582
     4  O   -0.473568
     5  H    0.263020
     6  H    0.245552
 Sum of Mulliken charges =  -0.00000

 Dipole moment (field-independent basis, Debye):
    X=              0.7776    Y=             -3.6405    Z=              0.0000  Tot=              3.7227
 Quadrupole moment (field-independent basis, Debye-Ang):
   XX=             -9.3480   YY=             -8.8639   ZZ=            -14.7171
   XY=              3.6836   XZ=              0.0000   YZ=              0.0000

 Normal termination of Gaussian 16 at Fri Aug 26 21:29:56 2022.
