 Gaussian 16, Revision A.03,
 Gaussian 16:  ES64L-G16RevA.03 25-Dec-2016

 ------------------
 #p CCSD(T)/cc-pVTZ
 ------------------

 ------------
 H2O_H2O_2792
 ------------
 Symbolic Z-matrix:
 Charge =  0 Multiplicity = 1

                         Standard orientation:
 ---------------------------------------------------------------------
 Center     Atomic      Atomic             Coordinates (Angstroms)
 Number     Number       Type             X           Y           Z
 ---------------------------------------------------------------------
      1          8           0        0.037458    2.218839   -0.000000
      2          1           0        0.035246    1.236241   -0.000000
      3          1           0       -0.891315    2.539598   -0.000000
      4          8           0        0.037458   -2.039885    0.000000
      5          1           0        0.917746   -2.476462    0.000000
      6          1           0       -0.661008   -2.731009    0.000000
 ---------------------------------------------------------------------

 SCF Done:  E(RHF) =  -152.110359090     A.U. after   10 cycles
 E2 =    -0.5259791548D+00 EUMP2 =    -0.15263633824494D+03
 CCSD(T)
 CCSD(T)= -0.15266346502D+03

 The electronic state is 1-A'.
 Alpha  occ. eigenvalues --  -20.56757 -20.54320  -1.34029  -1.31646  -0.71426
 Alpha  occ. eigenvalues --   -0.69043  -0.57595  -0.55137  -0.51162  -0.48786
 Alpha virt. eigenvalues --    0.12435   0.16162   0.19386   0.23265   0.53087
 Alpha virt. eigenvalues --    0.55578   0.56376   0.58729   0.68966   0.69460
 Alpha virt. eigenvalues --    0.77692   0.79050   0.79778   0.80041   0.83404

 Mulliken charges:
               1
     1  O   -0.521450
     2  H    0.265239
     3  H    0.252133
     4  O   -0.513659
     5  H    0.260171
     6  H    0.257567
 Sum of Mulliken charges =  -0.00000

 Dipole moment (field-independent basis, Debye):
    X=             -1.2761    Y=             -3.2447    Z=              0.0000  Tot=              3.4867
 Quadrupole moment (field-independent basis, Debye-Ang):
   XX=             -9.1590   YY=             -7.3642   ZZ=            -14.7214
   XY=             -4.9189   XZ=              0.0000   YZ=              0.0000

 Normal termination of Gaussian 16 at Fri Aug 26 17:21:15 2022.
