 Gaussian 16, Revision A.03,
 Gaussian 16:  ES64L-G16RevA.03 25-Dec-2016

 ------------------
 #p CCSD(T)/cc-pVTZ
 ------------------

 -----------
 H2O_H2O_584
 -----------
 Symbolic Z-matrix:
 Charge =  0 Multiplicity = 1

                         Standard orientation:
 ---------------------------------------------------------------------
 Center     Atomic      Atomic             Coordinates (Angstroms)
 Number     Number       Type             X           Y           Z
 ---------------------------------------------------------------------
      1          8           0        0.066830    1.338074   -0.000000
      2          1           0        0.065054    0.355474   -0.000000
      3          1           0       -0.862085    1.658420   -0.000000
      4          8           0        0.066830   -1.165078    0.000000
      5          1           0        0.611257   -1.983066    0.000000
      6          1           0       -0.883510   -1.414797    0.000000
 ---------------------------------------------------------------------

 SCF Done:  E(RHF) =  -152.102756152     A.U. after   11 cycles
 E2 =    -0.5314374279D+00 EUMP2 =    -0.15263419357978D+03
 CCSD(T)
 CCSD(T)= -0.15266069061D+03

 The electronic state is 1-A'.
 Alpha  occ. eigenvalues --  -20.59933 -20.49834  -1.38189  -1.28050  -0.75440
 Alpha  occ. eigenvalues --   -0.69921  -0.58962  -0.54890  -0.50462  -0.45028
 Alpha virt. eigenvalues --    0.11285   0.17106   0.20025   0.33115   0.48083
 Alpha virt. eigenvalues --    0.53634   0.60150   0.62267   0.71233   0.72228
 Alpha virt. eigenvalues --    0.73598   0.78158   0.80332   0.83581   0.84135

 Mulliken charges:
               1
     1  O   -0.593680
     2  H    0.307205
     3  H    0.223647
     4  O   -0.430632
     5  H    0.247687
     6  H    0.245772
 Sum of Mulliken charges =   0.00000

 Dipole moment (field-independent basis, Debye):
    X=             -2.1451    Y=             -4.0290    Z=              0.0000  Tot=              4.5644
 Quadrupole moment (field-independent basis, Debye-Ang):
   XX=             -9.5721   YY=             -9.2642   ZZ=            -14.6771
   XY=             -2.9324   XZ=              0.0000   YZ=             -0.0000

 Normal termination of Gaussian 16 at Fri Aug 26 19:13:25 2022.
