 Gaussian 16, Revision A.03,
 Gaussian 16:  ES64L-G16RevA.03 25-Dec-2016

 ------------------
 #p CCSD(T)/cc-pVTZ
 ------------------

 ------------
 H2O_H2O_2170
 ------------
 Symbolic Z-matrix:
 Charge =  0 Multiplicity = 1

                         Standard orientation:
 ---------------------------------------------------------------------
 Center     Atomic      Atomic             Coordinates (Angstroms)
 Number     Number       Type             X           Y           Z
 ---------------------------------------------------------------------
      1          8           0        0.026701    1.966418   -0.000000
      2          1           0        0.023709    0.983821   -0.000000
      3          1           0       -0.901817    2.287914   -0.000000
      4          8           0        0.026701   -1.793221    0.000000
      5          1           0        0.975043   -2.050426    0.000000
      6          1           0       -0.524158   -2.606891    0.000000
 ---------------------------------------------------------------------

 SCF Done:  E(RHF) =  -152.111824471     A.U. after   10 cycles
 E2 =    -0.5262565501D+00 EUMP2 =    -0.15263808102105D+03
 CCSD(T)
 CCSD(T)= -0.15266516160D+03

 The electronic state is 1-A'.
 Alpha  occ. eigenvalues --  -20.57177 -20.53942  -1.34439  -1.31290  -0.71837
 Alpha  occ. eigenvalues --   -0.68710  -0.58093  -0.54766  -0.51576  -0.48443
 Alpha virt. eigenvalues --    0.12264   0.16809   0.19208   0.25523   0.52713
 Alpha virt. eigenvalues --    0.55037   0.56305   0.58759   0.68974   0.72125
 Alpha virt. eigenvalues --    0.76709   0.78417   0.80462   0.83549   0.83556

 Mulliken charges:
               1
     1  O   -0.528595
     2  H    0.267406
     3  H    0.252332
     4  O   -0.510219
     5  H    0.261076
     6  H    0.258001
 Sum of Mulliken charges =  -0.00000

 Dipole moment (field-independent basis, Debye):
    X=             -0.9078    Y=             -3.2247    Z=              0.0000  Tot=              3.3500
 Quadrupole moment (field-independent basis, Debye-Ang):
   XX=             -9.2892   YY=             -7.9109   ZZ=            -14.7266
   XY=             -4.7655   XZ=              0.0000   YZ=             -0.0000

 Normal termination of Gaussian 16 at Sun Aug 28 05:05:43 2022.
