 Gaussian 16, Revision A.03,
 Gaussian 16:  ES64L-G16RevA.03 25-Dec-2016

 ------------------
 #p CCSD(T)/cc-pVTZ
 ------------------

 ------------
 H2O_H2O_4347
 ------------
 Symbolic Z-matrix:
 Charge =  0 Multiplicity = 1

                         Standard orientation:
 ---------------------------------------------------------------------
 Center     Atomic      Atomic             Coordinates (Angstroms)
 Number     Number       Type             X           Y           Z
 ---------------------------------------------------------------------
      1          8           0       -0.019820    2.830673    0.000000
      2          1           0       -0.017562    1.848074    0.000000
      3          1           0        0.908938    3.151475    0.000000
      4          8           0       -0.019820   -2.663550    0.000000
      5          1           0       -0.993718   -2.794044    0.000000
      6          1           0        0.419465   -3.542490    0.000000
 ---------------------------------------------------------------------

 SCF Done:  E(RHF) =  -152.108534536     A.U. after   10 cycles
 E2 =    -0.5258004123D+00 EUMP2 =    -0.15263433494794D+03
 CCSD(T)
 CCSD(T)= -0.15266152947D+03

 The electronic state is 1-A'.
 Alpha  occ. eigenvalues --  -20.56208 -20.55001  -1.33510  -1.32309  -0.70915
 Alpha  occ. eigenvalues --   -0.69715  -0.57007  -0.55784  -0.50629  -0.49434
 Alpha virt. eigenvalues --    0.13173   0.14987   0.19468   0.21307   0.53427
 Alpha virt. eigenvalues --    0.54958   0.56655   0.57801   0.66769   0.68778
 Alpha virt. eigenvalues --    0.78258   0.79383   0.79421   0.80592   0.82622

 Mulliken charges:
               1
     1  O   -0.514734
     2  H    0.259942
     3  H    0.254620
     4  O   -0.515243
     5  H    0.257403
     6  H    0.258012
 Sum of Mulliken charges =  -0.00000

 Dipole moment (field-independent basis, Debye):
    X=              0.6808    Y=             -2.9364    Z=              0.0000  Tot=              3.0143
 Quadrupole moment (field-independent basis, Debye-Ang):
   XX=             -9.4473   YY=             -7.0583   ZZ=            -14.7151
   XY=              7.1991   XZ=              0.0000   YZ=              0.0000

 Normal termination of Gaussian 16 at Sun Aug 28 02:05:24 2022.
