 Gaussian 16, Revision A.03,
 Gaussian 16:  ES64L-G16RevA.03 25-Dec-2016

 ------------------
 #p CCSD(T)/cc-pVTZ
 ------------------

 ------------
 H2O_H2O_2575
 ------------
 Symbolic Z-matrix:
 Charge =  0 Multiplicity = 1

                         Standard orientation:
 ---------------------------------------------------------------------
 Center     Atomic      Atomic             Coordinates (Angstroms)
 Number     Number       Type             X           Y           Z
 ---------------------------------------------------------------------
      1          8           0        0.092949   -2.113981    0.000000
      2          1           0        0.092949   -1.131379    0.000000
      3          1           0       -0.836544   -2.432647    0.000000
      4          8           0        0.092949    1.981194    0.000000
      5          1           0        0.092949    2.963795    0.000000
      6          1           0       -0.836544    1.662526    0.000000
 ---------------------------------------------------------------------

 SCF Done:  E(RHF) =  -152.108338969     A.U. after   10 cycles
 E2 =    -0.5262656576D+00 EUMP2 =    -0.15263460462669D+03
 CCSD(T)
 CCSD(T)= -0.15266177166D+03

 The electronic state is 1-A'.
 Alpha  occ. eigenvalues --  -20.56876 -20.55061  -1.34168  -1.32362  -0.71627
 Alpha  occ. eigenvalues --   -0.69723  -0.57640  -0.55806  -0.51271  -0.49474
 Alpha virt. eigenvalues --    0.11422   0.15790   0.19765   0.24014   0.53741
 Alpha virt. eigenvalues --    0.55552   0.56475   0.57881   0.68342   0.70413
 Alpha virt. eigenvalues --    0.77440   0.78697   0.79461   0.80331   0.83116

 Mulliken charges:
               1
     1  O   -0.511814
     2  H    0.261970
     3  H    0.247605
     4  O   -0.504933
     5  H    0.259447
     6  H    0.247725
 Sum of Mulliken charges =  -0.00000

 Dipole moment (field-independent basis, Debye):
    X=             -3.1536    Y=              2.4125    Z=              0.0000  Tot=              3.9705
 Quadrupole moment (field-independent basis, Debye-Ang):
   XX=            -10.8668   YY=             -9.1888   ZZ=            -14.7130
   XY=              2.1451   XZ=              0.0000   YZ=              0.0000

 Normal termination of Gaussian 16 at Fri Aug 26 15:43:23 2022.
