 Gaussian 16, Revision A.03,
 Gaussian 16:  ES64L-G16RevA.03 25-Dec-2016

 ------------------
 #p CCSD(T)/cc-pVTZ
 ------------------

 ------------
 H2O_H2O_4402
 ------------
 Symbolic Z-matrix:
 Charge =  0 Multiplicity = 1

                         Standard orientation:
 ---------------------------------------------------------------------
 Center     Atomic      Atomic             Coordinates (Angstroms)
 Number     Number       Type             X           Y           Z
 ---------------------------------------------------------------------
      1          8           0        0.088229   -2.848198    0.000000
      2          1           0        0.088085   -1.865597    0.000000
      3          1           0       -0.841217   -3.167001    0.000000
      4          8           0        0.088229    2.703873    0.000000
      5          1           0        0.216342    3.678088    0.000000
      6          1           0       -0.874878    2.509114    0.000000
 ---------------------------------------------------------------------

 SCF Done:  E(RHF) =  -152.107794246     A.U. after   10 cycles
 E2 =    -0.5258682930D+00 EUMP2 =    -0.15263366253857D+03
 CCSD(T)
 CCSD(T)= -0.15266087281D+03

 The electronic state is 1-A'.
 Alpha  occ. eigenvalues --  -20.56225 -20.55245  -1.33526  -1.32547  -0.70940
 Alpha  occ. eigenvalues --   -0.69943  -0.56992  -0.56002  -0.50638  -0.49661
 Alpha virt. eigenvalues --    0.12819   0.14808   0.19063   0.21555   0.53251
 Alpha virt. eigenvalues --    0.54869   0.56553   0.57731   0.66863   0.68567
 Alpha virt. eigenvalues --    0.78254   0.79209   0.79523   0.81213   0.81936

 Mulliken charges:
               1
     1  O   -0.510280
     2  H    0.258121
     3  H    0.252063
     4  O   -0.511329
     5  H    0.258467
     6  H    0.252958
 Sum of Mulliken charges =  -0.00000

 Dipole moment (field-independent basis, Debye):
    X=             -3.0247    Y=              2.5346    Z=              0.0000  Tot=              3.9463
 Quadrupole moment (field-independent basis, Debye-Ang):
   XX=            -10.5501   YY=             -8.4918   ZZ=            -14.7124
   XY=              2.6742   XZ=              0.0000   YZ=              0.0000

 Normal termination of Gaussian 16 at Sun Aug 28 02:31:59 2022.
