 Gaussian 16, Revision A.03,
 Gaussian 16:  ES64L-G16RevA.03 25-Dec-2016

 ------------------
 #p CCSD(T)/cc-pVTZ
 ------------------

 ------------
 H2O_H2O_3243
 ------------
 Symbolic Z-matrix:
 Charge =  0 Multiplicity = 1

                         Standard orientation:
 ---------------------------------------------------------------------
 Center     Atomic      Atomic             Coordinates (Angstroms)
 Number     Number       Type             X           Y           Z
 ---------------------------------------------------------------------
      1          8           0        0.033787    2.397558    0.000000
      2          1           0        0.031612    1.414959    0.000000
      3          1           0       -0.894999    2.718281    0.000000
      4          8           0        0.033787   -2.220032   -0.000000
      5          1           0        0.940757   -2.598065   -0.000000
      6          1           0       -0.617954   -2.955382   -0.000000
 ---------------------------------------------------------------------

 SCF Done:  E(RHF) =  -152.109602395     A.U. after   10 cycles
 E2 =    -0.5258809830D+00 EUMP2 =    -0.15263548337795D+03
 CCSD(T)
 CCSD(T)= -0.15266263720D+03

 The electronic state is 1-A'.
 Alpha  occ. eigenvalues --  -20.56534 -20.54565  -1.33820  -1.31883  -0.71221
 Alpha  occ. eigenvalues --   -0.69283  -0.57355  -0.55371  -0.50947  -0.49017
 Alpha virt. eigenvalues --    0.12603   0.15751   0.19466   0.22277   0.53331
 Alpha virt. eigenvalues --    0.55341   0.56463   0.58219   0.67547   0.69354
 Alpha virt. eigenvalues --    0.77956   0.78884   0.79714   0.79814   0.83135

 Mulliken charges:
               1
     1  O   -0.518554
     2  H    0.263427
     3  H    0.253110
     4  O   -0.515588
     5  H    0.259542
     6  H    0.258063
 Sum of Mulliken charges =  -0.00000

 Dipole moment (field-independent basis, Debye):
    X=             -1.1542    Y=             -3.1768    Z=             -0.0000  Tot=              3.3800
 Quadrupole moment (field-independent basis, Debye-Ang):
   XX=             -9.1860   YY=             -7.1364   ZZ=            -14.7190
   XY=             -5.4226   XZ=             -0.0000   YZ=             -0.0000

 Normal termination of Gaussian 16 at Fri Aug 26 20:35:53 2022.
