 Gaussian 16, Revision A.03,
 Gaussian 16:  ES64L-G16RevA.03 25-Dec-2016

 ------------------
 #p CCSD(T)/cc-pVTZ
 ------------------

 ------------
 H2O_H2O_3118
 ------------
 Symbolic Z-matrix:
 Charge =  0 Multiplicity = 1

                         Standard orientation:
 ---------------------------------------------------------------------
 Center     Atomic      Atomic             Coordinates (Angstroms)
 Number     Number       Type             X           Y           Z
 ---------------------------------------------------------------------
      1          8           0        0.033791    2.347697   -0.000000
      2          1           0        0.031568    1.365098   -0.000000
      3          1           0       -0.894979    2.668465   -0.000000
      4          8           0        0.033791   -2.170174    0.000000
      5          1           0        0.940744   -2.548252    0.000000
      6          1           0       -0.617986   -2.905493    0.000000
 ---------------------------------------------------------------------

 SCF Done:  E(RHF) =  -152.109786718     A.U. after   10 cycles
 E2 =    -0.5259017944D+00 EUMP2 =    -0.15263568851231D+03
 CCSD(T)
 CCSD(T)= -0.15266283558D+03

 The electronic state is 1-A'.
 Alpha  occ. eigenvalues --  -20.56588 -20.54508  -1.33871  -1.31828  -0.71271
 Alpha  occ. eigenvalues --   -0.69227  -0.57413  -0.55318  -0.51000  -0.48964
 Alpha virt. eigenvalues --    0.12544   0.15858   0.19442   0.22514   0.53302
 Alpha virt. eigenvalues --    0.55424   0.56438   0.58349   0.67897   0.69348
 Alpha virt. eigenvalues --    0.77900   0.78928   0.79682   0.79865   0.83190

 Mulliken charges:
               1
     1  O   -0.519279
     2  H    0.263843
     3  H    0.252966
     4  O   -0.515234
     5  H    0.259685
     6  H    0.258019
 Sum of Mulliken charges =  -0.00000

 Dipole moment (field-independent basis, Debye):
    X=             -1.1536    Y=             -3.1868    Z=              0.0000  Tot=              3.3892
 Quadrupole moment (field-independent basis, Debye-Ang):
   XX=             -9.1860   YY=             -7.2119   ZZ=            -14.7196
   XY=             -5.3206   XZ=              0.0000   YZ=             -0.0000

 CCSD(T)=-152.6628356\RMSD=6.867e-09\PG=CS [SG(H4O2)]\\@
 Normal termination of Gaussian 16 at Fri Aug 26 19:52:04 2022.
