 Gaussian 16, Revision A.03,
 Gaussian 16:  ES64L-G16RevA.03 25-Dec-2016

 ------------------
 #p CCSD(T)/cc-pVTZ
 ------------------

 ------------
 H2O_H2O_1505
 ------------
 Symbolic Z-matrix:
 Charge =  0 Multiplicity = 1

                         Standard orientation:
 ---------------------------------------------------------------------
 Center     Atomic      Atomic             Coordinates (Angstroms)
 Number     Number       Type             X           Y           Z
 ---------------------------------------------------------------------
      1          8           0        0.079868   -1.699444    0.000000
      2          1           0        0.079181   -0.716843    0.000000
      3          1           0       -0.849403   -2.018759    0.000000
      4          8           0        0.079868    1.540414    0.000000
      5          1           0        0.395065    2.471089    0.000000
      6          1           0       -0.902727    1.536749    0.000000
 ---------------------------------------------------------------------

 SCF Done:  E(RHF) =  -152.111431843     A.U. after   10 cycles
 E2 =    -0.5273635712D+00 EUMP2 =    -0.15263879541445D+03
 CCSD(T)
 CCSD(T)= -0.15266583368D+03

 The electronic state is 1-A'.
 Alpha  occ. eigenvalues --  -20.57901 -20.53657  -1.35226  -1.31053  -0.72744
 Alpha  occ. eigenvalues --   -0.68501  -0.58865  -0.54405  -0.52318  -0.48175
 Alpha virt. eigenvalues --    0.11732   0.16722   0.19744   0.28264   0.49717
 Alpha virt. eigenvalues --    0.55115   0.57400   0.58288   0.69289   0.74193
 Alpha virt. eigenvalues --    0.74435   0.77177   0.81042   0.82605   0.83871

 Mulliken charges:
               1
     1  O   -0.530103
     2  H    0.275425
     3  H    0.240778
     4  O   -0.490822
     5  H    0.254023
     6  H    0.250699
 Sum of Mulliken charges =  -0.00000

 Dipole moment (field-independent basis, Debye):
    X=             -2.6716    Y=              3.1066    Z=              0.0000  Tot=              4.0973
 Quadrupole moment (field-independent basis, Debye-Ang):
   XX=            -10.1331   YY=             -8.5659   ZZ=            -14.7228
   XY=              2.8906   XZ=              0.0000   YZ=              0.0000

 Normal termination of Gaussian 16 at Sat Aug 27 00:59:35 2022.
