 Gaussian 16, Revision A.03,
 Gaussian 16:  ES64L-G16RevA.03 25-Dec-2016

 ------------------
 #p CCSD(T)/cc-pVTZ
 ------------------

 ------------
 H2O_H2O_4003
 ------------
 Symbolic Z-matrix:
 Charge =  0 Multiplicity = 1

                         Standard orientation:
 ---------------------------------------------------------------------
 Center     Atomic      Atomic             Coordinates (Angstroms)
 Number     Number       Type             X           Y           Z
 ---------------------------------------------------------------------
      1          8           0        0.085598   -2.691515    0.000000
      2          1           0        0.085360   -1.708913    0.000000
      3          1           0       -0.843818   -3.010406    0.000000
      4          8           0        0.085598    2.541911    0.000000
      5          1           0        0.277060    3.505679    0.000000
      6          1           0       -0.888172    2.410467    0.000000
 ---------------------------------------------------------------------

 SCF Done:  E(RHF) =  -152.107997560     A.U. after   10 cycles
 E2 =    -0.5258821673D+00 EUMP2 =    -0.15263387972764D+03
 CCSD(T)
 CCSD(T)= -0.15266108198D+03

 The electronic state is 1-A'.
 Alpha  occ. eigenvalues --  -20.56308 -20.55136  -1.33609  -1.32441  -0.71023
 Alpha  occ. eigenvalues --   -0.69834  -0.57081  -0.55898  -0.50721  -0.49557
 Alpha virt. eigenvalues --    0.12550   0.15038   0.19123   0.21776   0.53167
 Alpha virt. eigenvalues --    0.54991   0.56507   0.57866   0.66736   0.68838
 Alpha virt. eigenvalues --    0.78175   0.79098   0.79309   0.81121   0.82488

 Mulliken charges:
               1
     1  O   -0.510973
     2  H    0.259104
     3  H    0.251578
     4  O   -0.511955
     5  H    0.259150
     6  H    0.253097
 Sum of Mulliken charges =  -0.00000

 Dipole moment (field-independent basis, Debye):
    X=             -2.9306    Y=              2.6386    Z=              0.0000  Tot=              3.9434
 Quadrupole moment (field-independent basis, Debye-Ang):
   XX=            -10.3993   YY=             -8.2259   ZZ=            -14.7131
   XY=              2.8891   XZ=              0.0000   YZ=              0.0000

 Normal termination of Gaussian 16 at Sat Aug 27 00:56:26 2022.
