 Gaussian 16, Revision A.03,
 Gaussian 16:  ES64L-G16RevA.03 25-Dec-2016

 ------------------
 #p CCSD(T)/cc-pVTZ
 ------------------

 ------------
 H2O_H2O_1575
 ------------
 Symbolic Z-matrix:
 Charge =  0 Multiplicity = 1

                         Standard orientation:
 ---------------------------------------------------------------------
 Center     Atomic      Atomic             Coordinates (Angstroms)
 Number     Number       Type             X           Y           Z
 ---------------------------------------------------------------------
      1          8           0        0.092949   -1.715104    0.000000
      2          1           0        0.092949   -0.732502    0.000000
      3          1           0       -0.836544   -2.033770    0.000000
      4          8           0        0.092949    1.582317    0.000000
      5          1           0        0.092949    2.564918    0.000000
      6          1           0       -0.836544    1.263649    0.000000
 ---------------------------------------------------------------------

 SCF Done:  E(RHF) =  -152.108864955     A.U. after   10 cycles
 E2 =    -0.5274948583D+00 EUMP2 =    -0.15263635981292D+03
 CCSD(T)
 CCSD(T)= -0.15266346654D+03

 The electronic state is 1-A'.
 Alpha  occ. eigenvalues --  -20.57759 -20.54549  -1.35110  -1.31890  -0.72843
 Alpha  occ. eigenvalues --   -0.69101  -0.58593  -0.55267  -0.52167  -0.48988
 Alpha virt. eigenvalues --    0.11463   0.16254   0.20492   0.27376   0.50175
 Alpha virt. eigenvalues --    0.54427   0.57508   0.58059   0.67773   0.74078
 Alpha virt. eigenvalues --    0.74184   0.78046   0.80369   0.81922   0.83326

 Mulliken charges:
               1
     1  O   -0.518906
     2  H    0.270870
     3  H    0.240370
     4  O   -0.485219
     5  H    0.251942
     6  H    0.240943
 Sum of Mulliken charges =  -0.00000

 Dipole moment (field-independent basis, Debye):
    X=             -3.1089    Y=              2.5662    Z=              0.0000  Tot=              4.0312
 Quadrupole moment (field-independent basis, Debye-Ang):
   XX=            -10.8949   YY=             -9.1447   ZZ=            -14.7106
   XY=              2.1204   XZ=              0.0000   YZ=              0.0000

 Normal termination of Gaussian 16 at Sat Aug 27 23:25:13 2022.
