 Gaussian 16, Revision A.03,
 Gaussian 16:  ES64L-G16RevA.03 25-Dec-2016

 ------------------
 #p CCSD(T)/cc-pVTZ
 ------------------

 ------------
 H2O_H2O_1211
 ------------
 Symbolic Z-matrix:
 Charge =  0 Multiplicity = 1

                         Standard orientation:
 ---------------------------------------------------------------------
 Center     Atomic      Atomic             Coordinates (Angstroms)
 Number     Number       Type             X           Y           Z
 ---------------------------------------------------------------------
      1          8           0        0.059698    1.589746    0.000000
      2          1           0        0.057815    0.607146    0.000000
      3          1           0       -0.869182    1.910194    0.000000
      4          8           0        0.059698   -1.412378   -0.000000
      5          1           0        0.706155   -2.152378   -0.000000
      6          1           0       -0.849957   -1.783906   -0.000000
 ---------------------------------------------------------------------

 SCF Done:  E(RHF) =  -152.113559342     A.U. after   10 cycles
 E2 =    -0.5279581557D+00 EUMP2 =    -0.15264151749730D+03
 CCSD(T)
 CCSD(T)= -0.15266845077D+03

 The electronic state is 1-A'.
 Alpha  occ. eigenvalues --  -20.58422 -20.52384  -1.35798  -1.29928  -0.73118
 Alpha  occ. eigenvalues --   -0.67980  -0.59481  -0.53125  -0.52892  -0.47054
 Alpha virt. eigenvalues --    0.11852   0.17532   0.19188   0.30639   0.48756
 Alpha virt. eigenvalues --    0.54849   0.56992   0.59577   0.69729   0.72180
 Alpha virt. eigenvalues --    0.73252   0.76786   0.82061   0.82603   0.84765

 Mulliken charges:
               1
     1  O   -0.550951
     2  H    0.288211
     3  H    0.240226
     4  O   -0.496136
     5  H    0.262239
     6  H    0.256410
 Sum of Mulliken charges =  -0.00000

 Dipole moment (field-independent basis, Debye):
    X=             -1.9830    Y=             -3.6048    Z=             -0.0000  Tot=              4.1142
 Quadrupole moment (field-independent basis, Debye-Ang):
   XX=             -9.3771   YY=             -8.5534   ZZ=            -14.7303
   XY=             -3.3602   XZ=             -0.0000   YZ=              0.0000

 Normal termination of Gaussian 16 at Fri Aug 26 23:09:05 2022.
