 Gaussian 16, Revision A.03,
 Gaussian 16:  ES64L-G16RevA.03 25-Dec-2016

 ------------------
 #p CCSD(T)/cc-pVTZ
 ------------------

 ------------
 H2O_H2O_2196
 ------------
 Symbolic Z-matrix:
 Charge =  0 Multiplicity = 1

                         Standard orientation:
 ---------------------------------------------------------------------
 Center     Atomic      Atomic             Coordinates (Angstroms)
 Number     Number       Type             X           Y           Z
 ---------------------------------------------------------------------
      1          8           0       -0.023254    1.974850    0.000000
      2          1           0       -0.020122    0.992254    0.000000
      3          1           0        0.905218    2.296478    0.000000
      4          8           0       -0.023254   -1.804488    0.000000
      5          1           0       -0.986359   -1.999256    0.000000
      6          1           0        0.473330   -2.652374    0.000000
 ---------------------------------------------------------------------

 SCF Done:  E(RHF) =  -152.111673513     A.U. after   10 cycles
 E2 =    -0.5262391796D+00 EUMP2 =    -0.15263791269269D+03
 CCSD(T)
 CCSD(T)= -0.15266499750D+03

 The electronic state is 1-A'.
 Alpha  occ. eigenvalues --  -20.57147 -20.54016  -1.34412  -1.31361  -0.71816
 Alpha  occ. eigenvalues --   -0.68779  -0.58056  -0.54839  -0.51548  -0.48513
 Alpha virt. eigenvalues --    0.12250   0.16757   0.19221   0.25427   0.52965
 Alpha virt. eigenvalues --    0.55032   0.56231   0.58731   0.68906   0.72088
 Alpha virt. eigenvalues --    0.76769   0.78633   0.80394   0.83244   0.83562

 Mulliken charges:
               1
     1  O   -0.528212
     2  H    0.266921
     3  H    0.252942
     4  O   -0.510495
     5  H    0.260800
     6  H    0.258044
 Sum of Mulliken charges =  -0.00000

 Dipole moment (field-independent basis, Debye):
    X=              0.7923    Y=             -3.1660    Z=              0.0000  Tot=              3.2636
 Quadrupole moment (field-independent basis, Debye-Ang):
   XX=             -9.3622   YY=             -7.9670   ZZ=            -14.7259
   XY=              4.9089   XZ=              0.0000   YZ=              0.0000

 44087\MP4DQ=-152.6468497\MP4SDQ=-152.6499199\CCSD=-152.649318\CCSD(T)=
 Normal termination of Gaussian 16 at Sun Aug 28 05:21:34 2022.
