 Gaussian 16, Revision A.03,
 Gaussian 16:  ES64L-G16RevA.03 25-Dec-2016

 ------------------
 #p CCSD(T)/cc-pVTZ
 ------------------

 ------------
 H2O_H2O_2834
 ------------
 Symbolic Z-matrix:
 Charge =  0 Multiplicity = 1

                         Standard orientation:
 ---------------------------------------------------------------------
 Center     Atomic      Atomic             Coordinates (Angstroms)
 Number     Number       Type             X           Y           Z
 ---------------------------------------------------------------------
      1          8           0        0.066765    2.235598    0.000000
      2          1           0        0.065731    1.252997    0.000000
      3          1           0       -0.862392    2.555242    0.000000
      4          8           0        0.066765   -2.062501   -0.000000
      5          1           0        0.611809   -2.880078   -0.000000
      6          1           0       -0.883387   -2.312937   -0.000000
 ---------------------------------------------------------------------

 SCF Done:  E(RHF) =  -152.109737907     A.U. after   10 cycles
 E2 =    -0.5260226753D+00 EUMP2 =    -0.15263576058197D+03
 CCSD(T)
 CCSD(T)= -0.15266289986D+03

 The electronic state is 1-A'.
 Alpha  occ. eigenvalues --  -20.56742 -20.54473  -1.34018  -1.31792  -0.71426
 Alpha  occ. eigenvalues --   -0.69177  -0.57554  -0.55269  -0.51144  -0.48923
 Alpha virt. eigenvalues --    0.12271   0.15995   0.19427   0.23034   0.53386
 Alpha virt. eigenvalues --    0.55438   0.56225   0.58701   0.68669   0.69405
 Alpha virt. eigenvalues --    0.77721   0.79041   0.79916   0.79924   0.83197

 Mulliken charges:
               1
     1  O   -0.517846
     2  H    0.264500
     3  H    0.249797
     4  O   -0.511648
     5  H    0.260084
     6  H    0.255113
 Sum of Mulliken charges =  -0.00000

 Dipole moment (field-independent basis, Debye):
    X=             -2.2731    Y=             -3.1323    Z=             -0.0000  Tot=              3.8702
 Quadrupole moment (field-independent basis, Debye-Ang):
   XX=             -9.5667   YY=             -7.5423   ZZ=            -14.7191
   XY=             -3.8269   XZ=             -0.0000   YZ=              0.0000

 Normal termination of Gaussian 16 at Fri Aug 26 17:38:52 2022.
