 Gaussian 16, Revision A.03,
 Gaussian 16:  ES64L-G16RevA.03 25-Dec-2016

 ------------------
 #p CCSD(T)/cc-pVTZ
 ------------------

 ------------
 H2O_H2O_2546
 ------------
 Symbolic Z-matrix:
 Charge =  0 Multiplicity = 1

                         Standard orientation:
 ---------------------------------------------------------------------
 Center     Atomic      Atomic             Coordinates (Angstroms)
 Number     Number       Type             X           Y           Z
 ---------------------------------------------------------------------
      1          8           0       -0.023235    2.114462    0.000000
      2          1           0       -0.020319    1.131865    0.000000
      3          1           0        0.905308    2.435886    0.000000
      4          8           0       -0.023235   -1.944090    0.000000
      5          1           0       -0.986384   -2.138645    0.000000
      6          1           0        0.473163   -2.792084    0.000000
 ---------------------------------------------------------------------

 SCF Done:  E(RHF) =  -152.110788516     A.U. after   10 cycles
 E2 =    -0.5260563541D+00 EUMP2 =    -0.15263684487039D+03
 CCSD(T)
 CCSD(T)= -0.15266395751D+03

 The electronic state is 1-A'.
 Alpha  occ. eigenvalues --  -20.56888 -20.54283  -1.34160  -1.31614  -0.71563
 Alpha  occ. eigenvalues --   -0.69020  -0.57747  -0.55104  -0.51294  -0.48759
 Alpha virt. eigenvalues --    0.12291   0.16375   0.19280   0.24141   0.53446
 Alpha virt. eigenvalues --    0.55519   0.56351   0.58597   0.68913   0.70490
 Alpha virt. eigenvalues --    0.77433   0.79079   0.80092   0.80915   0.83584

 Mulliken charges:
               1
     1  O   -0.524175
     2  H    0.265467
     3  H    0.253406
     4  O   -0.512610
     5  H    0.259928
     6  H    0.257984
 Sum of Mulliken charges =  -0.00000

 Dipole moment (field-independent basis, Debye):
    X=              0.7932    Y=             -3.1142    Z=              0.0000  Tot=              3.2137
 Quadrupole moment (field-independent basis, Debye-Ang):
   XX=             -9.3615   YY=             -7.7789   ZZ=            -14.7226
   XY=              5.2460   XZ=              0.0000   YZ=              0.0000

 Normal termination of Gaussian 16 at Fri Aug 26 15:31:08 2022.
