 Gaussian 16, Revision A.03,
 Gaussian 16:  ES64L-G16RevA.03 25-Dec-2016

 ------------------
 #p CCSD(T)/cc-pVTZ
 ------------------

 ------------
 H2O_H2O_4939
 ------------
 Symbolic Z-matrix:
 Charge =  0 Multiplicity = 1

                         Standard orientation:
 ---------------------------------------------------------------------
 Center     Atomic      Atomic             Coordinates (Angstroms)
 Number     Number       Type             X           Y           Z
 ---------------------------------------------------------------------
      1          8           0        0.048546    3.077221   -0.000000
      2          1           0        0.047285    2.094621   -0.000000
      3          1           0       -0.880538    3.397080   -0.000000
      4          8           0        0.048546   -2.896793    0.000000
      5          1           0        0.827328   -3.495963    0.000000
      6          1           0       -0.770806   -3.439166    0.000000
 ---------------------------------------------------------------------

 SCF Done:  E(RHF) =  -152.108231766     A.U. after   10 cycles
 E2 =    -0.5258087125D+00 EUMP2 =    -0.15263404047884D+03
 CCSD(T)
 CCSD(T)= -0.15266124333D+03

 The electronic state is 1-A'.
 Alpha  occ. eigenvalues --  -20.56116 -20.55030  -1.33418  -1.32336  -0.70823
 Alpha  occ. eigenvalues --   -0.69738  -0.56904  -0.55803  -0.50536  -0.49457
 Alpha virt. eigenvalues --    0.13535   0.14769   0.19744   0.20890   0.53729
 Alpha virt. eigenvalues --    0.54801   0.56718   0.57763   0.67064   0.68512
 Alpha virt. eigenvalues --    0.78347   0.79404   0.79758   0.80501   0.82225

 Mulliken charges:
               1
     1  O   -0.513087
     2  H    0.259562
     3  H    0.253488
     4  O   -0.513732
     5  H    0.257690
     6  H    0.256078
 Sum of Mulliken charges =  -0.00000

 Dipole moment (field-independent basis, Debye):
    X=             -1.6666    Y=             -3.1570    Z=              0.0000  Tot=              3.5699
 Quadrupole moment (field-independent basis, Debye-Ang):
   XX=             -9.1821   YY=             -5.9281   ZZ=            -14.7142
   XY=             -5.8366   XZ=              0.0000   YZ=             -0.0000

 Normal termination of Gaussian 16 at Sun Aug 28 07:07:47 2022.
