 Gaussian 16, Revision A.03,
 Gaussian 16:  ES64L-G16RevA.03 25-Dec-2016

 ------------------
 #p CCSD(T)/cc-pVTZ
 ------------------

 ------------
 H2O_H2O_3820
 ------------
 Symbolic Z-matrix:
 Charge =  0 Multiplicity = 1

                         Standard orientation:
 ---------------------------------------------------------------------
 Center     Atomic      Atomic             Coordinates (Angstroms)
 Number     Number       Type             X           Y           Z
 ---------------------------------------------------------------------
      1          8           0        0.026633    2.624585    0.000000
      2          1           0        0.024416    1.641986    0.000000
      3          1           0       -0.902139    2.945347    0.000000
      4          8           0        0.026633   -2.451345   -0.000000
      5          1           0        0.975177   -2.707801   -0.000000
      6          1           0       -0.523585   -3.265450   -0.000000
 ---------------------------------------------------------------------

 SCF Done:  E(RHF) =  -152.108940570     A.U. after   10 cycles
 E2 =    -0.5258191367D+00 EUMP2 =    -0.15263475970687D+03
 CCSD(T)
 CCSD(T)= -0.15266193915D+03

 The electronic state is 1-A'.
 Alpha  occ. eigenvalues --  -20.56333 -20.54815  -1.33630  -1.32127  -0.71033
 Alpha  occ. eigenvalues --   -0.69531  -0.57141  -0.55608  -0.50752  -0.49256
 Alpha virt. eigenvalues --    0.12893   0.15312   0.19487   0.21609   0.53365
 Alpha virt. eigenvalues --    0.55098   0.56582   0.57874   0.66721   0.69159
 Alpha virt. eigenvalues --    0.78144   0.78978   0.79589   0.80198   0.82894

 Mulliken charges:
               1
     1  O   -0.516234
     2  H    0.261524
     3  H    0.254061
     4  O   -0.516121
     5  H    0.258478
     6  H    0.258293
 Sum of Mulliken charges =  -0.00000

 Dipole moment (field-independent basis, Debye):
    X=             -0.9126    Y=             -3.0647    Z=             -0.0000  Tot=              3.1977
 Quadrupole moment (field-independent basis, Debye-Ang):
   XX=             -9.2886   YY=             -6.9956   ZZ=            -14.7166
   XY=             -6.2744   XZ=             -0.0000   YZ=              0.0000

 CCSD(T)=-152.6619392\RMSD=7.049e-09\PG=CS [SG(H4O2)]\\@
 Normal termination of Gaussian 16 at Fri Aug 26 23:52:14 2022.
