 Gaussian 16, Revision A.03,
 Gaussian 16:  ES64L-G16RevA.03 25-Dec-2016

 ------------------
 #p CCSD(T)/cc-pVTZ
 ------------------

 ------------
 H2O_H2O_3386
 ------------
 Symbolic Z-matrix:
 Charge =  0 Multiplicity = 1

                         Standard orientation:
 ---------------------------------------------------------------------
 Center     Atomic      Atomic             Coordinates (Angstroms)
 Number     Number       Type             X           Y           Z
 ---------------------------------------------------------------------
      1          8           0        0.059636    2.457346    0.000000
      2          1           0        0.058442    1.474745    0.000000
      3          1           0       -0.869469    2.777141   -0.000000
      4          8           0        0.059636   -2.279894    0.000000
      5          1           0        0.706613   -3.019439    0.000000
      6          1           0       -0.849758   -2.652060   -0.000000
 ---------------------------------------------------------------------

 SCF Done:  E(RHF) =  -152.109157386     A.U. after   10 cycles
 E2 =    -0.5258899933D+00 EUMP2 =    -0.15263504737964D+03
 CCSD(T)
 CCSD(T)= -0.15266221278D+03

 The electronic state is 1-A'.
 Alpha  occ. eigenvalues --  -20.56488 -20.54651  -1.33776  -1.31965  -0.71181
 Alpha  occ. eigenvalues --   -0.69358  -0.57293  -0.55444  -0.50900  -0.49094
 Alpha virt. eigenvalues --    0.12632   0.15586   0.19515   0.21948   0.53385
 Alpha virt. eigenvalues --    0.55132   0.56425   0.58154   0.67205   0.69337
 Alpha virt. eigenvalues --    0.78006   0.78899   0.79694   0.79745   0.83038

 Mulliken charges:
               1
     1  O   -0.516031
     2  H    0.262943
     3  H    0.251532
     4  O   -0.514548
     5  H    0.259980
     6  H    0.256124
 Sum of Mulliken charges =   0.00000

 Dipole moment (field-independent basis, Debye):
    X=             -2.0369    Y=             -3.1655    Z=             -0.0000  Tot=              3.7643
 Quadrupole moment (field-independent basis, Debye-Ang):
   XX=             -9.3636   YY=             -7.0592   ZZ=            -14.7174
   XY=             -4.3824   XZ=              0.0000   YZ=             -0.0000

 Normal termination of Gaussian 16 at Fri Aug 26 21:24:47 2022.
