 Gaussian 16, Revision A.03,
 Gaussian 16:  ES64L-G16RevA.03 25-Dec-2016

 ------------------
 #p CCSD(T)/cc-pVTZ
 ------------------

 ------------
 H2O_H2O_3071
 ------------
 Symbolic Z-matrix:
 Charge =  0 Multiplicity = 1

                         Standard orientation:
 ---------------------------------------------------------------------
 Center     Atomic      Atomic             Coordinates (Angstroms)
 Number     Number       Type             X           Y           Z
 ---------------------------------------------------------------------
      1          8           0       -0.023212    2.323878    0.000000
      2          1           0       -0.020568    1.341281    0.000000
      3          1           0        0.905420    2.645045    0.000000
      4          8           0       -0.023212   -2.153493    0.000000
      5          1           0       -0.986414   -2.347781    0.000000
      6          1           0        0.472951   -3.001626    0.000000
 ---------------------------------------------------------------------

 SCF Done:  E(RHF) =  -152.109796615     A.U. after   10 cycles
 E2 =    -0.5259066815D+00 EUMP2 =    -0.15263570329655D+03
 CCSD(T)
 CCSD(T)= -0.15266285011D+03

 The electronic state is 1-A'.
 Alpha  occ. eigenvalues --  -20.56600 -20.54570  -1.33885  -1.31889  -0.71289
 Alpha  occ. eigenvalues --   -0.69293  -0.57426  -0.55380  -0.51013  -0.49026
 Alpha virt. eigenvalues --    0.12426   0.15877   0.19344   0.22760   0.53481
 Alpha virt. eigenvalues --    0.55507   0.56452   0.58293   0.67964   0.69350
 Alpha virt. eigenvalues --    0.77880   0.78834   0.79807   0.80187   0.83153

 Mulliken charges:
               1
     1  O   -0.519726
     2  H    0.263328
     3  H    0.253923
     4  O   -0.515259
     5  H    0.259159
     6  H    0.258575
 Sum of Mulliken charges =  -0.00000

 Dipole moment (field-independent basis, Debye):
    X=              0.7940    Y=             -3.0603    Z=              0.0000  Tot=              3.1617
 Quadrupole moment (field-independent basis, Debye-Ang):
   XX=             -9.3612   YY=             -7.5100   ZZ=            -14.7195
   XY=              5.7505   XZ=              0.0000   YZ=              0.0000

 Normal termination of Gaussian 16 at Fri Aug 26 19:36:37 2022.
