 Gaussian 16, Revision A.03,
 Gaussian 16:  ES64L-G16RevA.03 25-Dec-2016

 ------------------
 #p CCSD(T)/cc-pVTZ
 ------------------

 ------------
 H2O_H2O_4732
 ------------
 Symbolic Z-matrix:
 Charge =  0 Multiplicity = 1

                         Standard orientation:
 ---------------------------------------------------------------------
 Center     Atomic      Atomic             Coordinates (Angstroms)
 Number     Number       Type             X           Y           Z
 ---------------------------------------------------------------------
      1          8           0        0.073522    2.990131   -0.000000
      2          1           0        0.072955    2.007530   -0.000000
      3          1           0       -0.855787    3.309334   -0.000000
      4          8           0        0.073522   -2.823166    0.000000
      5          1           0        0.507608   -3.704685    0.000000
      6          1           0       -0.901130   -2.947904    0.000000
 ---------------------------------------------------------------------

 SCF Done:  E(RHF) =  -152.108039525     A.U. after   10 cycles
 E2 =    -0.5258329121D+00 EUMP2 =    -0.15263387243749D+03
 CCSD(T)
 CCSD(T)= -0.15266107855D+03

 The electronic state is 1-A'.
 Alpha  occ. eigenvalues --  -20.56156 -20.55105  -1.33458  -1.32409  -0.70867
 Alpha  occ. eigenvalues --   -0.69808  -0.56935  -0.55871  -0.50574  -0.49527
 Alpha virt. eigenvalues --    0.13346   0.14748   0.19547   0.20995   0.53568
 Alpha virt. eigenvalues --    0.54810   0.56654   0.57719   0.66987   0.68532
 Alpha virt. eigenvalues --    0.78313   0.79337   0.79623   0.80654   0.82201

 Mulliken charges:
               1
     1  O   -0.511821
     2  H    0.259131
     3  H    0.252635
     4  O   -0.512710
     5  H    0.258163
     6  H    0.254603
 Sum of Mulliken charges =  -0.00000

 Dipole moment (field-independent basis, Debye):
    X=             -2.5227    Y=             -2.9253    Z=              0.0000  Tot=              3.8628
 Quadrupole moment (field-independent basis, Debye-Ang):
   XX=             -9.8086   YY=             -6.9067   ZZ=            -14.7135
   XY=             -4.0162   XZ=              0.0000   YZ=             -0.0000

 Normal termination of Gaussian 16 at Sun Aug 28 05:27:30 2022.
