 Gaussian 16, Revision A.03,
 Gaussian 16:  ES64L-G16RevA.03 25-Dec-2016

 ------------------
 #p CCSD(T)/cc-pVTZ
 ------------------

 ------------
 H2O_H2O_3462
 ------------
 Symbolic Z-matrix:
 Charge =  0 Multiplicity = 1

                         Standard orientation:
 ---------------------------------------------------------------------
 Center     Atomic      Atomic             Coordinates (Angstroms)
 Number     Number       Type             X           Y           Z
 ---------------------------------------------------------------------
      1          8           0        0.055983    2.488057    0.000000
      2          1           0        0.054675    1.505457    0.000000
      3          1           0       -0.873085    2.807961   -0.000000
      4          8           0        0.055983   -2.309140    0.000000
      5          1           0        0.749862   -3.004869    0.000000
      6          1           0       -0.827174   -2.739885   -0.000000
 ---------------------------------------------------------------------

 SCF Done:  E(RHF) =  -152.109136461     A.U. after   10 cycles
 E2 =    -0.5258744369D+00 EUMP2 =    -0.15263501089826D+03
 CCSD(T)
 CCSD(T)= -0.15266217841D+03

 The electronic state is 1-A'.
 Alpha  occ. eigenvalues --  -20.56459 -20.54660  -1.33748  -1.31974  -0.71152
 Alpha  occ. eigenvalues --   -0.69368  -0.57265  -0.55453  -0.50872  -0.49102
 Alpha virt. eigenvalues --    0.12708   0.15542   0.19541   0.21841   0.53400
 Alpha virt. eigenvalues --    0.55095   0.56454   0.58081   0.67082   0.69331
 Alpha virt. eigenvalues --    0.78033   0.78983   0.79598   0.79737   0.83034

 Mulliken charges:
               1
     1  O   -0.516123
     2  H    0.262876
     3  H    0.251865
     4  O   -0.514959
     5  H    0.259879
     6  H    0.256462
 Sum of Mulliken charges =  -0.00000

 Dipole moment (field-independent basis, Debye):
    X=             -1.9129    Y=             -3.1868    Z=             -0.0000  Tot=              3.7169
 Quadrupole moment (field-independent basis, Debye-Ang):
   XX=             -9.2863   YY=             -6.9507   ZZ=            -14.7174
   XY=             -4.5918   XZ=             -0.0000   YZ=             -0.0000

 Normal termination of Gaussian 16 at Fri Aug 26 21:49:54 2022.
