 Gaussian 16, Revision A.03,
 Gaussian 16:  ES64L-G16RevA.03 25-Dec-2016

 ------------------
 #p CCSD(T)/cc-pVTZ
 ------------------

 ------------
 H2O_H2O_2220
 ------------
 Symbolic Z-matrix:
 Charge =  0 Multiplicity = 1

                         Standard orientation:
 ---------------------------------------------------------------------
 Center     Atomic      Atomic             Coordinates (Angstroms)
 Number     Number       Type             X           Y           Z
 ---------------------------------------------------------------------
      1          8           0        0.026699    1.986363   -0.000000
      2          1           0        0.023737    1.003766   -0.000000
      3          1           0       -0.901830    2.307829   -0.000000
      4          8           0        0.026699   -1.813163    0.000000
      5          1           0        0.975048   -2.070338    0.000000
      6          1           0       -0.524136   -2.626852    0.000000
 ---------------------------------------------------------------------

 SCF Done:  E(RHF) =  -152.111681887     A.U. after   10 cycles
 E2 =    -0.5262231022D+00 EUMP2 =    -0.15263790498926D+03
 CCSD(T)
 CCSD(T)= -0.15266498994D+03

 The electronic state is 1-A'.
 Alpha  occ. eigenvalues --  -20.57135 -20.53988  -1.34397  -1.31332  -0.71796
 Alpha  occ. eigenvalues --   -0.68749  -0.58041  -0.54812  -0.51534  -0.48484
 Alpha virt. eigenvalues --    0.12271   0.16751   0.19220   0.25313   0.52817
 Alpha virt. eigenvalues --    0.55128   0.56325   0.58725   0.68966   0.71946
 Alpha virt. eigenvalues --    0.76834   0.78514   0.80410   0.83184   0.83578

 Mulliken charges:
               1
     1  O   -0.527915
     2  H    0.267155
     3  H    0.252424
     4  O   -0.510495
     5  H    0.260908
     6  H    0.257923
 Sum of Mulliken charges =  -0.00000

 Dipole moment (field-independent basis, Debye):
    X=             -0.9081    Y=             -3.2159    Z=              0.0000  Tot=              3.3417
 Quadrupole moment (field-independent basis, Debye-Ang):
   XX=             -9.2891   YY=             -7.8809   ZZ=            -14.7260
   XY=             -4.8115   XZ=              0.0000   YZ=             -0.0000

 Normal termination of Gaussian 16 at Sun Aug 28 05:30:53 2022.
