 Gaussian 16, Revision A.03,
 Gaussian 16:  ES64L-G16RevA.03 25-Dec-2016

 ------------------
 #p CCSD(T)/cc-pVTZ
 ------------------

 ------------
 H2O_H2O_1174
 ------------
 Symbolic Z-matrix:
 Charge =  0 Multiplicity = 1

                         Standard orientation:
 ---------------------------------------------------------------------
 Center     Atomic      Atomic             Coordinates (Angstroms)
 Number     Number       Type             X           Y           Z
 ---------------------------------------------------------------------
      1          8           0        0.013647   -1.559955    0.000000
      2          1           0        0.009094   -0.577364    0.000000
      3          1           0       -0.914360   -1.882924    0.000000
      4          8           0        0.013647    1.400737    0.000000
      5          1           0        0.996238    1.405289    0.000000
      6          1           0       -0.309323    2.328743    0.000000
 ---------------------------------------------------------------------

 SCF Done:  E(RHF) =  -152.112684580     A.U. after   10 cycles
 E2 =    -0.5280099292D+00 EUMP2 =    -0.15264069450948D+03
 CCSD(T)
 CCSD(T)= -0.15266763512D+03

 The electronic state is 1-A'.
 Alpha  occ. eigenvalues --  -20.58372 -20.52677  -1.35836  -1.30229  -0.73467
 Alpha  occ. eigenvalues --   -0.67971  -0.59615  -0.53385  -0.52889  -0.47366
 Alpha virt. eigenvalues --    0.12080   0.17879   0.19109   0.30962   0.49635
 Alpha virt. eigenvalues --    0.54658   0.55535   0.62355   0.68517   0.72917
 Alpha virt. eigenvalues --    0.74479   0.76536   0.81686   0.82150   0.84270

 Mulliken charges:
               1
     1  O   -0.559083
     2  H    0.282479
     3  H    0.252645
     4  O   -0.479163
     5  H    0.261425
     6  H    0.241697
 Sum of Mulliken charges =  -0.00000

 Dipole moment (field-independent basis, Debye):
    X=             -0.4691    Y=              3.2640    Z=              0.0000  Tot=              3.2976
 Quadrupole moment (field-independent basis, Debye-Ang):
   XX=             -9.6421   YY=             -8.7630   ZZ=            -14.7220
   XY=              4.1840   XZ=              0.0000   YZ=              0.0000

 Normal termination of Gaussian 16 at Fri Aug 26 22:54:26 2022.
