 Gaussian 16, Revision A.03,
 Gaussian 16:  ES64L-G16RevA.03 25-Dec-2016

 ------------------
 #p CCSD(T)/cc-pVTZ
 ------------------

 -----------
 H2O_H2O_792
 -----------
 Symbolic Z-matrix:
 Charge =  0 Multiplicity = 1

                         Standard orientation:
 ---------------------------------------------------------------------
 Center     Atomic      Atomic             Coordinates (Angstroms)
 Number     Number       Type             X           Y           Z
 ---------------------------------------------------------------------
      1          8           0        0.037579    1.421037    0.000000
      2          1           0        0.034041    0.438442    0.000000
      3          1           0       -0.890761    1.743049    0.000000
      4          8           0        0.037579   -1.242185   -0.000000
      5          1           0        0.917277   -1.679948   -0.000000
      6          1           0       -0.661819   -1.932365   -0.000000
 ---------------------------------------------------------------------

 SCF Done:  E(RHF) =  -152.110671913     A.U. after   10 cycles
 E2 =    -0.5296509229D+00 EUMP2 =    -0.15264032283624D+03
 CCSD(T)
 CCSD(T)= -0.15266701424D+03

 The electronic state is 1-A'.
 Alpha  occ. eigenvalues --  -20.59337 -20.50567  -1.37109  -1.28514  -0.74195
 Alpha  occ. eigenvalues --   -0.68804  -0.59638  -0.54058  -0.51206  -0.45580
 Alpha virt. eigenvalues --    0.11683   0.18197   0.19065   0.33006   0.47949
 Alpha virt. eigenvalues --    0.54348   0.57913   0.63331   0.68812   0.72271
 Alpha virt. eigenvalues --    0.72453   0.77888   0.81754   0.83087   0.84448

 Mulliken charges:
               1
     1  O   -0.588716
     2  H    0.306387
     3  H    0.238452
     4  O   -0.474432
     5  H    0.264782
     6  H    0.253527
 Sum of Mulliken charges =  -0.00000

 Dipole moment (field-independent basis, Debye):
    X=             -1.2291    Y=             -3.9507    Z=             -0.0000  Tot=              4.1375
 Quadrupole moment (field-independent basis, Debye-Ang):
   XX=             -9.1436   YY=             -9.0257   ZZ=            -14.7108
   XY=             -3.3419   XZ=             -0.0000   YZ=              0.0000

 Normal termination of Gaussian 16 at Fri Aug 26 20:32:25 2022.
