 Gaussian 16, Revision A.03,
 Gaussian 16:  ES64L-G16RevA.03 25-Dec-2016

 ------------------
 #p CCSD(T)/cc-pVTZ
 ------------------

 -----------
 H2O_H2O_596
 -----------
 Symbolic Z-matrix:
 Charge =  0 Multiplicity = 1

                         Standard orientation:
 ---------------------------------------------------------------------
 Center     Atomic      Atomic             Coordinates (Angstroms)
 Number     Number       Type             X           Y           Z
 ---------------------------------------------------------------------
      1          8           0       -0.023393    1.336614    0.000000
      2          1           0       -0.018663    0.354024    0.000000
      3          1           0        0.904556    1.659750    0.000000
      4          8           0       -0.023393   -1.166328    0.000000
      5          1           0       -0.986179   -1.362660    0.000000
      6          1           0        0.474569   -2.013405    0.000000
 ---------------------------------------------------------------------

 SCF Done:  E(RHF) =  -152.103535890     A.U. after   11 cycles
 E2 =    -0.5310577682D+00 EUMP2 =    -0.15263459365869D+03
 CCSD(T)
 CCSD(T)= -0.15266108868D+03

 The electronic state is 1-A'.
 Alpha  occ. eigenvalues --  -20.59830 -20.49663  -1.38116  -1.27915  -0.75591
 Alpha  occ. eigenvalues --   -0.69376  -0.59396  -0.54818  -0.50193  -0.44926
 Alpha virt. eigenvalues --    0.11556   0.18085   0.19400   0.33761   0.47692
 Alpha virt. eigenvalues --    0.53784   0.58365   0.67864   0.68276   0.72242
 Alpha virt. eigenvalues --    0.73812   0.77231   0.80039   0.83894   0.83933

 Mulliken charges:
               1
     1  O   -0.608985
     2  H    0.302186
     3  H    0.239560
     4  O   -0.433616
     5  H    0.260862
     6  H    0.239993
 Sum of Mulliken charges =  -0.00000

 Dipole moment (field-independent basis, Debye):
    X=              0.7628    Y=             -3.9834    Z=              0.0000  Tot=              4.0558
 Quadrupole moment (field-independent basis, Debye-Ang):
   XX=             -9.3240   YY=             -9.2726   ZZ=            -14.6807
   XY=              3.3238   XZ=              0.0000   YZ=              0.0000

 Normal termination of Gaussian 16 at Fri Aug 26 19:17:55 2022.
