 Gaussian 16, Revision A.03,
 Gaussian 16:  ES64L-G16RevA.03 25-Dec-2016

 ------------------
 #p CCSD(T)/cc-pVTZ
 ------------------

 ------------
 H2O_H2O_4056
 ------------
 Symbolic Z-matrix:
 Charge =  0 Multiplicity = 1

                         Standard orientation:
 ---------------------------------------------------------------------
 Center     Atomic      Atomic             Coordinates (Angstroms)
 Number     Number       Type             X           Y           Z
 ---------------------------------------------------------------------
      1          8           0        0.076751    2.718856    0.000000
      2          1           0        0.076230    1.736255    0.000000
      3          1           0       -0.852573    3.038015    0.000000
      4          8           0        0.076751   -2.555634   -0.000000
      5          1           0        0.452294   -3.463639   -0.000000
      6          1           0       -0.903970   -2.616406   -0.000000
 ---------------------------------------------------------------------

 SCF Done:  E(RHF) =  -152.108237765     A.U. after   10 cycles
 E2 =    -0.5258579660D+00 EUMP2 =    -0.15263409573060D+03
 CCSD(T)
 CCSD(T)= -0.15266129273D+03

 The electronic state is 1-A'.
 Alpha  occ. eigenvalues --  -20.56290 -20.55011  -1.33589  -1.32317  -0.71000
 Alpha  occ. eigenvalues --   -0.69712  -0.57072  -0.55781  -0.50705  -0.49437
 Alpha virt. eigenvalues --    0.12844   0.15058   0.19371   0.21445   0.53286
 Alpha virt. eigenvalues --    0.54985   0.56537   0.57853   0.66711   0.68924
 Alpha virt. eigenvalues --    0.78190   0.79089   0.79422   0.80655   0.82659

 Mulliken charges:
               1
     1  O   -0.512289
     2  H    0.260117
     3  H    0.251848
     4  O   -0.513208
     5  H    0.259204
     6  H    0.254328
 Sum of Mulliken charges =  -0.00000

 Dipole moment (field-independent basis, Debye):
    X=             -2.6283    Y=             -2.8780    Z=             -0.0000  Tot=              3.8975
 Quadrupole moment (field-independent basis, Debye-Ang):
   XX=             -9.9494   YY=             -7.4242   ZZ=            -14.7141
   XY=             -3.6056   XZ=             -0.0000   YZ=              0.0000

 07544\MP4DQ=-152.6432066\MP4SDQ=-152.6462575\CCSD=-152.645671\CCSD(T)=
 Normal termination of Gaussian 16 at Sat Aug 27 23:02:01 2022.
