 Gaussian 16, Revision A.03,
 Gaussian 16:  ES64L-G16RevA.03 25-Dec-2016

 ------------------
 #p CCSD(T)/cc-pVTZ
 ------------------

 ------------
 H2O_H2O_4730
 ------------
 Symbolic Z-matrix:
 Charge =  0 Multiplicity = 1

                         Standard orientation:
 ---------------------------------------------------------------------
 Center     Atomic      Atomic             Coordinates (Angstroms)
 Number     Number       Type             X           Y           Z
 ---------------------------------------------------------------------
      1          8           0        0.079843    2.985847   -0.000000
      2          1           0        0.079461    2.003246   -0.000000
      3          1           0       -0.849526    3.304875   -0.000000
      4          8           0        0.079843   -2.826768    0.000000
      5          1           0        0.395328   -3.757347    0.000000
      6          1           0       -0.902752   -2.823407    0.000000
 ---------------------------------------------------------------------

 SCF Done:  E(RHF) =  -152.107927427     A.U. after   10 cycles
 E2 =    -0.5258426491D+00 EUMP2 =    -0.15263377007632D+03
 CCSD(T)
 CCSD(T)= -0.15266097864D+03

 The electronic state is 1-A'.
 Alpha  occ. eigenvalues --  -20.56161 -20.55167  -1.33463  -1.32471  -0.70873
 Alpha  occ. eigenvalues --   -0.69869  -0.56934  -0.55930  -0.50577  -0.49587
 Alpha virt. eigenvalues --    0.13267   0.14711   0.19422   0.21069   0.53504
 Alpha virt. eigenvalues --    0.54797   0.56635   0.57690   0.66997   0.68483
 Alpha virt. eigenvalues --    0.78311   0.79279   0.79638   0.80785   0.82024

 Mulliken charges:
               1
     1  O   -0.511198
     2  H    0.258642
     3  H    0.252506
     4  O   -0.512112
     5  H    0.258119
     6  H    0.254043
 Sum of Mulliken charges =  -0.00000

 Dipole moment (field-independent basis, Debye):
    X=             -2.7396    Y=             -2.7870    Z=             -0.0000  Tot=              3.9080
 Quadrupole moment (field-independent basis, Debye-Ang):
   XX=            -10.0932   YY=             -7.4255   ZZ=            -14.7130
   XY=             -3.4977   XZ=              0.0000   YZ=             -0.0000

 Normal termination of Gaussian 16 at Sun Aug 28 05:26:45 2022.
