 Gaussian 16, Revision A.03,
 Gaussian 16:  ES64L-G16RevA.03 25-Dec-2016

 ------------------
 #p CCSD(T)/cc-pVTZ
 ------------------

 ------------
 H2O_H2O_3597
 ------------
 Symbolic Z-matrix:
 Charge =  0 Multiplicity = 1

                         Standard orientation:
 ---------------------------------------------------------------------
 Center     Atomic      Atomic             Coordinates (Angstroms)
 Number     Number       Type             X           Y           Z
 ---------------------------------------------------------------------
      1          8           0       -0.019844    2.531510    0.000000
      2          1           0       -0.017310    1.548912    0.000000
      3          1           0        0.908825    2.852572    0.000000
      4          8           0       -0.019844   -2.364398    0.000000
      5          1           0       -0.993705   -2.495165    0.000000
      6          1           0        0.419688   -3.243215    0.000000
 ---------------------------------------------------------------------

 SCF Done:  E(RHF) =  -152.109101360     A.U. after   10 cycles
 E2 =    -0.5258351945D+00 EUMP2 =    -0.15263493655436D+03
 CCSD(T)
 CCSD(T)= -0.15266210958D+03

 The electronic state is 1-A'.
 Alpha  occ. eigenvalues --  -20.56396 -20.54806  -1.33692  -1.32119  -0.71097
 Alpha  occ. eigenvalues --   -0.69525  -0.57207  -0.55603  -0.50815  -0.49250
 Alpha virt. eigenvalues --    0.12651   0.15451   0.19339   0.21999   0.53299
 Alpha virt. eigenvalues --    0.55270   0.56558   0.57936   0.66879   0.69232
 Alpha virt. eigenvalues --    0.78085   0.78770   0.79593   0.80468   0.82918

 Mulliken charges:
               1
     1  O   -0.516952
     2  H    0.261493
     3  H    0.254504
     4  O   -0.516107
     5  H    0.258270
     6  H    0.258793
 Sum of Mulliken charges =  -0.00000

 Dipole moment (field-independent basis, Debye):
    X=              0.6807    Y=             -2.9661    Z=              0.0000  Tot=              3.0432
 Quadrupole moment (field-independent basis, Debye-Ang):
   XX=             -9.4467   YY=             -7.4009   ZZ=            -14.7172
   XY=              6.4450   XZ=              0.0000   YZ=              0.0000

 CCSD(T)=-152.6621096\RMSD=7.012e-09\PG=CS [SG(H4O2)]\\@
 Normal termination of Gaussian 16 at Fri Aug 26 22:35:50 2022.
