 Gaussian 16, Revision A.03,
 Gaussian 16:  ES64L-G16RevA.03 25-Dec-2016

 ------------------
 #p CCSD(T)/cc-pVTZ
 ------------------

 ------------
 H2O_H2O_2132
 ------------
 Symbolic Z-matrix:
 Charge =  0 Multiplicity = 1

                         Standard orientation:
 ---------------------------------------------------------------------
 Center     Atomic      Atomic             Coordinates (Angstroms)
 Number     Number       Type             X           Y           Z
 ---------------------------------------------------------------------
      1          8           0        0.073549    1.953027    0.000000
      2          1           0        0.072668    0.970426    0.000000
      3          1           0       -0.855658    2.272527    0.000000
      4          8           0        0.073549   -1.786108   -0.000000
      5          1           0        0.507352   -2.667767   -0.000000
      6          1           0       -0.901143   -1.910536   -0.000000
 ---------------------------------------------------------------------

 SCF Done:  E(RHF) =  -152.110830322     A.U. after   10 cycles
 E2 =    -0.5264182043D+00 EUMP2 =    -0.15263724852614D+03
 CCSD(T)
 CCSD(T)= -0.15266434285D+03

 The electronic state is 1-A'.
 Alpha  occ. eigenvalues --  -20.57226 -20.54141  -1.34493  -1.31476  -0.71916
 Alpha  occ. eigenvalues --   -0.68861  -0.58089  -0.54929  -0.51618  -0.48611
 Alpha virt. eigenvalues --    0.11968   0.16500   0.19461   0.25310   0.52138
 Alpha virt. eigenvalues --    0.55797   0.56049   0.58351   0.68863   0.72266
 Alpha virt. eigenvalues --    0.76606   0.78613   0.80333   0.83396   0.83430

 Mulliken charges:
               1
     1  O   -0.521807
     2  H    0.267177
     3  H    0.246397
     4  O   -0.505417
     5  H    0.260131
     6  H    0.253519
 Sum of Mulliken charges =  -0.00000

 Dipole moment (field-independent basis, Debye):
    X=             -2.4881    Y=             -3.1099    Z=             -0.0000  Tot=              3.9827
 Quadrupole moment (field-independent basis, Debye-Ang):
   XX=             -9.8285   YY=             -8.0941   ZZ=            -14.7228
   XY=             -3.3099   XZ=             -0.0000   YZ=              0.0000

 Normal termination of Gaussian 16 at Sun Aug 28 04:36:13 2022.
