 Gaussian 16, Revision A.03,
 Gaussian 16:  ES64L-G16RevA.03 25-Dec-2016

 ------------------
 #p CCSD(T)/cc-pVTZ
 ------------------

 -----------
 H2O_H2O_722
 -----------
 Symbolic Z-matrix:
 Charge =  0 Multiplicity = 1

                         Standard orientation:
 ---------------------------------------------------------------------
 Center     Atomic      Atomic             Coordinates (Angstroms)
 Number     Number       Type             X           Y           Z
 ---------------------------------------------------------------------
      1          8           0       -0.020033    1.384700    0.000000
      2          1           0       -0.015267    0.402110    0.000000
      3          1           0        0.907903    1.707872    0.000000
      4          8           0       -0.020033   -1.217679    0.000000
      5          1           0       -0.993595   -1.350658    0.000000
      6          1           0        0.421493   -2.095494    0.000000
 ---------------------------------------------------------------------

 SCF Done:  E(RHF) =  -152.107632163     A.U. after   10 cycles
 E2 =    -0.5301973320D+00 EUMP2 =    -0.15263782949547D+03
 CCSD(T)
 CCSD(T)= -0.15266447272D+03

 The electronic state is 1-A'.
 Alpha  occ. eigenvalues --  -20.59433 -20.50579  -1.37421  -1.28587  -0.75037
 Alpha  occ. eigenvalues --   -0.68486  -0.59853  -0.54255  -0.51153  -0.45647
 Alpha virt. eigenvalues --    0.11736   0.18253   0.19131   0.33411   0.48058
 Alpha virt. eigenvalues --    0.54040   0.57432   0.66438   0.68212   0.72258
 Alpha virt. eigenvalues --    0.73852   0.76804   0.80397   0.83579   0.84052

 Mulliken charges:
               1
     1  O   -0.595541
     2  H    0.298672
     3  H    0.244253
     4  O   -0.446928
     5  H    0.260359
     6  H    0.239185
 Sum of Mulliken charges =  -0.00000

 Dipole moment (field-independent basis, Debye):
    X=              0.6630    Y=             -3.7712    Z=              0.0000  Tot=              3.8291
 Quadrupole moment (field-independent basis, Debye-Ang):
   XX=             -9.4183   YY=             -9.1161   ZZ=            -14.6948
   XY=              3.5182   XZ=              0.0000   YZ=              0.0000

 Normal termination of Gaussian 16 at Fri Aug 26 20:06:20 2022.
