 Gaussian 16, Revision A.03,
 Gaussian 16:  ES64L-G16RevA.03 25-Dec-2016

 ------------------
 #p CCSD(T)/cc-pVTZ
 ------------------

 ------------
 H2O_H2O_4181
 ------------
 Symbolic Z-matrix:
 Charge =  0 Multiplicity = 1

                         Standard orientation:
 ---------------------------------------------------------------------
 Center     Atomic      Atomic             Coordinates (Angstroms)
 Number     Number       Type             X           Y           Z
 ---------------------------------------------------------------------
      1          8           0        0.076750    2.768716    0.000000
      2          1           0        0.076239    1.786115    0.000000
      3          1           0       -0.852577    3.087867   -0.000000
      4          8           0        0.076750   -2.605493    0.000000
      5          1           0        0.452303   -3.513494    0.000000
      6          1           0       -0.903970   -2.666275   -0.000000
 ---------------------------------------------------------------------

 SCF Done:  E(RHF) =  -152.108178873     A.U. after   10 cycles
 E2 =    -0.5258515914D+00 EUMP2 =    -0.15263403046433D+03
 CCSD(T)
 CCSD(T)= -0.15266123008D+03

 The electronic state is 1-A'.
 Alpha  occ. eigenvalues --  -20.56261 -20.55037  -1.33561  -1.32343  -0.70972
 Alpha  occ. eigenvalues --   -0.69739  -0.57042  -0.55806  -0.50677  -0.49462
 Alpha virt. eigenvalues --    0.12941   0.14988   0.19384   0.21356   0.53321
 Alpha virt. eigenvalues --    0.54954   0.56558   0.57821   0.66739   0.68845
 Alpha virt. eigenvalues --    0.78216   0.79207   0.79399   0.80671   0.82613

 Mulliken charges:
               1
     1  O   -0.512125
     2  H    0.259880
     3  H    0.252005
     4  O   -0.513112
     5  H    0.259012
     6  H    0.254338
 Sum of Mulliken charges =  -0.00000

 Dipole moment (field-independent basis, Debye):
    X=             -2.6294    Y=             -2.8738    Z=             -0.0000  Tot=              3.8952
 Quadrupole moment (field-independent basis, Debye-Ang):
   XX=             -9.9490   YY=             -7.3741   ZZ=            -14.7139
   XY=             -3.6340   XZ=             -0.0000   YZ=             -0.0000

 Normal termination of Gaussian 16 at Sun Aug 28 00:28:29 2022.
