 Gaussian 16, Revision A.03,
 Gaussian 16:  ES64L-G16RevA.03 25-Dec-2016

 ------------------
 #p CCSD(T)/cc-pVTZ
 ------------------

 ------------
 H2O_H2O_4698
 ------------
 Symbolic Z-matrix:
 Charge =  0 Multiplicity = 1

                         Standard orientation:
 ---------------------------------------------------------------------
 Center     Atomic      Atomic             Coordinates (Angstroms)
 Number     Number       Type             X           Y           Z
 ---------------------------------------------------------------------
      1          8           0       -0.016575    2.968264    0.000000
      2          1           0       -0.014331    1.985665    0.000000
      3          1           0        0.912188    3.289052    0.000000
      4          8           0       -0.016575   -2.804853    0.000000
      5          1           0       -0.996923   -2.871356    0.000000
      6          1           0        0.364271   -3.710647    0.000000
 ---------------------------------------------------------------------

 SCF Done:  E(RHF) =  -152.108345462     A.U. after   10 cycles
 E2 =    -0.5257993953D+00 EUMP2 =    -0.15263414485720D+03
 CCSD(T)
 CCSD(T)= -0.15266134543D+03

 The electronic state is 1-A'.
 Alpha  occ. eigenvalues --  -20.56147 -20.55096  -1.33450  -1.32402  -0.70856
 Alpha  occ. eigenvalues --   -0.69809  -0.56939  -0.55874  -0.50568  -0.49525
 Alpha virt. eigenvalues --    0.13345   0.14812   0.19492   0.21134   0.53531
 Alpha virt. eigenvalues --    0.54847   0.56693   0.57745   0.66948   0.68537
 Alpha virt. eigenvalues --    0.78316   0.79334   0.79633   0.80724   0.82163

 Mulliken charges:
               1
     1  O   -0.513930
     2  H    0.259053
     3  H    0.254815
     4  O   -0.514421
     5  H    0.256829
     6  H    0.257655
 Sum of Mulliken charges =   0.00000

 Dipole moment (field-independent basis, Debye):
    X=              0.5701    Y=             -2.8623    Z=              0.0000  Tot=              2.9186
 Quadrupole moment (field-independent basis, Debye-Ang):
   XX=             -9.5439   YY=             -7.1316   ZZ=            -14.7145
   XY=              7.7939   XZ=              0.0000   YZ=              0.0000

 Normal termination of Gaussian 16 at Sun Aug 28 05:09:03 2022.
