 Gaussian 16, Revision A.03,
 Gaussian 16:  ES64L-G16RevA.03 25-Dec-2016

 ------------------
 #p CCSD(T)/cc-pVTZ
 ------------------

 -----------
 H2O_H2O_907
 -----------
 Symbolic Z-matrix:
 Charge =  0 Multiplicity = 1

                         Standard orientation:
 ---------------------------------------------------------------------
 Center     Atomic      Atomic             Coordinates (Angstroms)
 Number     Number       Type             X           Y           Z
 ---------------------------------------------------------------------
      1          8           0        0.073575    1.464379   -0.000000
      2          1           0        0.072382    0.481779   -0.000000
      3          1           0       -0.855530    1.784174   -0.000000
      4          8           0        0.073575   -1.297507    0.000000
      5          1           0        0.507098   -2.179303    0.000000
      6          1           0       -0.901156   -1.421626   -0.000000
 ---------------------------------------------------------------------

 SCF Done:  E(RHF) =  -152.110133316     A.U. after   10 cycles
 E2 =    -0.5294405950D+00 EUMP2 =    -0.15263957391093D+03
 CCSD(T)
 CCSD(T)= -0.15266639027D+03

 The electronic state is 1-A'.
 Alpha  occ. eigenvalues --  -20.59010 -20.51845  -1.36661  -1.29558  -0.74192
 Alpha  occ. eigenvalues --   -0.68274  -0.59679  -0.53623  -0.52534  -0.46630
 Alpha virt. eigenvalues --    0.11556   0.17051   0.19788   0.31931   0.48192
 Alpha virt. eigenvalues --    0.54272   0.59049   0.60068   0.69719   0.72414
 Alpha virt. eigenvalues --    0.74195   0.76995   0.81235   0.82728   0.84101

 Mulliken charges:
               1
     1  O   -0.561290
     2  H    0.296164
     3  H    0.231811
     4  O   -0.458454
     5  H    0.245199
     6  H    0.246570
 Sum of Mulliken charges =  -0.00000

 Dipole moment (field-independent basis, Debye):
    X=             -2.4111    Y=             -3.5779    Z=             -0.0000  Tot=              4.3145
 Quadrupole moment (field-independent basis, Debye-Ang):
   XX=             -9.8436   YY=             -8.8940   ZZ=            -14.7068
   XY=             -2.9391   XZ=              0.0000   YZ=             -0.0000

 Normal termination of Gaussian 16 at Fri Aug 26 21:16:05 2022.
