 Gaussian 16, Revision A.03,
 Gaussian 16:  ES64L-G16RevA.03 25-Dec-2016

 ------------------
 #p CCSD(T)/cc-pVTZ
 ------------------

 ------------
 H2O_H2O_3623
 ------------
 Symbolic Z-matrix:
 Charge =  0 Multiplicity = 1

                         Standard orientation:
 ---------------------------------------------------------------------
 Center     Atomic      Atomic             Coordinates (Angstroms)
 Number     Number       Type             X           Y           Z
 ---------------------------------------------------------------------
      1          8           0       -0.016608    2.539465    0.000000
      2          1           0       -0.013973    1.556867    0.000000
      3          1           0        0.912027    2.860623    0.000000
      4          8           0       -0.016608   -2.376068    0.000000
      5          1           0       -0.996930   -2.442962    0.000000
      6          1           0        0.364598   -3.281710    0.000000
 ---------------------------------------------------------------------

 SCF Done:  E(RHF) =  -152.109035918     A.U. after   10 cycles
 E2 =    -0.5258333850D+00 EUMP2 =    -0.15263486930312D+03
 CCSD(T)
 CCSD(T)= -0.15266204468D+03

 The electronic state is 1-A'.
 Alpha  occ. eigenvalues --  -20.56386 -20.54852  -1.33683  -1.32164  -0.71089
 Alpha  occ. eigenvalues --   -0.69571  -0.57196  -0.55648  -0.50805  -0.49295
 Alpha virt. eigenvalues --    0.12607   0.15422   0.19271   0.22070   0.53271
 Alpha virt. eigenvalues --    0.55289   0.56567   0.57919   0.66846   0.69199
 Alpha virt. eigenvalues --    0.78093   0.78765   0.79550   0.80648   0.82879

 Mulliken charges:
               1
     1  O   -0.516754
     2  H    0.261099
     3  H    0.254787
     4  O   -0.516024
     5  H    0.257952
     6  H    0.258940
 Sum of Mulliken charges =  -0.00000

 Dipole moment (field-independent basis, Debye):
    X=              0.5706    Y=             -2.8981    Z=              0.0000  Tot=              2.9537
 Quadrupole moment (field-independent basis, Debye-Ang):
   XX=             -9.5428   YY=             -7.5689   ZZ=            -14.7169
   XY=              6.6659   XZ=              0.0000   YZ=              0.0000

 CCSD(T)=-152.6620447\RMSD=7.024e-09\PG=CS [SG(H4O2)]\\@
 Normal termination of Gaussian 16 at Fri Aug 26 22:44:26 2022.
