 Gaussian 16, Revision A.03,
 Gaussian 16:  ES64L-G16RevA.03 25-Dec-2016

 ------------------
 #p CCSD(T)/cc-pVTZ
 ------------------

 ----------
 H2O_H2O_35
 ----------
 Symbolic Z-matrix:
 Charge =  0 Multiplicity = 1

                         Standard orientation:
 ---------------------------------------------------------------------
 Center     Atomic      Atomic             Coordinates (Angstroms)
 Number     Number       Type             X           Y           Z
 ---------------------------------------------------------------------
      1          8           0        0.063355    1.119966    0.000000
      2          1           0        0.060912    0.137368    0.000000
      3          1           0       -0.865343    1.440943   -0.000000
      4          8           0        0.063355   -0.944630    0.000000
      5          1           0        0.659584   -1.725666    0.000000
      6          1           0       -0.868830   -1.255337   -0.000000
 ---------------------------------------------------------------------

 SCF Done:  E(RHF) =  -152.032564537     A.U. after   11 cycles
 E2 =    -0.5367241379D+00 EUMP2 =    -0.15256928867482D+03
 CCSD(T)
 CCSD(T)= -0.15259477503D+03

 The electronic state is 1-A'.
 Alpha  occ. eigenvalues --  -20.62185 -20.44151  -1.44375  -1.24518  -0.81209
 Alpha  occ. eigenvalues --   -0.76671  -0.58903  -0.54328  -0.44375  -0.40977
 Alpha virt. eigenvalues --    0.10253   0.16014   0.21486   0.32270   0.48299
 Alpha virt. eigenvalues --    0.51622   0.61386   0.64056   0.70374   0.71334
 Alpha virt. eigenvalues --    0.78278   0.79401   0.81825   0.83428   0.88817

 Mulliken charges:
               1
     1  O   -0.664476
     2  H    0.278385
     3  H    0.193413
     4  O   -0.288763
     5  H    0.237928
     6  H    0.243513
 Sum of Mulliken charges =  -0.00000

 Dipole moment (field-independent basis, Debye):
    X=             -1.9060    Y=             -5.0161    Z=             -0.0000  Tot=              5.3660
 Quadrupole moment (field-independent basis, Debye-Ang):
   XX=             -9.4116   YY=            -10.2345   ZZ=            -14.5362
   XY=             -2.6115   XZ=              0.0000   YZ=             -0.0000

 34757\MP4DQ=-152.5751382\MP4SDQ=-152.578537\CCSD=-152.5777867\CCSD(T)=
 Normal termination of Gaussian 16 at Fri Aug 26 15:25:31 2022.
