 Gaussian 16, Revision A.03,
 Gaussian 16:  ES64L-G16RevA.03 25-Dec-2016

 ------------------
 #p CCSD(T)/cc-pVTZ
 ------------------

 ------------
 H2O_H2O_4203
 ------------
 Symbolic Z-matrix:
 Charge =  0 Multiplicity = 1

                         Standard orientation:
 ---------------------------------------------------------------------
 Center     Atomic      Atomic             Coordinates (Angstroms)
 Number     Number       Type             X           Y           Z
 ---------------------------------------------------------------------
      1          8           0        0.085598   -2.771290    0.000000
      2          1           0        0.085366   -1.788689    0.000000
      3          1           0       -0.843820   -3.090176    0.000000
      4          8           0        0.085598    2.621686    0.000000
      5          1           0        0.277066    3.585453    0.000000
      6          1           0       -0.888174    2.490249    0.000000
 ---------------------------------------------------------------------

 SCF Done:  E(RHF) =  -152.107929323     A.U. after   10 cycles
 E2 =    -0.5258700467D+00 EUMP2 =    -0.15263379936965D+03
 CCSD(T)
 CCSD(T)= -0.15266100510D+03

 The electronic state is 1-A'.
 Alpha  occ. eigenvalues --  -20.56262 -20.55169  -1.33563  -1.32473  -0.70977
 Alpha  occ. eigenvalues --   -0.69868  -0.57034  -0.55930  -0.50676  -0.49588
 Alpha virt. eigenvalues --    0.12731   0.14927   0.19133   0.21606   0.53207
 Alpha virt. eigenvalues --    0.54942   0.56535   0.57803   0.66776   0.68723
 Alpha virt. eigenvalues --    0.78217   0.79278   0.79302   0.81110   0.82357

 Mulliken charges:
               1
     1  O   -0.510826
     2  H    0.258794
     3  H    0.251852
     4  O   -0.511888
     5  H    0.258848
     6  H    0.253220
 Sum of Mulliken charges =  -0.00000

 Dipole moment (field-independent basis, Debye):
    X=             -2.9326    Y=              2.6326    Z=              0.0000  Tot=              3.9409
 Quadrupole moment (field-independent basis, Debye-Ang):
   XX=            -10.3982   YY=             -8.1849   ZZ=            -14.7129
   XY=              2.9102   XZ=              0.0000   YZ=              0.0000

 Normal termination of Gaussian 16 at Sun Aug 28 00:47:15 2022.
