 Gaussian 16, Revision A.03,
 Gaussian 16:  ES64L-G16RevA.03 25-Dec-2016

 ------------------
 #p CCSD(T)/cc-pVTZ
 ------------------

 ----------
 H2O_H2O_27
 ----------
 Symbolic Z-matrix:
 Charge =  0 Multiplicity = 1

                         Standard orientation:
 ---------------------------------------------------------------------
 Center     Atomic      Atomic             Coordinates (Angstroms)
 Number     Number       Type             X           Y           Z
 ---------------------------------------------------------------------
      1          8           0        0.088247   -1.103089    0.000000
      2          1           0        0.087859   -0.120487    0.000000
      3          1           0       -0.841120   -1.422122    0.000000
      4          8           0        0.088247    0.958807    0.000000
      5          1           0        0.216118    1.933053    0.000000
      6          1           0       -0.874811    0.763809    0.000000
 ---------------------------------------------------------------------

 SCF Done:  E(RHF) =  -152.015814331     A.U. after   11 cycles
 E2 =    -0.5395718912D+00 EUMP2 =    -0.15255538622220D+03
 CCSD(T)
 CCSD(T)= -0.15258082788D+03

 The electronic state is 1-A'.
 Alpha  occ. eigenvalues --  -20.61840 -20.46301  -1.45176  -1.26024  -0.84448
 Alpha  occ. eigenvalues --   -0.71926  -0.58675  -0.55684  -0.46845  -0.42747
 Alpha virt. eigenvalues --    0.10514   0.15665   0.21951   0.31344   0.49387
 Alpha virt. eigenvalues --    0.50557   0.60218   0.66564   0.70505   0.72316
 Alpha virt. eigenvalues --    0.75085   0.78731   0.80486   0.85999   0.87280

 Mulliken charges:
               1
     1  O   -0.616634
     2  H    0.249722
     3  H    0.182513
     4  O   -0.282292
     5  H    0.226184
     6  H    0.240507
 Sum of Mulliken charges =  -0.00000

 Dipole moment (field-independent basis, Debye):
    X=             -2.7089    Y=              4.2734    Z=              0.0000  Tot=              5.0597
 Quadrupole moment (field-independent basis, Debye-Ang):
   XX=            -10.4851   YY=            -10.0656   ZZ=            -14.4921
   XY=              2.1175   XZ=              0.0000   YZ=              0.0000

 Normal termination of Gaussian 16 at Fri Aug 26 15:22:10 2022.
