 Gaussian 16, Revision A.03,
 Gaussian 16:  ES64L-G16RevA.03 25-Dec-2016

 ------------------
 #p CCSD(T)/cc-pVTZ
 ------------------

 -----------
 H2O_H2O_652
 -----------
 Symbolic Z-matrix:
 Charge =  0 Multiplicity = 1

                         Standard orientation:
 ---------------------------------------------------------------------
 Center     Atomic      Atomic             Coordinates (Angstroms)
 Number     Number       Type             X           Y           Z
 ---------------------------------------------------------------------
      1          8           0        0.088242   -1.352394    0.000000
      2          1           0        0.087929   -0.369793    0.000000
      3          1           0       -0.841150   -1.671356    0.000000
      4          8           0        0.088242    1.208099    0.000000
      5          1           0        0.216187    2.182335    0.000000
      6          1           0       -0.874832    1.013175    0.000000
 ---------------------------------------------------------------------

 SCF Done:  E(RHF) =  -152.099236518     A.U. after   11 cycles
 E2 =    -0.5317972137D+00 EUMP2 =    -0.15263103373181D+03
 CCSD(T)
 CCSD(T)= -0.15265770979D+03

 The electronic state is 1-A'.
 Alpha  occ. eigenvalues --  -20.59577 -20.51758  -1.37871  -1.29647  -0.76490
 Alpha  occ. eigenvalues --   -0.68123  -0.59680  -0.54446  -0.52474  -0.46647
 Alpha virt. eigenvalues --    0.11309   0.16490   0.20711   0.32211   0.48363
 Alpha virt. eigenvalues --    0.52532   0.58811   0.63555   0.69729   0.71510
 Alpha virt. eigenvalues --    0.74019   0.78336   0.78705   0.83075   0.83242

 Mulliken charges:
               1
     1  O   -0.559742
     2  H    0.290210
     3  H    0.220841
     4  O   -0.414693
     5  H    0.232764
     6  H    0.230620
 Sum of Mulliken charges =   0.00000

 Dipole moment (field-independent basis, Debye):
    X=             -2.8565    Y=              3.3217    Z=              0.0000  Tot=              4.3810
 Quadrupole moment (field-independent basis, Debye-Ang):
   XX=            -10.5950   YY=             -9.2654   ZZ=            -14.6611
   XY=              2.3238   XZ=              0.0000   YZ=              0.0000

 Normal termination of Gaussian 16 at Fri Aug 26 19:38:30 2022.
