 Gaussian 16, Revision A.03,
 Gaussian 16:  ES64L-G16RevA.03 25-Dec-2016

 ------------------
 #p CCSD(T)/cc-pVTZ
 ------------------

 -----------
 H2O_H2O_472
 -----------
 Symbolic Z-matrix:
 Charge =  0 Multiplicity = 1

                         Standard orientation:
 ---------------------------------------------------------------------
 Center     Atomic      Atomic             Coordinates (Angstroms)
 Number     Number       Type             X           Y           Z
 ---------------------------------------------------------------------
      1          8           0       -0.020067    1.284974    0.000000
      2          1           0       -0.014905    0.302386    0.000000
      3          1           0        0.907739    1.608519    0.000000
      4          8           0       -0.020067   -1.117969    0.000000
      5          1           0       -0.993575   -1.251340    0.000000
      6          1           0        0.421814   -1.995607    0.000000
 ---------------------------------------------------------------------

 SCF Done:  E(RHF) =  -152.095940345     A.U. after   11 cycles
 E2 =    -0.5321689236D+00 EUMP2 =    -0.15262810926858D+03
 CCSD(T)
 CCSD(T)= -0.15265443032D+03

 The electronic state is 1-A'.
 Alpha  occ. eigenvalues --  -20.60214 -20.48862  -1.38993  -1.27387  -0.76748
 Alpha  occ. eigenvalues --   -0.69961  -0.58972  -0.55440  -0.49318  -0.44345
 Alpha virt. eigenvalues --    0.11414   0.17907   0.19696   0.34019   0.47588
 Alpha virt. eigenvalues --    0.53282   0.58828   0.68342   0.70242   0.72133
 Alpha virt. eigenvalues --    0.74672   0.76947   0.79041   0.83846   0.84349

 Mulliken charges:
               1
     1  O   -0.622354
     2  H    0.298097
     3  H    0.237857
     4  O   -0.408494
     5  H    0.259820
     6  H    0.235074
 Sum of Mulliken charges =  -0.00000

 Dipole moment (field-independent basis, Debye):
    X=              0.6493    Y=             -4.0753    Z=              0.0000  Tot=              4.1267
 Quadrupole moment (field-independent basis, Debye-Ang):
   XX=             -9.3918   YY=             -9.4381   ZZ=            -14.6571
   XY=              3.2460   XZ=              0.0000   YZ=              0.0000

 Normal termination of Gaussian 16 at Fri Aug 26 18:29:49 2022.
