 Gaussian 16, Revision A.03,
 Gaussian 16:  ES64L-G16RevA.03 25-Dec-2016

 ------------------
 #p CCSD(T)/cc-pVTZ
 ------------------

 ------------
 H2O_H2O_3609
 ------------
 Symbolic Z-matrix:
 Charge =  0 Multiplicity = 1

                         Standard orientation:
 ---------------------------------------------------------------------
 Center     Atomic      Atomic             Coordinates (Angstroms)
 Number     Number       Type             X           Y           Z
 ---------------------------------------------------------------------
      1          8           0        0.066753    2.544736   -0.000000
      2          1           0        0.065849    1.562135   -0.000000
      3          1           0       -0.862446    2.864258    0.000000
      4          8           0        0.066753   -2.371621   -0.000000
      5          1           0        0.611906   -3.189127   -0.000000
      6          1           0       -0.883364   -2.622184    0.000000
 ---------------------------------------------------------------------

 SCF Done:  E(RHF) =  -152.108780860     A.U. after   10 cycles
 E2 =    -0.5258750930D+00 EUMP2 =    -0.15263465595255D+03
 CCSD(T)
 CCSD(T)= -0.15266183398D+03

 The electronic state is 1-A'.
 Alpha  occ. eigenvalues --  -20.56411 -20.54786  -1.33705  -1.32096  -0.71112
 Alpha  occ. eigenvalues --   -0.69489  -0.57207  -0.55569  -0.50825  -0.49221
 Alpha virt. eigenvalues --    0.12688   0.15391   0.19493   0.21694   0.53375
 Alpha virt. eigenvalues --    0.55052   0.56469   0.58004   0.66869   0.69245
 Alpha virt. eigenvalues --    0.78078   0.78840   0.79626   0.80083   0.82906

 Mulliken charges:
               1
     1  O   -0.514461
     2  H    0.261934
     3  H    0.251552
     4  O   -0.514257
     5  H    0.259803
     6  H    0.255428
 Sum of Mulliken charges =  -0.00000

 Dipole moment (field-independent basis, Debye):
    X=             -2.2821    Y=             -3.0740    Z=              0.0000  Tot=              3.8285
 Quadrupole moment (field-independent basis, Debye-Ang):
   XX=             -9.5624   YY=             -7.1254   ZZ=            -14.7161
   XY=             -4.1091   XZ=             -0.0000   YZ=              0.0000

 Normal termination of Gaussian 16 at Fri Aug 26 22:39:46 2022.
