 Gaussian 16, Revision A.03,
 Gaussian 16:  ES64L-G16RevA.03 25-Dec-2016

 ------------------
 #p CCSD(T)/cc-pVTZ
 ------------------

 ------------
 H2O_H2O_2541
 ------------
 Symbolic Z-matrix:
 Charge =  0 Multiplicity = 1

                         Standard orientation:
 ---------------------------------------------------------------------
 Center     Atomic      Atomic             Coordinates (Angstroms)
 Number     Number       Type             X           Y           Z
 ---------------------------------------------------------------------
      1          8           0        0.041161    2.119637    0.000000
      2          1           0        0.038994    1.137038    0.000000
      3          1           0       -0.887627    2.440352    0.000000
      4          8           0        0.041161   -1.939731   -0.000000
      5          1           0        0.891034   -2.432907   -0.000000
      6          1           0       -0.700980   -2.583728   -0.000000
 ---------------------------------------------------------------------

 SCF Done:  E(RHF) =  -152.110892908     A.U. after   10 cycles
 E2 =    -0.5260689841D+00 EUMP2 =    -0.15263696189222D+03
 CCSD(T)
 CCSD(T)= -0.15266407077D+03

 The electronic state is 1-A'.
 Alpha  occ. eigenvalues --  -20.56915 -20.54147  -1.34178  -1.31479  -0.71573
 Alpha  occ. eigenvalues --   -0.68877  -0.57773  -0.54967  -0.51314  -0.48623
 Alpha virt. eigenvalues --    0.12367   0.16416   0.19326   0.24027   0.52764
 Alpha virt. eigenvalues --    0.55562   0.56370   0.58926   0.69059   0.70513
 Alpha virt. eigenvalues --    0.77427   0.78751   0.80215   0.80692   0.83672

 Mulliken charges:
               1
     1  O   -0.523459
     2  H    0.266419
     3  H    0.251220
     4  O   -0.511867
     5  H    0.260526
     6  H    0.257162
 Sum of Mulliken charges =  -0.00000

 Dipole moment (field-independent basis, Debye):
    X=             -1.3994    Y=             -3.2934    Z=             -0.0000  Tot=              3.5784
 Quadrupole moment (field-independent basis, Debye-Ang):
   XX=             -9.1497   YY=             -7.4990   ZZ=            -14.7231
   XY=             -4.6055   XZ=             -0.0000   YZ=              0.0000

 Normal termination of Gaussian 16 at Fri Aug 26 15:28:56 2022.
