 Gaussian 16, Revision A.03,
 Gaussian 16:  ES64L-G16RevA.03 25-Dec-2016

 ------------------
 #p CCSD(T)/cc-pVTZ
 ------------------

 ------------
 H2O_H2O_4975
 ------------
 Symbolic Z-matrix:
 Charge =  0 Multiplicity = 1

                         Standard orientation:
 ---------------------------------------------------------------------
 Center     Atomic      Atomic             Coordinates (Angstroms)
 Number     Number       Type             X           Y           Z
 ---------------------------------------------------------------------
      1          8           0        0.092949   -3.071286    0.000000
      2          1           0        0.092949   -2.088685    0.000000
      3          1           0       -0.836544   -3.389953    0.000000
      4          8           0        0.092949    2.938499    0.000000
      5          1           0        0.092949    3.921101    0.000000
      6          1           0       -0.836544    2.619832    0.000000
 ---------------------------------------------------------------------

 SCF Done:  E(RHF) =  -152.107576912     A.U. after   10 cycles
 E2 =    -0.5258667023D+00 EUMP2 =    -0.15263344361432D+03
 CCSD(T)
 CCSD(T)= -0.15266066067D+03

 The electronic state is 1-A'.
 Alpha  occ. eigenvalues --  -20.56137 -20.55391  -1.33438  -1.32692  -0.70851
 Alpha  occ. eigenvalues --   -0.70091  -0.56895  -0.56143  -0.50549  -0.49804
 Alpha virt. eigenvalues --    0.13133   0.14526   0.19053   0.21246   0.53469
 Alpha virt. eigenvalues --    0.54645   0.56610   0.57527   0.67126   0.68219
 Alpha virt. eigenvalues --    0.78339   0.79071   0.79651   0.80908   0.81685

 Mulliken charges:
               1
     1  O   -0.509400
     2  H    0.256775
     3  H    0.252611
     4  O   -0.510169
     5  H    0.257487
     6  H    0.252696
 Sum of Mulliken charges =  -0.00000

 Dipole moment (field-independent basis, Debye):
    X=             -3.1914    Y=              2.3221    Z=              0.0000  Tot=              3.9468
 Quadrupole moment (field-independent basis, Debye-Ang):
   XX=            -10.8437   YY=             -9.2982   ZZ=            -14.7117
   XY=              2.1602   XZ=              0.0000   YZ=              0.0000

 Normal termination of Gaussian 16 at Sun Aug 28 07:20:29 2022.
