 Gaussian 16, Revision A.03,
 Gaussian 16:  ES64L-G16RevA.03 25-Dec-2016

 ------------------
 #p CCSD(T)/cc-pVTZ
 ------------------

 ------------
 H2O_H2O_1032
 ------------
 Symbolic Z-matrix:
 Charge =  0 Multiplicity = 1

                         Standard orientation:
 ---------------------------------------------------------------------
 Center     Atomic      Atomic             Coordinates (Angstroms)
 Number     Number       Type             X           Y           Z
 ---------------------------------------------------------------------
      1          8           0        0.073572    1.514242   -0.000000
      2          1           0        0.072420    0.531642   -0.000000
      3          1           0       -0.855547    1.833998   -0.000000
      4          8           0        0.073572   -1.347364    0.000000
      5          1           0        0.507133   -2.229141    0.000000
      6          1           0       -0.901154   -1.471522    0.000000
 ---------------------------------------------------------------------

 SCF Done:  E(RHF) =  -152.111382104     A.U. after   10 cycles
 E2 =    -0.5288180946D+00 EUMP2 =    -0.15264020019886D+03
 CCSD(T)
 CCSD(T)= -0.15266708540D+03

 The electronic state is 1-A'.
 Alpha  occ. eigenvalues --  -20.58732 -20.52294  -1.36256  -1.29905  -0.73762
 Alpha  occ. eigenvalues --   -0.68142  -0.59618  -0.53273  -0.52999  -0.46997
 Alpha virt. eigenvalues --    0.11635   0.17062   0.19689   0.31296   0.48345
 Alpha virt. eigenvalues --    0.54524   0.58815   0.59283   0.69662   0.72655
 Alpha virt. eigenvalues --    0.74239   0.76712   0.81659   0.82365   0.84161

 Mulliken charges:
               1
     1  O   -0.553472
     2  H    0.291862
     3  H    0.234549
     4  O   -0.468804
     5  H    0.247230
     6  H    0.248635
 Sum of Mulliken charges =  -0.00000

 Dipole moment (field-independent basis, Debye):
    X=             -2.4250    Y=             -3.4897    Z=              0.0000  Tot=              4.2496
 Quadrupole moment (field-independent basis, Debye-Ang):
   XX=             -9.8446   YY=             -8.7809   ZZ=            -14.7149
   XY=             -2.9828   XZ=              0.0000   YZ=             -0.0000

 Normal termination of Gaussian 16 at Fri Aug 26 22:01:51 2022.
