 Gaussian 16, Revision A.03,
 Gaussian 16:  ES64L-G16RevA.03 25-Dec-2016

 ------------------
 #p CCSD(T)/cc-pVTZ
 ------------------

 ------------
 H2O_H2O_2177
 ------------
 Symbolic Z-matrix:
 Charge =  0 Multiplicity = 1

                         Standard orientation:
 ---------------------------------------------------------------------
 Center     Atomic      Atomic             Coordinates (Angstroms)
 Number     Number       Type             X           Y           Z
 ---------------------------------------------------------------------
      1          8           0        0.088234   -1.960690    0.000000
      2          1           0        0.088022   -0.978089    0.000000
      3          1           0       -0.841190   -2.279557    0.000000
      4          8           0        0.088234    1.816377    0.000000
      5          1           0        0.216280    2.790601    0.000000
      6          1           0       -0.874859    1.621552    0.000000
 ---------------------------------------------------------------------

 SCF Done:  E(RHF) =  -152.109356740     A.U. after   10 cycles
 E2 =    -0.5264969350D+00 EUMP2 =    -0.15263585367468D+03
 CCSD(T)
 CCSD(T)= -0.15266298179D+03

 The electronic state is 1-A'.
 Alpha  occ. eigenvalues --  -20.57163 -20.54676  -1.34450  -1.31991  -0.71927
 Alpha  occ. eigenvalues --   -0.69339  -0.57964  -0.55430  -0.51555  -0.49109
 Alpha virt. eigenvalues --    0.11603   0.16128   0.19883   0.24947   0.52597
 Alpha virt. eigenvalues --    0.55786   0.56669   0.57602   0.68453   0.72779
 Alpha virt. eigenvalues --    0.76663   0.79273   0.79906   0.81085   0.83276

 Mulliken charges:
               1
     1  O   -0.515976
     2  H    0.265094
     3  H    0.245658
     4  O   -0.502261
     5  H    0.258873
     6  H    0.248613
 Sum of Mulliken charges =  -0.00000

 Dipole moment (field-independent basis, Debye):
    X=             -2.9824    Y=              2.6725    Z=              0.0000  Tot=              4.0046
 Quadrupole moment (field-independent basis, Debye-Ang):
   XX=            -10.5795   YY=             -8.7554   ZZ=            -14.7166
   XY=              2.5149   XZ=              0.0000   YZ=              0.0000

 Normal termination of Gaussian 16 at Sun Aug 28 05:08:16 2022.
