 Gaussian 16, Revision A.03,
 Gaussian 16:  ES64L-G16RevA.03 25-Dec-2016

 ------------------
 #p CCSD(T)/cc-pVTZ
 ------------------

 -----------
 H2O_H2O_677
 -----------
 Symbolic Z-matrix:
 Charge =  0 Multiplicity = 1

                         Standard orientation:
 ---------------------------------------------------------------------
 Center     Atomic      Atomic             Coordinates (Angstroms)
 Number     Number       Type             X           Y           Z
 ---------------------------------------------------------------------
      1          8           0        0.088242   -1.362366    0.000000
      2          1           0        0.087931   -0.379765    0.000000
      3          1           0       -0.841151   -1.681326    0.000000
      4          8           0        0.088242    1.218071    0.000000
      5          1           0        0.216189    2.192306    0.000000
      6          1           0       -0.874833    1.023148    0.000000
 ---------------------------------------------------------------------

 SCF Done:  E(RHF) =  -152.100236964     A.U. after   11 cycles
 E2 =    -0.5315844456D+00 EUMP2 =    -0.15263182140987D+03
 CCSD(T)
 CCSD(T)= -0.15265852438D+03

 The electronic state is 1-A'.
 Alpha  occ. eigenvalues --  -20.59506 -20.51885  -1.37729  -1.29740  -0.76300
 Alpha  occ. eigenvalues --   -0.68096  -0.59709  -0.54342  -0.52600  -0.46747
 Alpha virt. eigenvalues --    0.11327   0.16499   0.20683   0.32146   0.48331
 Alpha virt. eigenvalues --    0.52601   0.58770   0.63320   0.69556   0.71522
 Alpha virt. eigenvalues --    0.74030   0.78286   0.78853   0.83089   0.83131

 Mulliken charges:
               1
     1  O   -0.558090
     2  H    0.290270
     3  H    0.221777
     4  O   -0.417868
     5  H    0.233097
     6  H    0.230812
 Sum of Mulliken charges =  -0.00000

 Dipole moment (field-independent basis, Debye):
    X=             -2.8605    Y=              3.2966    Z=              0.0000  Tot=              4.3647
 Quadrupole moment (field-independent basis, Debye-Ang):
   XX=            -10.5966   YY=             -9.2453   ZZ=            -14.6646
   XY=              2.3294   XZ=              0.0000   YZ=              0.0000

 Normal termination of Gaussian 16 at Fri Aug 26 19:47:32 2022.
