 Gaussian 16, Revision A.03,
 Gaussian 16:  ES64L-G16RevA.03 25-Dec-2016

 ------------------
 #p CCSD(T)/cc-pVTZ
 ------------------

 ------------
 H2O_H2O_3797
 ------------
 Symbolic Z-matrix:
 Charge =  0 Multiplicity = 1

                         Standard orientation:
 ---------------------------------------------------------------------
 Center     Atomic      Atomic             Coordinates (Angstroms)
 Number     Number       Type             X           Y           Z
 ---------------------------------------------------------------------
      1          8           0       -0.019837    2.611287    0.000000
      2          1           0       -0.017383    1.628689    0.000000
      3          1           0        0.908857    2.932274    0.000000
      4          8           0       -0.019837   -2.444172    0.000000
      5          1           0       -0.993709   -2.574860    0.000000
      6          1           0        0.419624   -3.323024    0.000000
 ---------------------------------------------------------------------

 SCF Done:  E(RHF) =  -152.108916716     A.U. after   10 cycles
 E2 =    -0.5258200084D+00 EUMP2 =    -0.15263473672395D+03
 CCSD(T)
 CCSD(T)= -0.15266191698D+03

 The electronic state is 1-A'.
 Alpha  occ. eigenvalues --  -20.56336 -20.54866  -1.33634  -1.32177  -0.71040
 Alpha  occ. eigenvalues --   -0.69583  -0.57144  -0.55659  -0.50756  -0.49306
 Alpha virt. eigenvalues --    0.12787   0.15313   0.19363   0.21774   0.53278
 Alpha virt. eigenvalues --    0.55177   0.56588   0.57878   0.66729   0.69133
 Alpha virt. eigenvalues --    0.78139   0.78898   0.79541   0.80504   0.82850

 Mulliken charges:
               1
     1  O   -0.516242
     2  H    0.261054
     3  H    0.254552
     4  O   -0.516059
     5  H    0.258042
     6  H    0.258654
 Sum of Mulliken charges =  -0.00000

 Dipole moment (field-independent basis, Debye):
    X=              0.6807    Y=             -2.9563    Z=              0.0000  Tot=              3.0337
 Quadrupole moment (field-independent basis, Debye-Ang):
   XX=             -9.4468   YY=             -7.3103   ZZ=            -14.7165
   XY=              6.6461   XZ=              0.0000   YZ=              0.0000

 Normal termination of Gaussian 16 at Fri Aug 26 23:43:38 2022.
