 Gaussian 16, Revision A.03,
 Gaussian 16:  ES64L-G16RevA.03 25-Dec-2016

 ------------------
 #p CCSD(T)/cc-pVTZ
 ------------------

 ------------
 H2O_H2O_2457
 ------------
 Symbolic Z-matrix:
 Charge =  0 Multiplicity = 1

                         Standard orientation:
 ---------------------------------------------------------------------
 Center     Atomic      Atomic             Coordinates (Angstroms)
 Number     Number       Type             X           Y           Z
 ---------------------------------------------------------------------
      1          8           0        0.073544    2.082667    0.000000
      2          1           0        0.072720    1.100065    0.000000
      3          1           0       -0.855681    2.402112    0.000000
      4          8           0        0.073544   -1.915739   -0.000000
      5          1           0        0.507399   -2.797372   -0.000000
      6          1           0       -0.901141   -2.040222   -0.000000
 ---------------------------------------------------------------------

 SCF Done:  E(RHF) =  -152.110123797     A.U. after   10 cycles
 E2 =    -0.5262016582D+00 EUMP2 =    -0.15263632545568D+03
 CCSD(T)
 CCSD(T)= -0.15266344520D+03

 The electronic state is 1-A'.
 Alpha  occ. eigenvalues --  -20.56972 -20.54372  -1.34243  -1.31696  -0.71661
 Alpha  occ. eigenvalues --   -0.69075  -0.57796  -0.55163  -0.51368  -0.48827
 Alpha virt. eigenvalues --    0.12035   0.16236   0.19451   0.24103   0.53177
 Alpha virt. eigenvalues --    0.55653   0.56115   0.58543   0.68809   0.70814
 Alpha virt. eigenvalues --    0.77300   0.79019   0.80051   0.81169   0.83296

 Mulliken charges:
               1
     1  O   -0.519083
     2  H    0.265606
     3  H    0.247968
     4  O   -0.507967
     5  H    0.259731
     6  H    0.253745
 Sum of Mulliken charges =   0.00000

 Dipole moment (field-independent basis, Debye):
    X=             -2.4962    Y=             -3.0610    Z=             -0.0000  Tot=              3.9498
 Quadrupole moment (field-independent basis, Debye-Ang):
   XX=             -9.8231   YY=             -7.9385   ZZ=            -14.7201
   XY=             -3.3990   XZ=             -0.0000   YZ=              0.0000

 Normal termination of Gaussian 16 at Sun Aug 28 07:28:22 2022.
