 Gaussian 16, Revision A.03,
 Gaussian 16:  ES64L-G16RevA.03 25-Dec-2016

 ------------------
 #p CCSD(T)/cc-pVTZ
 ------------------

 ------------
 H2O_H2O_4484
 ------------
 Symbolic Z-matrix:
 Charge =  0 Multiplicity = 1

                         Standard orientation:
 ---------------------------------------------------------------------
 Center     Atomic      Atomic             Coordinates (Angstroms)
 Number     Number       Type             X           Y           Z
 ---------------------------------------------------------------------
      1          8           0        0.066744    2.893761    0.000000
      2          1           0        0.065952    1.911160    0.000000
      3          1           0       -0.862492    3.213177   -0.000000
      4          8           0        0.066744   -2.720631    0.000000
      5          1           0        0.611989   -3.538074    0.000000
      6          1           0       -0.883346   -2.971302   -0.000000
 ---------------------------------------------------------------------

 SCF Done:  E(RHF) =  -152.108232555     A.U. after   10 cycles
 E2 =    -0.5258270515D+00 EUMP2 =    -0.15263405960667D+03
 CCSD(T)
 CCSD(T)= -0.15266126035D+03

 The electronic state is 1-A'.
 Alpha  occ. eigenvalues --  -20.56195 -20.55007  -1.33496  -1.32314  -0.70903
 Alpha  occ. eigenvalues --   -0.69712  -0.56981  -0.55779  -0.50613  -0.49434
 Alpha virt. eigenvalues --    0.13275   0.14887   0.19596   0.21070   0.53552
 Alpha virt. eigenvalues --    0.54864   0.56634   0.57776   0.66846   0.68721
 Alpha virt. eigenvalues --    0.78275   0.79425   0.79501   0.80419   0.82588

 Mulliken charges:
               1
     1  O   -0.512731
     2  H    0.260007
     3  H    0.252600
     4  O   -0.513645
     5  H    0.258547
     6  H    0.255222
 Sum of Mulliken charges =  -0.00000

 Dipole moment (field-independent basis, Debye):
    X=             -2.2886    Y=             -3.0396    Z=             -0.0000  Tot=              3.8049
 Quadrupole moment (field-independent basis, Debye-Ang):
   XX=             -9.5601   YY=             -6.6515   ZZ=            -14.7141
   XY=             -4.4277   XZ=              0.0000   YZ=             -0.0000

 Normal termination of Gaussian 16 at Sun Aug 28 03:16:57 2022.
