 Gaussian 16, Revision A.03,
 Gaussian 16:  ES64L-G16RevA.03 25-Dec-2016

 ------------------
 #p CCSD(T)/cc-pVTZ
 ------------------

 ------------
 H2O_H2O_1365
 ------------
 Symbolic Z-matrix:
 Charge =  0 Multiplicity = 1

                         Standard orientation:
 ---------------------------------------------------------------------
 Center     Atomic      Atomic             Coordinates (Angstroms)
 Number     Number       Type             X           Y           Z
 ---------------------------------------------------------------------
      1          8           0        0.044933    1.651187   -0.000000
      2          1           0        0.042318    0.668589   -0.000000
      3          1           0       -0.883709    1.972326   -0.000000
      4          8           0        0.044933   -1.470861    0.000000
      5          1           0        0.860480   -2.018938    0.000000
      6          1           0       -0.738010   -2.064583    0.000000
 ---------------------------------------------------------------------

 SCF Done:  E(RHF) =  -152.114171178     A.U. after   10 cycles
 E2 =    -0.5274385153D+00 EUMP2 =    -0.15264160969342D+03
 CCSD(T)
 CCSD(T)= -0.15266857804D+03

 The electronic state is 1-A'.
 Alpha  occ. eigenvalues --  -20.58162 -20.52615  -1.35476  -1.30106  -0.72788
 Alpha  occ. eigenvalues --   -0.67929  -0.59292  -0.53386  -0.52598  -0.47252
 Alpha virt. eigenvalues --    0.12022   0.17797   0.18910   0.29867   0.49549
 Alpha virt. eigenvalues --    0.54643   0.56030   0.60021   0.68958   0.71762
 Alpha virt. eigenvalues --    0.73795   0.76930   0.81815   0.82896   0.84935

 Mulliken charges:
               1
     1  O   -0.547856
     2  H    0.282505
     3  H    0.245116
     4  O   -0.504788
     5  H    0.265947
     6  H    0.259075
 Sum of Mulliken charges =  -0.00000

 Dipole moment (field-independent basis, Debye):
    X=             -1.5014    Y=             -3.5932    Z=              0.0000  Tot=              3.8942
 Quadrupole moment (field-independent basis, Debye-Ang):
   XX=             -9.1602   YY=             -8.3912   ZZ=            -14.7352
   XY=             -3.6906   XZ=              0.0000   YZ=             -0.0000

 Normal termination of Gaussian 16 at Sat Aug 27 00:08:24 2022.
