 Gaussian 16, Revision A.03,
 Gaussian 16:  ES64L-G16RevA.03 25-Dec-2016

 ------------------
 #p CCSD(T)/cc-pVTZ
 ------------------

 -----------
 H2O_H2O_244
 -----------
 Symbolic Z-matrix:
 Charge =  0 Multiplicity = 1

                         Standard orientation:
 ---------------------------------------------------------------------
 Center     Atomic      Atomic             Coordinates (Angstroms)
 Number     Number       Type             X           Y           Z
 ---------------------------------------------------------------------
      1          8           0        0.030406    1.199817    0.000000
      2          1           0        0.025617    0.217227    0.000000
      3          1           0       -0.897522    1.523010    0.000000
      4          8           0        0.030406   -1.024359   -0.000000
      5          1           0        0.959311   -1.344738   -0.000000
      6          1           0       -0.573908   -1.799157   -0.000000
 ---------------------------------------------------------------------

 SCF Done:  E(RHF) =  -152.074417617     A.U. after   11 cycles
 E2 =    -0.5340820473D+00 EUMP2 =    -0.15260849966408D+03
 CCSD(T)
 CCSD(T)= -0.15263440087D+03

 The electronic state is 1-A'.
 Alpha  occ. eigenvalues --  -20.61196 -20.46279  -1.41211  -1.25682  -0.78112
 Alpha  occ. eigenvalues --   -0.73722  -0.57035  -0.56772  -0.46615  -0.42426
 Alpha virt. eigenvalues --    0.10869   0.17243   0.20450   0.33743   0.46942
 Alpha virt. eigenvalues --    0.52669   0.60971   0.68107   0.70184   0.71703
 Alpha virt. eigenvalues --    0.77632   0.79034   0.79255   0.83565   0.84576

 Mulliken charges:
               1
     1  O   -0.652086
     2  H    0.297554
     3  H    0.222135
     4  O   -0.367395
     5  H    0.261462
     6  H    0.238330
 Sum of Mulliken charges =  -0.00000

 Dipole moment (field-independent basis, Debye):
    X=             -0.9463    Y=             -4.6397    Z=             -0.0000  Tot=              4.7352
 Quadrupole moment (field-independent basis, Debye-Ang):
   XX=             -9.1612   YY=             -9.8567   ZZ=            -14.6114
   XY=             -2.8812   XZ=             -0.0000   YZ=             -0.0000

 Normal termination of Gaussian 16 at Fri Aug 26 16:52:13 2022.
