 Gaussian 16, Revision A.03,
 Gaussian 16:  ES64L-G16RevA.03 25-Dec-2016

 ------------------
 #p CCSD(T)/cc-pVTZ
 ------------------

 ------------
 H2O_H2O_1933
 ------------
 Symbolic Z-matrix:
 Charge =  0 Multiplicity = 1

                         Standard orientation:
 ---------------------------------------------------------------------
 Center     Atomic      Atomic             Coordinates (Angstroms)
 Number     Number       Type             X           Y           Z
 ---------------------------------------------------------------------
      1          8           0        0.070218    1.875042    0.000000
      2          1           0        0.069139    0.892441    0.000000
      3          1           0       -0.858925    2.194729   -0.000000
      4          8           0        0.070218   -1.704829    0.000000
      5          1           0        0.560584   -2.556326    0.000000
      6          1           0       -0.894287   -1.892544   -0.000000
 ---------------------------------------------------------------------

 SCF Done:  E(RHF) =  -152.111561884     A.U. after   10 cycles
 E2 =    -0.5265878076D+00 EUMP2 =    -0.15263814969194D+03
 CCSD(T)
 CCSD(T)= -0.15266522144D+03

 The electronic state is 1-A'.
 Alpha  occ. eigenvalues --  -20.57419 -20.53876  -1.34683  -1.31228  -0.72100
 Alpha  occ. eigenvalues --   -0.68635  -0.58329  -0.54665  -0.51809  -0.48367
 Alpha virt. eigenvalues --    0.11980   0.16730   0.19396   0.26268   0.51274
 Alpha virt. eigenvalues --    0.55535   0.56209   0.58501   0.69052   0.72751
 Alpha virt. eigenvalues --    0.75993   0.78030   0.80620   0.83305   0.83829

 Mulliken charges:
               1
     1  O   -0.525259
     2  H    0.269051
     3  H    0.245539
     4  O   -0.504521
     5  H    0.260949
     6  H    0.254240
 Sum of Mulliken charges =  -0.00000

 Dipole moment (field-independent basis, Debye):
    X=             -2.3697    Y=             -3.2120    Z=             -0.0000  Tot=              3.9915
 Quadrupole moment (field-independent basis, Debye-Ang):
   XX=             -9.6993   YY=             -8.1211   ZZ=            -14.7259
   XY=             -3.3798   XZ=              0.0000   YZ=             -0.0000

 Normal termination of Gaussian 16 at Sun Aug 28 02:53:26 2022.
