 Gaussian 16, Revision A.03,
 Gaussian 16:  ES64L-G16RevA.03 25-Dec-2016

 ------------------
 #p CCSD(T)/cc-pVTZ
 ------------------

 ------------
 H2O_H2O_2479
 ------------
 Symbolic Z-matrix:
 Charge =  0 Multiplicity = 1

                         Standard orientation:
 ---------------------------------------------------------------------
 Center     Atomic      Atomic             Coordinates (Angstroms)
 Number     Number       Type             X           Y           Z
 ---------------------------------------------------------------------
      1          8           0        0.082808   -2.085892    0.000000
      2          1           0        0.082379   -1.103291    0.000000
      3          1           0       -0.846546   -2.404964    0.000000
      4          8           0        0.082808    1.931383    0.000000
      5          1           0        0.336709    2.880614    0.000000
      6          1           0       -0.897462    1.863718    0.000000
 ---------------------------------------------------------------------

 SCF Done:  E(RHF) =  -152.109457355     A.U. after   10 cycles
 E2 =    -0.5262395580D+00 EUMP2 =    -0.15263569691278D+03
 CCSD(T)
 CCSD(T)= -0.15266283194D+03

 The electronic state is 1-A'.
 Alpha  occ. eigenvalues --  -20.56948 -20.54623  -1.34228  -1.31938  -0.71663
 Alpha  occ. eigenvalues --   -0.69309  -0.57748  -0.55396  -0.51344  -0.49062
 Alpha virt. eigenvalues --    0.11808   0.16059   0.19593   0.24002   0.53528
 Alpha virt. eigenvalues --    0.55505   0.56385   0.58147   0.68679   0.70825
 Alpha virt. eigenvalues --    0.77324   0.79248   0.79842   0.80698   0.83155

 Mulliken charges:
               1
     1  O   -0.516227
     2  H    0.264327
     3  H    0.247497
     4  O   -0.506492
     5  H    0.259333
     6  H    0.251562
 Sum of Mulliken charges =  -0.00000

 Dipole moment (field-independent basis, Debye):
    X=             -2.8095    Y=              2.8258    Z=              0.0000  Tot=              3.9848
 Quadrupole moment (field-independent basis, Debye-Ang):
   XX=            -10.2636   YY=             -8.3443   ZZ=            -14.7175
   XY=              2.9081   XZ=              0.0000   YZ=              0.0000

 Normal termination of Gaussian 16 at Sun Aug 28 07:38:07 2022.
