 Gaussian 16, Revision A.03,
 Gaussian 16:  ES64L-G16RevA.03 25-Dec-2016

 ------------------
 #p CCSD(T)/cc-pVTZ
 ------------------

 ------------
 H2O_H2O_2574
 ------------
 Symbolic Z-matrix:
 Charge =  0 Multiplicity = 1

                         Standard orientation:
 ---------------------------------------------------------------------
 Center     Atomic      Atomic             Coordinates (Angstroms)
 Number     Number       Type             X           Y           Z
 ---------------------------------------------------------------------
      1          8           0       -0.013546    2.118396    0.000000
      2          1           0       -0.010240    1.135800    0.000000
      3          1           0        0.914870    2.440188    0.000000
      4          8           0       -0.013546   -1.959144    0.000000
      5          1           0       -0.996142   -1.962449    0.000000
      6          1           0        0.308246   -2.887559    0.000000
 ---------------------------------------------------------------------

 SCF Done:  E(RHF) =  -152.110452773     A.U. after   10 cycles
 E2 =    -0.5260499834D+00 EUMP2 =    -0.15263650275630D+03
 CCSD(T)
 CCSD(T)= -0.15266362563D+03

 The electronic state is 1-A'.
 Alpha  occ. eigenvalues --  -20.56850 -20.54475  -1.34132  -1.31801  -0.71548
 Alpha  occ. eigenvalues --   -0.69210  -0.57701  -0.55290  -0.51260  -0.48944
 Alpha virt. eigenvalues --    0.12165   0.16273   0.19251   0.24253   0.54067
 Alpha virt. eigenvalues --    0.55421   0.56167   0.58497   0.68666   0.70465
 Alpha virt. eigenvalues --    0.77466   0.79217   0.79923   0.80754   0.83553

 Mulliken charges:
               1
     1  O   -0.523503
     2  H    0.264175
     3  H    0.254843
     4  O   -0.512832
     5  H    0.258828
     6  H    0.258489
 Sum of Mulliken charges =  -0.00000

 Dipole moment (field-independent basis, Debye):
    X=              0.4675    Y=             -2.9031    Z=              0.0000  Tot=              2.9405
 Quadrupole moment (field-independent basis, Debye-Ang):
   XX=             -9.6489   YY=             -8.1335   ZZ=            -14.7212
   XY=              5.7203   XZ=              0.0000   YZ=              0.0000

 Normal termination of Gaussian 16 at Fri Aug 26 15:42:59 2022.
