 Gaussian 16, Revision A.03,
 Gaussian 16:  ES64L-G16RevA.03 25-Dec-2016

 ------------------
 #p CCSD(T)/cc-pVTZ
 ------------------

 ------------
 H2O_H2O_2801
 ------------
 Symbolic Z-matrix:
 Charge =  0 Multiplicity = 1

                         Standard orientation:
 ---------------------------------------------------------------------
 Center     Atomic      Atomic             Coordinates (Angstroms)
 Number     Number       Type             X           Y           Z
 ---------------------------------------------------------------------
      1          8           0        0.090685   -2.206944    0.000000
      2          1           0        0.090595   -1.224343    0.000000
      3          1           0       -0.838779   -2.525696    0.000000
      4          8           0        0.090685    2.068237    0.000000
      5          1           0        0.154861    3.048740    0.000000
      6          1           0       -0.857636    1.810957    0.000000
 ---------------------------------------------------------------------

 SCF Done:  E(RHF) =  -152.108399658     A.U. after   10 cycles
 E2 =    -0.5261395402D+00 EUMP2 =    -0.15263453919785D+03
 CCSD(T)
 CCSD(T)= -0.15266171008D+03

 The electronic state is 1-A'.
 Alpha  occ. eigenvalues --  -20.56750 -20.55020  -1.34041  -1.32324  -0.71481
 Alpha  occ. eigenvalues --   -0.69697  -0.57518  -0.55775  -0.51150  -0.49439
 Alpha virt. eigenvalues --    0.11565   0.15708   0.19543   0.23469   0.54233
 Alpha virt. eigenvalues --    0.54942   0.56473   0.58102   0.68430   0.69316
 Alpha virt. eigenvalues --    0.77690   0.78562   0.79452   0.80803   0.82816

 Mulliken charges:
               1
     1  O   -0.511933
     2  H    0.261386
     3  H    0.248563
     4  O   -0.507306
     5  H    0.259601
     6  H    0.249689
 Sum of Mulliken charges =  -0.00000

 Dipole moment (field-independent basis, Debye):
    X=             -3.0834    Y=              2.5032    Z=              0.0000  Tot=              3.9716
 Quadrupole moment (field-independent basis, Debye-Ang):
   XX=            -10.7164   YY=             -8.9320   ZZ=            -14.7138
   XY=              2.3569   XZ=              0.0000   YZ=              0.0000

 Normal termination of Gaussian 16 at Fri Aug 26 17:25:00 2022.
