 Gaussian 16, Revision A.03,
 Gaussian 16:  ES64L-G16RevA.03 25-Dec-2016

 ------------------
 #p CCSD(T)/cc-pVTZ
 ------------------

 ------------
 H2O_H2O_2110
 ------------
 Symbolic Z-matrix:
 Charge =  0 Multiplicity = 1

                         Standard orientation:
 ---------------------------------------------------------------------
 Center     Atomic      Atomic             Coordinates (Angstroms)
 Number     Number       Type             X           Y           Z
 ---------------------------------------------------------------------
      1          8           0        0.063258    1.947705    0.000000
      2          1           0        0.061902    0.965105    0.000000
      3          1           0       -0.865795    2.267654   -0.000000
      4          8           0        0.063258   -1.772229    0.000000
      5          1           0        0.660352   -2.552604    0.000000
      6          1           0       -0.868582   -2.083968   -0.000000
 ---------------------------------------------------------------------

 SCF Done:  E(RHF) =  -152.111488720     A.U. after   10 cycles
 E2 =    -0.5263830930D+00 EUMP2 =    -0.15263787181330D+03
 CCSD(T)
 CCSD(T)= -0.15266495351D+03

 The electronic state is 1-A'.
 Alpha  occ. eigenvalues --  -20.57257 -20.53919  -1.34514  -1.31264  -0.71914
 Alpha  occ. eigenvalues --   -0.68666  -0.58150  -0.54724  -0.51647  -0.48407
 Alpha virt. eigenvalues --    0.12115   0.16702   0.19306   0.25572   0.51874
 Alpha virt. eigenvalues --    0.55534   0.56130   0.58761   0.68936   0.72146
 Alpha virt. eigenvalues --    0.76562   0.78135   0.80510   0.83460   0.83830

 Mulliken charges:
               1
     1  O   -0.524903
     2  H    0.268209
     3  H    0.247279
     4  O   -0.506886
     5  H    0.261052
     6  H    0.255250
 Sum of Mulliken charges =  -0.00000

 Dipole moment (field-independent basis, Debye):
    X=             -2.1403    Y=             -3.2781    Z=             -0.0000  Tot=              3.9149
 Quadrupole moment (field-independent basis, Debye-Ang):
   XX=             -9.4658   YY=             -7.8961   ZZ=            -14.7254
   XY=             -3.6801   XZ=             -0.0000   YZ=             -0.0000

 Normal termination of Gaussian 16 at Sun Aug 28 04:27:30 2022.
