 Gaussian 16, Revision A.03,
 Gaussian 16:  ES64L-G16RevA.03 25-Dec-2016

 ------------------
 #p CCSD(T)/cc-pVTZ
 ------------------

 ----------
 H2O_H2O_57
 ----------
 Symbolic Z-matrix:
 Charge =  0 Multiplicity = 1

                         Standard orientation:
 ---------------------------------------------------------------------
 Center     Atomic      Atomic             Coordinates (Angstroms)
 Number     Number       Type             X           Y           Z
 ---------------------------------------------------------------------
      1          8           0        0.073608   -1.125305    0.000000
      2          1           0        0.072027   -0.142705    0.000000
      3          1           0       -0.855371   -1.445467    0.000000
      4          8           0        0.073608    0.958491    0.000000
      5          1           0        0.506783    1.840458    0.000000
      6          1           0       -0.901173    1.082223    0.000000
 ---------------------------------------------------------------------

 SCF Done:  E(RHF) =  -152.035709176     A.U. after   11 cycles
 E2 =    -0.5373190890D+00 EUMP2 =    -0.15257302826531D+03
 CCSD(T)
 CCSD(T)= -0.15259855539D+03

 The electronic state is 1-A'.
 Alpha  occ. eigenvalues --  -20.61990 -20.45151  -1.44074  -1.25150  -0.81984
 Alpha  occ. eigenvalues --   -0.74670  -0.58581  -0.54951  -0.45503  -0.41728
 Alpha virt. eigenvalues --    0.10363   0.15918   0.21543   0.32005   0.49174
 Alpha virt. eigenvalues --    0.51531   0.60292   0.64439   0.70625   0.71798
 Alpha virt. eigenvalues --    0.77074   0.79245   0.81611   0.84684   0.88071

 Mulliken charges:
               1
     1  O   -0.645432
     2  H    0.274110
     3  H    0.191686
     4  O   -0.293731
     5  H    0.231981
     6  H    0.241386
 Sum of Mulliken charges =   0.00000

 Dipole moment (field-independent basis, Debye):
    X=             -2.2337    Y=              4.7487    Z=              0.0000  Tot=              5.2479
 Quadrupole moment (field-independent basis, Debye-Ang):
   XX=             -9.7707   YY=            -10.0948   ZZ=            -14.5327
   XY=              2.5326   XZ=              0.0000   YZ=              0.0000

 Normal termination of Gaussian 16 at Fri Aug 26 15:34:26 2022.
