 Gaussian 16, Revision A.03,
 Gaussian 16:  ES64L-G16RevA.03 25-Dec-2016

 ------------------
 #p CCSD(T)/cc-pVTZ
 ------------------

 ------------
 H2O_H2O_1534
 ------------
 Symbolic Z-matrix:
 Charge =  0 Multiplicity = 1

                         Standard orientation:
 ---------------------------------------------------------------------
 Center     Atomic      Atomic             Coordinates (Angstroms)
 Number     Number       Type             X           Y           Z
 ---------------------------------------------------------------------
      1          8           0        0.066794    1.717035    0.000000
      2          1           0        0.065431    0.734434    0.000000
      3          1           0       -0.862256    2.036991   -0.000000
      4          8           0        0.066794   -1.543983   -0.000000
      5          1           0        0.611564   -2.361743   -0.000000
      6          1           0       -0.883442   -1.794101   -0.000000
 ---------------------------------------------------------------------

 SCF Done:  E(RHF) =  -152.112803239     A.U. after   10 cycles
 E2 =    -0.5271697164D+00 EUMP2 =    -0.15263997295550D+03
 CCSD(T)
 CCSD(T)= -0.15266699028D+03

 The electronic state is 1-A'.
 Alpha  occ. eigenvalues --  -20.57896 -20.53255  -1.35189  -1.30672  -0.72589
 Alpha  occ. eigenvalues --   -0.68226  -0.58924  -0.54028  -0.52306  -0.47810
 Alpha virt. eigenvalues --    0.11917   0.17117   0.19316   0.28508   0.49689
 Alpha virt. eigenvalues --    0.55119   0.56662   0.58875   0.69584   0.73067
 Alpha virt. eigenvalues --    0.74429   0.76808   0.81287   0.82946   0.84373

 Mulliken charges:
               1
     1  O   -0.535004
     2  H    0.276312
     3  H    0.242821
     4  O   -0.500562
     5  H    0.261246
     6  H    0.255188
 Sum of Mulliken charges =  -0.00000

 Dipole moment (field-independent basis, Debye):
    X=             -2.2380    Y=             -3.3770    Z=             -0.0000  Tot=              4.0513
 Quadrupole moment (field-independent basis, Debye-Ang):
   XX=             -9.5826   YY=             -8.3269   ZZ=            -14.7303
   XY=             -3.3460   XZ=             -0.0000   YZ=             -0.0000

 Normal termination of Gaussian 16 at Sat Aug 27 22:57:26 2022.
