 Gaussian 16, Revision A.03,
 Gaussian 16:  ES64L-G16RevA.03 25-Dec-2016

 ------------------
 #p CCSD(T)/cc-pVTZ
 ------------------

 ------------
 H2O_H2O_3227
 ------------
 Symbolic Z-matrix:
 Charge =  0 Multiplicity = 1

                         Standard orientation:
 ---------------------------------------------------------------------
 Center     Atomic      Atomic             Coordinates (Angstroms)
 Number     Number       Type             X           Y           Z
 ---------------------------------------------------------------------
      1          8           0        0.088231   -2.379515    0.000000
      2          1           0        0.088058   -1.396914    0.000000
      3          1           0       -0.841205   -2.698346    0.000000
      4          8           0        0.088231    2.235195    0.000000
      5          1           0        0.216315    3.209413    0.000000
      6          1           0       -0.874870    2.040408    0.000000
 ---------------------------------------------------------------------

 SCF Done:  E(RHF) =  -152.108268045     A.U. after   10 cycles
 E2 =    -0.5259970961D+00 EUMP2 =    -0.15263426514127D+03
 CCSD(T)
 CCSD(T)= -0.15266144875D+03

 The electronic state is 1-A'.
 Alpha  occ. eigenvalues --  -20.56554 -20.55043  -1.33849  -1.32348  -0.71273
 Alpha  occ. eigenvalues --   -0.69732  -0.57325  -0.55804  -0.50961  -0.49464
 Alpha virt. eigenvalues --    0.11841   0.15487   0.19272   0.22706   0.53860
 Alpha virt. eigenvalues --    0.54838   0.56438   0.58132   0.67430   0.69031
 Alpha virt. eigenvalues --    0.77943   0.78539   0.79402   0.81110   0.82621

 Mulliken charges:
               1
     1  O   -0.511437
     2  H    0.260262
     3  H    0.249969
     4  O   -0.510159
     5  H    0.259772
     6  H    0.251593
 Sum of Mulliken charges =  -0.00000

 Dipole moment (field-independent basis, Debye):
    X=             -3.0093    Y=              2.5776    Z=              0.0000  Tot=              3.9623
 Quadrupole moment (field-independent basis, Debye-Ang):
   XX=            -10.5591   YY=             -8.6365   ZZ=            -14.7138
   XY=              2.5922   XZ=              0.0000   YZ=              0.0000

 Normal termination of Gaussian 16 at Fri Aug 26 20:30:36 2022.
