 Gaussian 16, Revision A.03,
 Gaussian 16:  ES64L-G16RevA.03 25-Dec-2016

 ------------------
 #p CCSD(T)/cc-pVTZ
 ------------------

 -----------
 H2O_H2O_125
 -----------
 Symbolic Z-matrix:
 Charge =  0 Multiplicity = 1

                         Standard orientation:
 ---------------------------------------------------------------------
 Center     Atomic      Atomic             Coordinates (Angstroms)
 Number     Number       Type             X           Y           Z
 ---------------------------------------------------------------------
      1          8           0        0.092949   -1.136731    0.000000
      2          1           0        0.092949   -0.154130    0.000000
      3          1           0       -0.836544   -1.455398    0.000000
      4          8           0        0.092949    1.003944    0.000000
      5          1           0        0.092950    1.986546    0.000000
      6          1           0       -0.836544    0.685277    0.000000
 ---------------------------------------------------------------------

 SCF Done:  E(RHF) =  -152.034475476     A.U. after   11 cycles
 E2 =    -0.5388751584D+00 EUMP2 =    -0.15257335063393D+03
 CCSD(T)
 CCSD(T)= -0.15259904217D+03

 The electronic state is 1-A'.
 Alpha  occ. eigenvalues --  -20.61303 -20.48166  -1.43625  -1.27309  -0.83526
 Alpha  occ. eigenvalues --   -0.69714  -0.57668  -0.57287  -0.48887  -0.44151
 Alpha virt. eigenvalues --    0.10831   0.15902   0.21878   0.31605   0.49021
 Alpha virt. eigenvalues --    0.50674   0.59680   0.67731   0.71049   0.72645
 Alpha virt. eigenvalues --    0.74912   0.78214   0.79450   0.84472   0.85325

 Mulliken charges:
               1
     1  O   -0.588719
     2  H    0.257386
     3  H    0.188061
     4  O   -0.320265
     5  H    0.226234
     6  H    0.237304
 Sum of Mulliken charges =  -0.00000

 Dipole moment (field-independent basis, Debye):
    X=             -2.9055    Y=              3.8183    Z=              0.0000  Tot=              4.7981
 Quadrupole moment (field-independent basis, Debye-Ang):
   XX=            -10.7980   YY=             -9.9476   ZZ=            -14.5191
   XY=              1.9042   XZ=              0.0000   YZ=              0.0000

 Normal termination of Gaussian 16 at Fri Aug 26 16:02:12 2022.
