 Gaussian 16, Revision A.03,
 Gaussian 16:  ES64L-G16RevA.03 25-Dec-2016

 ------------------
 #p CCSD(T)/cc-pVTZ
 ------------------

 ------------
 H2O_H2O_1008
 ------------
 Symbolic Z-matrix:
 Charge =  0 Multiplicity = 1

                         Standard orientation:
 ---------------------------------------------------------------------
 Center     Atomic      Atomic             Coordinates (Angstroms)
 Number     Number       Type             X           Y           Z
 ---------------------------------------------------------------------
      1          8           0        0.070242    1.506061    0.000000
      2          1           0        0.068883    0.523460    0.000000
      3          1           0       -0.858809    1.826012    0.000000
      4          8           0        0.070242   -1.335888    0.000000
      5          1           0        0.560366   -2.187525    0.000000
      6          1           0       -0.894317   -1.523327    0.000000
 ---------------------------------------------------------------------

 SCF Done:  E(RHF) =  -152.111674094     A.U. after   10 cycles
 E2 =    -0.5288670191D+00 EUMP2 =    -0.15264054111276D+03
 CCSD(T)
 CCSD(T)= -0.15266740623D+03

 The electronic state is 1-A'.
 Alpha  occ. eigenvalues --  -20.58796 -20.52070  -1.36329  -1.29712  -0.73761
 Alpha  occ. eigenvalues --   -0.68155  -0.59648  -0.53349  -0.52772  -0.46804
 Alpha virt. eigenvalues --    0.11650   0.17189   0.19593   0.31536   0.48289
 Alpha virt. eigenvalues --    0.54548   0.58808   0.59378   0.69751   0.72650
 Alpha virt. eigenvalues --    0.73835   0.76758   0.81760   0.82493   0.84297

 Mulliken charges:
               1
     1  O   -0.557312
     2  H    0.294192
     3  H    0.234689
     4  O   -0.472423
     5  H    0.250670
     6  H    0.250183
 Sum of Mulliken charges =  -0.00000

 Dipole moment (field-independent basis, Debye):
    X=             -2.3133    Y=             -3.5753    Z=             -0.0000  Tot=              4.2584
 Quadrupole moment (field-independent basis, Debye-Ang):
   XX=             -9.7089   YY=             -8.7834   ZZ=            -14.7164
   XY=             -3.0585   XZ=             -0.0000   YZ=             -0.0000

 Normal termination of Gaussian 16 at Fri Aug 26 21:52:42 2022.
