 Gaussian 16, Revision A.03,
 Gaussian 16:  ES64L-G16RevA.03 25-Dec-2016

 ------------------
 #p CCSD(T)/cc-pVTZ
 ------------------

 ------------
 H2O_H2O_4083
 ------------
 Symbolic Z-matrix:
 Charge =  0 Multiplicity = 1

                         Standard orientation:
 ---------------------------------------------------------------------
 Center     Atomic      Atomic             Coordinates (Angstroms)
 Number     Number       Type             X           Y           Z
 ---------------------------------------------------------------------
      1          8           0        0.070188    2.732653   -0.000000
      2          1           0        0.069458    1.750052   -0.000000
      3          1           0       -0.859069    3.052009   -0.000000
      4          8           0        0.070188   -2.562390    0.000000
      5          1           0        0.560857   -3.413712    0.000000
      6          1           0       -0.894250   -2.750447    0.000000
 ---------------------------------------------------------------------

 SCF Done:  E(RHF) =  -152.108370219     A.U. after   10 cycles
 E2 =    -0.5258447168D+00 EUMP2 =    -0.15263421493599D+03
 CCSD(T)
 CCSD(T)= -0.15266140920D+03

 The electronic state is 1-A'.
 Alpha  occ. eigenvalues --  -20.56280 -20.54947  -1.33579  -1.32254  -0.70988
 Alpha  occ. eigenvalues --   -0.69650  -0.57068  -0.55721  -0.50697  -0.49375
 Alpha virt. eigenvalues --    0.12978   0.15076   0.19495   0.21324   0.53386
 Alpha virt. eigenvalues --    0.54958   0.56559   0.57839   0.66702   0.68964
 Alpha virt. eigenvalues --    0.78197   0.79145   0.79480   0.80384   0.82735

 Mulliken charges:
               1
     1  O   -0.513045
     2  H    0.260629
     3  H    0.252081
     4  O   -0.513894
     5  H    0.259189
     6  H    0.255039
 Sum of Mulliken charges =  -0.00000

 Dipole moment (field-independent basis, Debye):
    X=             -2.4038    Y=             -3.0017    Z=              0.0000  Tot=              3.8456
 Quadrupole moment (field-independent basis, Debye-Ang):
   XX=             -9.6801   YY=             -7.0242   ZZ=            -14.7146
   XY=             -4.0635   XZ=              0.0000   YZ=             -0.0000

 Normal termination of Gaussian 16 at Sat Aug 27 23:22:34 2022.
