 Gaussian 16, Revision A.03,
 Gaussian 16:  ES64L-G16RevA.03 25-Dec-2016

 ------------------
 #p CCSD(T)/cc-pVTZ
 ------------------

 ------------
 H2O_H2O_1277
 ------------
 Symbolic Z-matrix:
 Charge =  0 Multiplicity = 1

                         Standard orientation:
 ---------------------------------------------------------------------
 Center     Atomic      Atomic             Coordinates (Angstroms)
 Number     Number       Type             X           Y           Z
 ---------------------------------------------------------------------
      1          8           0        0.088238   -1.601696    0.000000
      2          1           0        0.087976   -0.619095    0.000000
      3          1           0       -0.841170   -1.920611    0.000000
      4          8           0        0.088238    1.457392    0.000000
      5          1           0        0.216234    2.431622    0.000000
      6          1           0       -0.874846    1.262518    0.000000
 ---------------------------------------------------------------------

 SCF Done:  E(RHF) =  -152.109591174     A.U. after   10 cycles
 E2 =    -0.5282048193D+00 EUMP2 =    -0.15263779599314D+03
 CCSD(T)
 CCSD(T)= -0.15266482648D+03

 The electronic state is 1-A'.
 Alpha  occ. eigenvalues --  -20.58209 -20.53771  -1.35639  -1.31196  -0.73437
 Alpha  occ. eigenvalues --   -0.68530  -0.59129  -0.54489  -0.52666  -0.48289
 Alpha virt. eigenvalues --    0.11546   0.16497   0.20273   0.29228   0.49086
 Alpha virt. eigenvalues --    0.54200   0.57981   0.58842   0.68376   0.72967
 Alpha virt. eigenvalues --    0.74505   0.77641   0.81090   0.81613   0.83456

 Mulliken charges:
               1
     1  O   -0.529988
     2  H    0.278413
     3  H    0.236691
     4  O   -0.470007
     5  H    0.243012
     6  H    0.241879
 Sum of Mulliken charges =  -0.00000

 Dipole moment (field-independent basis, Debye):
    X=             -2.9310    Y=              2.8964    Z=              0.0000  Tot=              4.1206
 Quadrupole moment (field-independent basis, Debye-Ang):
   XX=            -10.6039   YY=             -8.9284   ZZ=            -14.7100
   XY=              2.4279   XZ=              0.0000   YZ=              0.0000

 Normal termination of Gaussian 16 at Fri Aug 26 23:33:25 2022.
