 Gaussian 16, Revision A.03,
 Gaussian 16:  ES64L-G16RevA.03 25-Dec-2016

 ------------------
 #p CCSD(T)/cc-pVTZ
 ------------------

 ------------
 H2O_H2O_2829
 ------------
 Symbolic Z-matrix:
 Charge =  0 Multiplicity = 1

                         Standard orientation:
 ---------------------------------------------------------------------
 Center     Atomic      Atomic             Coordinates (Angstroms)
 Number     Number       Type             X           Y           Z
 ---------------------------------------------------------------------
      1          8           0        0.082805   -2.225502    0.000000
      2          1           0        0.082404   -1.242901    0.000000
      3          1           0       -0.846558   -2.544548    0.000000
      4          8           0        0.082805    2.070988    0.000000
      5          1           0        0.336734    3.020212    0.000000
      6          1           0       -0.897465    2.003350    0.000000
 ---------------------------------------------------------------------

 SCF Done:  E(RHF) =  -152.108977478     A.U. after   10 cycles
 E2 =    -0.5260837498D+00 EUMP2 =    -0.15263506122795D+03
 CCSD(T)
 CCSD(T)= -0.15266221754D+03

 The electronic state is 1-A'.
 Alpha  occ. eigenvalues --  -20.56739 -20.54774  -1.34024  -1.32084  -0.71450
 Alpha  occ. eigenvalues --   -0.69463  -0.57525  -0.55547  -0.51141  -0.49206
 Alpha virt. eigenvalues --    0.11890   0.15817   0.19475   0.23139   0.54099
 Alpha virt. eigenvalues --    0.55004   0.56388   0.58347   0.68490   0.69348
 Alpha virt. eigenvalues --    0.77717   0.78809   0.79659   0.80691   0.82888

 Mulliken charges:
               1
     1  O   -0.514364
     2  H    0.262742
     3  H    0.248899
     4  O   -0.509204
     5  H    0.259668
     6  H    0.252259
 Sum of Mulliken charges =  -0.00000

 Dipole moment (field-independent basis, Debye):
    X=             -2.8174    Y=              2.7910    Z=              0.0000  Tot=              3.9658
 Quadrupole moment (field-independent basis, Debye-Ang):
   XX=            -10.2576   YY=             -8.2503   ZZ=            -14.7162
   XY=              2.9592   XZ=              0.0000   YZ=              0.0000

 CCSD(T)=-152.6622175\RMSD=7.050e-09\PG=CS [SG(H4O2)]\\@
 Normal termination of Gaussian 16 at Fri Aug 26 17:36:53 2022.
