 Gaussian 16, Revision A.03,
 Gaussian 16:  ES64L-G16RevA.03 25-Dec-2016

 ------------------
 #p CCSD(T)/cc-pVTZ
 ------------------

 ----------
 H2O_H2O_44
 ----------
 Symbolic Z-matrix:
 Charge =  0 Multiplicity = 1

                         Standard orientation:
 ---------------------------------------------------------------------
 Center     Atomic      Atomic             Coordinates (Angstroms)
 Number     Number       Type             X           Y           Z
 ---------------------------------------------------------------------
      1          8           0        0.030439    1.120031   -0.000000
      2          1           0        0.025280    0.137443   -0.000000
      3          1           0       -0.897367    1.443574   -0.000000
      4          8           0        0.030439   -0.944596    0.000000
      5          1           0        0.959223   -1.265325    0.000000
      6          1           0       -0.574167   -1.719165    0.000000
 ---------------------------------------------------------------------

 SCF Done:  E(RHF) =  -152.033470163     A.U. after   11 cycles
 E2 =    -0.5360330401D+00 EUMP2 =    -0.15256950320338D+03
 CCSD(T)
 CCSD(T)= -0.15259498887D+03

 The electronic state is 1-A'.
 Alpha  occ. eigenvalues --  -20.62086 -20.43745  -1.44279  -1.24234  -0.81239
 Alpha  occ. eigenvalues --   -0.76340  -0.58846  -0.54709  -0.43801  -0.40694
 Alpha virt. eigenvalues --    0.10379   0.16620   0.21116   0.33237   0.46761
 Alpha virt. eigenvalues --    0.51768   0.61444   0.68029   0.70398   0.70444
 Alpha virt. eigenvalues --    0.76958   0.78297   0.81437   0.83781   0.88706

 Mulliken charges:
               1
     1  O   -0.686717
     2  H    0.277916
     3  H    0.210480
     4  O   -0.298778
     5  H    0.263472
     6  H    0.233627
 Sum of Mulliken charges =  -0.00000

 Dipole moment (field-independent basis, Debye):
    X=             -0.9125    Y=             -5.0479    Z=              0.0000  Tot=              5.1297
 Quadrupole moment (field-independent basis, Debye-Ang):
   XX=             -9.1313   YY=            -10.2507   ZZ=            -14.5436
   XY=             -2.6710   XZ=              0.0000   YZ=              0.0000

 Normal termination of Gaussian 16 at Fri Aug 26 15:29:15 2022.
