 Gaussian 16, Revision A.03,
 Gaussian 16:  ES64L-G16RevA.03 25-Dec-2016

 ------------------
 #p CCSD(T)/cc-pVTZ
 ------------------

 -----------
 H2O_H2O_350
 -----------
 Symbolic Z-matrix:
 Charge =  0 Multiplicity = 1

                         Standard orientation:
 ---------------------------------------------------------------------
 Center     Atomic      Atomic             Coordinates (Angstroms)
 Number     Number       Type             X           Y           Z
 ---------------------------------------------------------------------
      1          8           0        0.092949   -1.226479    0.000000
      2          1           0        0.092949   -0.243877    0.000000
      3          1           0       -0.836544   -1.545145    0.000000
      4          8           0        0.092949    1.093692    0.000000
      5          1           0        0.092949    2.076293    0.000000
      6          1           0       -0.836544    0.775025    0.000000
 ---------------------------------------------------------------------

 SCF Done:  E(RHF) =  -152.072737492     A.U. after   11 cycles
 E2 =    -0.5355680730D+00 EUMP2 =    -0.15260830556457D+03
 CCSD(T)
 CCSD(T)= -0.15263454079D+03

 The electronic state is 1-A'.
 Alpha  occ. eigenvalues --  -20.60479 -20.50345  -1.40441  -1.28753  -0.80213
 Alpha  occ. eigenvalues --   -0.68251  -0.59005  -0.55977  -0.51122  -0.45674
 Alpha virt. eigenvalues --    0.11114   0.16207   0.21443   0.32149   0.48858
 Alpha virt. eigenvalues --    0.51158   0.59274   0.66705   0.71178   0.72328
 Alpha virt. eigenvalues --    0.74818   0.76336   0.79133   0.82379   0.84379

 Mulliken charges:
               1
     1  O   -0.568770
     2  H    0.273421
     3  H    0.204257
     4  O   -0.366607
     5  H    0.227610
     6  H    0.230090
 Sum of Mulliken charges =  -0.00000

 Dipole moment (field-independent basis, Debye):
    X=             -2.9602    Y=              3.4451    Z=              0.0000  Tot=              4.5422
 Quadrupole moment (field-independent basis, Debye-Ang):
   XX=            -10.8524   YY=             -9.6569   ZZ=            -14.5907
   XY=              1.9724   XZ=              0.0000   YZ=              0.0000

 Normal termination of Gaussian 16 at Fri Aug 26 17:37:21 2022.
