 Gaussian 16, Revision A.03,
 Gaussian 16:  ES64L-G16RevA.03 25-Dec-2016

 ------------------
 #p CCSD(T)/cc-pVTZ
 ------------------

 ------------
 H2O_H2O_4971
 ------------
 Symbolic Z-matrix:
 Charge =  0 Multiplicity = 1

                         Standard orientation:
 ---------------------------------------------------------------------
 Center     Atomic      Atomic             Coordinates (Angstroms)
 Number     Number       Type             X           Y           Z
 ---------------------------------------------------------------------
      1          8           0       -0.023154    3.081759    0.000000
      2          1           0       -0.021179    2.099159    0.000000
      3          1           0        0.905697    3.402293    0.000000
      4          8           0       -0.023154   -2.911342    0.000000
      5          1           0       -0.986488   -3.104974    0.000000
      6          1           0        0.472431   -3.759812    0.000000
 ---------------------------------------------------------------------

 SCF Done:  E(RHF) =  -152.108269027     A.U. after   10 cycles
 E2 =    -0.5258005061D+00 EUMP2 =    -0.15263406953355D+03
 CCSD(T)
 CCSD(T)= -0.15266127219D+03

 The electronic state is 1-A'.
 Alpha  occ. eigenvalues --  -20.56108 -20.55093  -1.33411  -1.32399  -0.70816
 Alpha  occ. eigenvalues --   -0.69805  -0.56897  -0.55869  -0.50529  -0.49522
 Alpha virt. eigenvalues --    0.13512   0.14734   0.19664   0.20923   0.53675
 Alpha virt. eigenvalues --    0.54781   0.56727   0.57728   0.67079   0.68440
 Alpha virt. eigenvalues --    0.78354   0.79340   0.79735   0.80656   0.82034

 Mulliken charges:
               1
     1  O   -0.513512
     2  H    0.258988
     3  H    0.254494
     4  O   -0.513987
     5  H    0.256922
     6  H    0.257094
 Sum of Mulliken charges =  -0.00000

 Dipole moment (field-independent basis, Debye):
    X=              0.7957    Y=             -2.9802    Z=              0.0000  Tot=              3.0846
 Quadrupole moment (field-independent basis, Debye-Ang):
   XX=             -9.3628   YY=             -6.5480   ZZ=            -14.7143
   XY=              7.5743   XZ=              0.0000   YZ=              0.0000

 Normal termination of Gaussian 16 at Sun Aug 28 07:19:03 2022.
