 Gaussian 16, Revision A.03,
 Gaussian 16:  ES64L-G16RevA.03 25-Dec-2016

 ------------------
 #p CCSD(T)/cc-pVTZ
 ------------------

 ------------
 H2O_H2O_3087
 ------------
 Symbolic Z-matrix:
 Charge =  0 Multiplicity = 1

                         Standard orientation:
 ---------------------------------------------------------------------
 Center     Atomic      Atomic             Coordinates (Angstroms)
 Number     Number       Type             X           Y           Z
 ---------------------------------------------------------------------
      1          8           0        0.055991    2.338474   -0.000000
      2          1           0        0.054595    1.355873   -0.000000
      3          1           0       -0.873049    2.658459   -0.000000
      4          8           0        0.055991   -2.159567    0.000000
      5          1           0        0.749808   -2.855356    0.000000
      6          1           0       -0.827204   -2.590233    0.000000
 ---------------------------------------------------------------------

 SCF Done:  E(RHF) =  -152.109622897     A.U. after   10 cycles
 E2 =    -0.5259343299D+00 EUMP2 =    -0.15263555722649D+03
 CCSD(T)
 CCSD(T)= -0.15266270592D+03

 The electronic state is 1-A'.
 Alpha  occ. eigenvalues --  -20.56613 -20.54501  -1.33894  -1.31820  -0.71297
 Alpha  occ. eigenvalues --   -0.69211  -0.57428  -0.55303  -0.51021  -0.48952
 Alpha virt. eigenvalues --    0.12505   0.15844   0.19475   0.22471   0.53271
 Alpha virt. eigenvalues --    0.55344   0.56342   0.58481   0.67973   0.69342
 Alpha virt. eigenvalues --    0.77879   0.79036   0.79438   0.79879   0.83183

 Mulliken charges:
               1
     1  O   -0.517834
     2  H    0.264053
     3  H    0.251180
     4  O   -0.513945
     5  H    0.260161
     6  H    0.256385
 Sum of Mulliken charges =  -0.00000

 Dipole moment (field-independent basis, Debye):
    X=             -1.9095    Y=             -3.2150    Z=              0.0000  Tot=              3.7393
 Quadrupole moment (field-independent basis, Debye-Ang):
   XX=             -9.2872   YY=             -7.1835   ZZ=            -14.7190
   XY=             -4.3998   XZ=              0.0000   YZ=             -0.0000

 Normal termination of Gaussian 16 at Fri Aug 26 19:41:52 2022.
