 Gaussian 16, Revision A.03,
 Gaussian 16:  ES64L-G16RevA.03 25-Dec-2016

 ------------------
 #p CCSD(T)/cc-pVTZ
 ------------------

 ------------
 H2O_H2O_3175
 ------------
 Symbolic Z-matrix:
 Charge =  0 Multiplicity = 1

                         Standard orientation:
 ---------------------------------------------------------------------
 Center     Atomic      Atomic             Coordinates (Angstroms)
 Number     Number       Type             X           Y           Z
 ---------------------------------------------------------------------
      1          8           0        0.092949   -2.353307    0.000000
      2          1           0        0.092949   -1.370706    0.000000
      3          1           0       -0.836544   -2.671974    0.000000
      4          8           0        0.092949    2.220520    0.000000
      5          1           0        0.092949    3.203122    0.000000
      6          1           0       -0.836544    1.901854    0.000000
 ---------------------------------------------------------------------

 SCF Done:  E(RHF) =  -152.107959152     A.U. after   10 cycles
 E2 =    -0.5260349070D+00 EUMP2 =    -0.15263399405861D+03
 CCSD(T)
 CCSD(T)= -0.15266118544D+03

 The electronic state is 1-A'.
 Alpha  occ. eigenvalues --  -20.56577 -20.55190  -1.33873  -1.32490  -0.71304
 Alpha  occ. eigenvalues --   -0.69873  -0.57338  -0.55940  -0.50981  -0.49603
 Alpha virt. eigenvalues --    0.11566   0.15458   0.19233   0.23139   0.54075
 Alpha virt. eigenvalues --    0.54637   0.56456   0.58047   0.67564   0.68849
 Alpha virt. eigenvalues --    0.77920   0.78468   0.79275   0.81173   0.82539

 Mulliken charges:
               1
     1  O   -0.510110
     2  H    0.259384
     3  H    0.249771
     4  O   -0.508801
     5  H    0.259721
     6  H    0.250035
 Sum of Mulliken charges =  -0.00000

 Dipole moment (field-independent basis, Debye):
    X=             -3.1687    Y=              2.3722    Z=              0.0000  Tot=              3.9582
 Quadrupole moment (field-independent basis, Debye-Ang):
   XX=            -10.8560   YY=             -9.2274   ZZ=            -14.7124
   XY=              2.1502   XZ=              0.0000   YZ=              0.0000

 Normal termination of Gaussian 16 at Fri Aug 26 20:13:25 2022.
