 Gaussian 16, Revision A.03,
 Gaussian 16:  ES64L-G16RevA.03 25-Dec-2016

 ------------------
 #p CCSD(T)/cc-pVTZ
 ------------------

 ------------
 H2O_H2O_4423
 ------------
 Symbolic Z-matrix:
 Charge =  0 Multiplicity = 1

                         Standard orientation:
 ---------------------------------------------------------------------
 Center     Atomic      Atomic             Coordinates (Angstroms)
 Number     Number       Type             X           Y           Z
 ---------------------------------------------------------------------
      1          8           0       -0.016583    2.858571    0.000000
      2          1           0       -0.014250    1.875973    0.000000
      3          1           0        0.912151    3.179443    0.000000
      4          8           0       -0.016583   -2.695163    0.000000
      5          1           0       -0.996925   -2.761756    0.000000
      6          1           0        0.364345   -3.600924    0.000000
 ---------------------------------------------------------------------

 SCF Done:  E(RHF) =  -152.108471565     A.U. after   10 cycles
 E2 =    -0.5258001339D+00 EUMP2 =    -0.15263427169885D+03
 CCSD(T)
 CCSD(T)= -0.15266146829D+03

 The electronic state is 1-A'.
 Alpha  occ. eigenvalues --  -20.56193 -20.55045  -1.33496  -1.32353  -0.70902
 Alpha  occ. eigenvalues --   -0.69760  -0.56990  -0.55827  -0.50615  -0.49477
 Alpha virt. eigenvalues --    0.13180   0.14938   0.19414   0.21322   0.53413
 Alpha virt. eigenvalues --    0.54943   0.56664   0.57785   0.66808   0.68704
 Alpha virt. eigenvalues --    0.78271   0.79379   0.79449   0.80715   0.82492

 Mulliken charges:
               1
     1  O   -0.514496
     2  H    0.259540
     3  H    0.254821
     4  O   -0.514997
     5  H    0.257098
     6  H    0.258034
 Sum of Mulliken charges =  -0.00000

 Dipole moment (field-independent basis, Debye):
    X=              0.5702    Y=             -2.8687    Z=              0.0000  Tot=              2.9248
 Quadrupole moment (field-independent basis, Debye-Ang):
   XX=             -9.5435   YY=             -7.2452   ZZ=            -14.7149
   XY=              7.5055   XZ=              0.0000   YZ=              0.0000

 Normal termination of Gaussian 16 at Sun Aug 28 02:44:49 2022.
