 Gaussian 16, Revision A.03,
 Gaussian 16:  ES64L-G16RevA.03 25-Dec-2016

 ------------------
 #p CCSD(T)/cc-pVTZ
 ------------------

 ------------
 H2O_H2O_2579
 ------------
 Symbolic Z-matrix:
 Charge =  0 Multiplicity = 1

                         Standard orientation:
 ---------------------------------------------------------------------
 Center     Atomic      Atomic             Coordinates (Angstroms)
 Number     Number       Type             X           Y           Z
 ---------------------------------------------------------------------
      1          8           0        0.082807   -2.125781    0.000000
      2          1           0        0.082386   -1.143180    0.000000
      3          1           0       -0.846550   -2.444845    0.000000
      4          8           0        0.082807    1.971270    0.000000
      5          1           0        0.336717    2.920499    0.000000
      6          1           0       -0.897463    1.903613    0.000000
 ---------------------------------------------------------------------

 SCF Done:  E(RHF) =  -152.109307913     A.U. after   10 cycles
 E2 =    -0.5261875785D+00 EUMP2 =    -0.15263549549135D+03
 CCSD(T)
 CCSD(T)= -0.15266263698D+03

 The electronic state is 1-A'.
 Alpha  occ. eigenvalues --  -20.56883 -20.54670  -1.34164  -1.31984  -0.71596
 Alpha  occ. eigenvalues --   -0.69357  -0.57678  -0.55443  -0.51281  -0.49107
 Alpha virt. eigenvalues --    0.11827   0.15990   0.19561   0.23726   0.53770
 Alpha virt. eigenvalues --    0.55352   0.56387   0.58240   0.68689   0.70289
 Alpha virt. eigenvalues --    0.77465   0.79122   0.79781   0.80628   0.83056

 Mulliken charges:
               1
     1  O   -0.515663
     2  H    0.263874
     3  H    0.247935
     4  O   -0.507330
     5  H    0.259413
     6  H    0.251771
 Sum of Mulliken charges =  -0.00000

 Dipole moment (field-independent basis, Debye):
    X=             -2.8120    Y=              2.8148    Z=              0.0000  Tot=              3.9787
 Quadrupole moment (field-independent basis, Debye-Ang):
   XX=            -10.2617   YY=             -8.3172   ZZ=            -14.7171
   XY=              2.9228   XZ=              0.0000   YZ=              0.0000

 Normal termination of Gaussian 16 at Fri Aug 26 15:45:38 2022.
