 Gaussian 16, Revision A.03,
 Gaussian 16:  ES64L-G16RevA.03 25-Dec-2016

 ------------------
 #p CCSD(T)/cc-pVTZ
 ------------------

 ------------
 H2O_H2O_4030
 ------------
 Symbolic Z-matrix:
 Charge =  0 Multiplicity = 1

                         Standard orientation:
 ---------------------------------------------------------------------
 Center     Atomic      Atomic             Coordinates (Angstroms)
 Number     Number       Type             X           Y           Z
 ---------------------------------------------------------------------
      1          8           0        0.079846    2.706630    0.000000
      2          1           0        0.079423    1.724029    0.000000
      3          1           0       -0.849509    3.025697    0.000000
      4          8           0        0.079846   -2.547558    0.000000
      5          1           0        0.395293   -3.478148    0.000000
      6          1           0       -0.902750   -2.544156    0.000000
 ---------------------------------------------------------------------

 SCF Done:  E(RHF) =  -152.108167995     A.U. after   10 cycles
 E2 =    -0.5258660143D+00 EUMP2 =    -0.15263403400886D+03
 CCSD(T)
 CCSD(T)= -0.15266123238D+03

 The electronic state is 1-A'.
 Alpha  occ. eigenvalues --  -20.56298 -20.55047  -1.33598  -1.32353  -0.71010
 Alpha  occ. eigenvalues --   -0.69747  -0.57077  -0.55815  -0.50712  -0.49471
 Alpha virt. eigenvalues --    0.12751   0.15056   0.19295   0.21540   0.53238
 Alpha virt. eigenvalues --    0.54996   0.56524   0.57862   0.66717   0.68906
 Alpha virt. eigenvalues --    0.78183   0.79071   0.79390   0.80802   0.82614

 Mulliken charges:
               1
     1  O   -0.511886
     2  H    0.259829
     3  H    0.251734
     4  O   -0.512824
     5  H    0.259210
     6  H    0.253937
 Sum of Mulliken charges =  -0.00000

 Dipole moment (field-independent basis, Debye):
    X=             -2.7340    Y=             -2.8054    Z=             -0.0000  Tot=              3.9173
 Quadrupole moment (field-independent basis, Debye-Ang):
   XX=            -10.0956   YY=             -7.6679   ZZ=            -14.7138
   XY=             -3.3684   XZ=             -0.0000   YZ=             -0.0000

 Normal termination of Gaussian 16 at Sat Aug 27 01:06:34 2022.
