 Gaussian 16, Revision A.03,
 Gaussian 16:  ES64L-G16RevA.03 25-Dec-2016

 ------------------
 #p CCSD(T)/cc-pVTZ
 ------------------

 ------------
 H2O_H2O_1520
 ------------
 Symbolic Z-matrix:
 Charge =  0 Multiplicity = 1

                         Standard orientation:
 ---------------------------------------------------------------------
 Center     Atomic      Atomic             Coordinates (Angstroms)
 Number     Number       Type             X           Y           Z
 ---------------------------------------------------------------------
      1          8           0        0.026744    1.707136    0.000000
      2          1           0        0.023272    0.724541    0.000000
      3          1           0       -0.901618    2.029085    0.000000
      4          8           0        0.026744   -1.533965   -0.000000
      5          1           0        0.974959   -1.791632   -0.000000
      6          1           0       -0.524512   -2.347367   -0.000000
 ---------------------------------------------------------------------

 SCF Done:  E(RHF) =  -152.113709925     A.U. after   10 cycles
 E2 =    -0.5270475704D+00 EUMP2 =    -0.15264075749569D+03
 CCSD(T)
 CCSD(T)= -0.15266776126D+03

 The electronic state is 1-A'.
 Alpha  occ. eigenvalues --  -20.57888 -20.53082  -1.35187  -1.30521  -0.72577
 Alpha  occ. eigenvalues --   -0.68123  -0.59010  -0.53870  -0.52312  -0.47676
 Alpha virt. eigenvalues --    0.12148   0.17648   0.18979   0.28873   0.50623
 Alpha virt. eigenvalues --    0.54289   0.55933   0.60276   0.68891   0.73005
 Alpha virt. eigenvalues --    0.74348   0.77148   0.81414   0.82990   0.84515

 Mulliken charges:
               1
     1  O   -0.543575
     2  H    0.276001
     3  H    0.250404
     4  O   -0.504448
     5  H    0.264314
     6  H    0.257304
 Sum of Mulliken charges =  -0.00000

 Dipole moment (field-independent basis, Debye):
    X=             -0.9020    Y=             -3.3902    Z=             -0.0000  Tot=              3.5082
 Quadrupole moment (field-independent basis, Debye-Ang):
   XX=             -9.2885   YY=             -8.3414   ZZ=            -14.7336
   XY=             -4.1639   XZ=             -0.0000   YZ=             -0.0000

 CCSD(T)=-152.6677613\RMSD=6.338e-09\PG=CS [SG(H4O2)]\\@
 Normal termination of Gaussian 16 at Sat Aug 27 01:06:09 2022.
