 Gaussian 16, Revision A.03,
 Gaussian 16:  ES64L-G16RevA.03 25-Dec-2016

 ------------------
 #p CCSD(T)/cc-pVTZ
 ------------------

 ------------
 H2O_H2O_1158
 ------------
 Symbolic Z-matrix:
 Charge =  0 Multiplicity = 1

                         Standard orientation:
 ---------------------------------------------------------------------
 Center     Atomic      Atomic             Coordinates (Angstroms)
 Number     Number       Type             X           Y           Z
 ---------------------------------------------------------------------
      1          8           0        0.070237    1.565896    0.000000
      2          1           0        0.068933    0.583296    0.000000
      3          1           0       -0.858832    1.885796    0.000000
      4          8           0        0.070237   -1.395716   -0.000000
      5          1           0        0.560409   -2.247325   -0.000000
      6          1           0       -0.894310   -1.583209   -0.000000
 ---------------------------------------------------------------------

 SCF Done:  E(RHF) =  -152.112463407     A.U. after   10 cycles
 E2 =    -0.5282479144D+00 EUMP2 =    -0.15264071132190D+03
 CCSD(T)
 CCSD(T)= -0.15266764105D+03

 The electronic state is 1-A'.
 Alpha  occ. eigenvalues --  -20.58494 -20.52536  -1.35919  -1.30082  -0.73349
 Alpha  occ. eigenvalues --   -0.68083  -0.59495  -0.53260  -0.52983  -0.47193
 Alpha virt. eigenvalues --    0.11733   0.17174   0.19503   0.30688   0.48572
 Alpha virt. eigenvalues --    0.54777   0.58059   0.59107   0.69778   0.73027
 Alpha virt. eigenvalues --    0.73763   0.76539   0.81972   0.82283   0.84363

 Mulliken charges:
               1
     1  O   -0.548716
     2  H    0.288369
     3  H    0.237441
     4  O   -0.482574
     5  H    0.253384
     6  H    0.252096
 Sum of Mulliken charges =  -0.00000

 Dipole moment (field-independent basis, Debye):
    X=             -2.3272    Y=             -3.4833    Z=             -0.0000  Tot=              4.1892
 Quadrupole moment (field-independent basis, Debye-Ang):
   XX=             -9.7092   YY=             -8.6497   ZZ=            -14.7231
   XY=             -3.1152   XZ=             -0.0000   YZ=              0.0000

 Normal termination of Gaussian 16 at Fri Aug 26 22:48:42 2022.
