 Gaussian 16, Revision A.03,
 Gaussian 16:  ES64L-G16RevA.03 25-Dec-2016

 ------------------
 #p CCSD(T)/cc-pVTZ
 ------------------

 ------------
 H2O_H2O_2302
 ------------
 Symbolic Z-matrix:
 Charge =  0 Multiplicity = 1

                         Standard orientation:
 ---------------------------------------------------------------------
 Center     Atomic      Atomic             Coordinates (Angstroms)
 Number     Number       Type             X           Y           Z
 ---------------------------------------------------------------------
      1          8           0        0.088234   -2.010551    0.000000
      2          1           0        0.088027   -1.027949    0.000000
      3          1           0       -0.841192   -2.329413    0.000000
      4          8           0        0.088234    1.866236    0.000000
      5          1           0        0.216285    2.840459    0.000000
      6          1           0       -0.874861    1.671417    0.000000
 ---------------------------------------------------------------------

 SCF Done:  E(RHF) =  -152.109189610     A.U. after   10 cycles
 E2 =    -0.5263953148D+00 EUMP2 =    -0.15263558492439D+03
 CCSD(T)
 CCSD(T)= -0.15266272132D+03

 The electronic state is 1-A'.
 Alpha  occ. eigenvalues --  -20.57066 -20.54739  -1.34351  -1.32050  -0.71815
 Alpha  occ. eigenvalues --   -0.69406  -0.57858  -0.55495  -0.51459  -0.49169
 Alpha virt. eigenvalues --    0.11609   0.16055   0.19817   0.24547   0.53039
 Alpha virt. eigenvalues --    0.55772   0.56572   0.57711   0.68479   0.72047
 Alpha virt. eigenvalues --    0.76975   0.79517   0.79805   0.80354   0.83396

 Mulliken charges:
               1
     1  O   -0.515182
     2  H    0.264335
     3  H    0.246371
     4  O   -0.503598
     5  H    0.259060
     6  H    0.249014
 Sum of Mulliken charges =  -0.00000

 Dipole moment (field-independent basis, Debye):
    X=             -2.9867    Y=              2.6559    Z=              0.0000  Tot=              3.9968
 Quadrupole moment (field-independent basis, Debye-Ang):
   XX=            -10.5762   YY=             -8.7404   ZZ=            -14.7161
   XY=              2.5249   XZ=              0.0000   YZ=              0.0000

 Normal termination of Gaussian 16 at Sun Aug 28 06:09:45 2022.
