 Gaussian 16, Revision A.03,
 Gaussian 16:  ES64L-G16RevA.03 25-Dec-2016

 ------------------
 #p CCSD(T)/cc-pVTZ
 ------------------

 -----------
 H2O_H2O_848
 -----------
 Symbolic Z-matrix:
 Charge =  0 Multiplicity = 1

                         Standard orientation:
 ---------------------------------------------------------------------
 Center     Atomic      Atomic             Coordinates (Angstroms)
 Number     Number       Type             X           Y           Z
 ---------------------------------------------------------------------
      1          8           0        0.016787   -1.432552    0.000000
      2          1           0        0.011993   -0.449962    0.000000
      3          1           0       -0.911140   -1.755749    0.000000
      4          8           0        0.016787    1.269227    0.000000
      5          1           0        0.996960    1.338275    0.000000
      6          1           0       -0.366408    2.174029    0.000000
 ---------------------------------------------------------------------

 SCF Done:  E(RHF) =  -152.110046359     A.U. after   10 cycles
 E2 =    -0.5294623185D+00 EUMP2 =    -0.15263950867771D+03
 CCSD(T)
 CCSD(T)= -0.15266626883D+03

 The electronic state is 1-A'.
 Alpha  occ. eigenvalues --  -20.59081 -20.51362  -1.36860  -1.29186  -0.74562
 Alpha  occ. eigenvalues --   -0.68001  -0.60024  -0.53782  -0.51976  -0.46280
 Alpha virt. eigenvalues --    0.11879   0.18262   0.19017   0.32874   0.48469
 Alpha virt. eigenvalues --    0.54233   0.56660   0.65037   0.68273   0.72303
 Alpha virt. eigenvalues --    0.74187   0.76476   0.80746   0.83124   0.84139

 Mulliken charges:
               1
     1  O   -0.583220
     2  H    0.293729
     3  H    0.248042
     4  O   -0.456474
     5  H    0.259870
     6  H    0.238053
 Sum of Mulliken charges =  -0.00000

 Dipole moment (field-independent basis, Debye):
    X=             -0.5640    Y=              3.5740    Z=              0.0000  Tot=              3.6182
 Quadrupole moment (field-independent basis, Debye-Ang):
   XX=             -9.5223   YY=             -8.9947   ZZ=            -14.7050
   XY=              3.7304   XZ=              0.0000   YZ=              0.0000

 Normal termination of Gaussian 16 at Fri Aug 26 20:53:02 2022.
