 Gaussian 16, Revision A.03,
 Gaussian 16:  ES64L-G16RevA.03 25-Dec-2016

 ------------------
 #p CCSD(T)/cc-pVTZ
 ------------------

 ------------
 H2O_H2O_4277
 ------------
 Symbolic Z-matrix:
 Charge =  0 Multiplicity = 1

                         Standard orientation:
 ---------------------------------------------------------------------
 Center     Atomic      Atomic             Coordinates (Angstroms)
 Number     Number       Type             X           Y           Z
 ---------------------------------------------------------------------
      1          8           0        0.088229   -2.798339    0.000000
      2          1           0        0.088082   -1.815737    0.000000
      3          1           0       -0.841216   -3.117144    0.000000
      4          8           0        0.088229    2.654014    0.000000
      5          1           0        0.216339    3.628229    0.000000
      6          1           0       -0.874877    2.459253    0.000000
 ---------------------------------------------------------------------

 SCF Done:  E(RHF) =  -152.107822632     A.U. after   10 cycles
 E2 =    -0.5258735281D+00 EUMP2 =    -0.15263369616032D+03
 CCSD(T)
 CCSD(T)= -0.15266090501D+03

 The electronic state is 1-A'.
 Alpha  occ. eigenvalues --  -20.56249 -20.55228  -1.33551  -1.32531  -0.70965
 Alpha  occ. eigenvalues --   -0.69927  -0.57017  -0.55986  -0.50662  -0.49645
 Alpha virt. eigenvalues --    0.12704   0.14872   0.19042   0.21666   0.53201
 Alpha virt. eigenvalues --    0.54908   0.56536   0.57769   0.66813   0.68638
 Alpha virt. eigenvalues --    0.78231   0.79224   0.79420   0.81260   0.82109

 Mulliken charges:
               1
     1  O   -0.510335
     2  H    0.258287
     3  H    0.251914
     4  O   -0.511407
     5  H    0.258665
     6  H    0.252877
 Sum of Mulliken charges =  -0.00000

 Dipole moment (field-independent basis, Debye):
    X=             -3.0236    Y=              2.5375    Z=              0.0000  Tot=              3.9473
 Quadrupole moment (field-independent basis, Debye-Ang):
   XX=            -10.5506   YY=             -8.5085   ZZ=            -14.7125
   XY=              2.6654   XZ=              0.0000   YZ=              0.0000

 Normal termination of Gaussian 16 at Sun Aug 28 01:25:57 2022.
