 Gaussian 16, Revision A.03,
 Gaussian 16:  ES64L-G16RevA.03 25-Dec-2016

 ------------------
 #p CCSD(T)/cc-pVTZ
 ------------------

 ------------
 H2O_H2O_3066
 ------------
 Symbolic Z-matrix:
 Charge =  0 Multiplicity = 1

                         Standard orientation:
 ---------------------------------------------------------------------
 Center     Atomic      Atomic             Coordinates (Angstroms)
 Number     Number       Type             X           Y           Z
 ---------------------------------------------------------------------
      1          8           0        0.041143    2.329056    0.000000
      2          1           0        0.039179    1.346456    0.000000
      3          1           0       -0.887712    2.649579    0.000000
      4          8           0        0.041143   -2.149133   -0.000000
      5          1           0        0.891117   -2.642134   -0.000000
      6          1           0       -0.700866   -2.793282   -0.000000
 ---------------------------------------------------------------------

 SCF Done:  E(RHF) =  -152.109847385     A.U. after   10 cycles
 E2 =    -0.5259176883D+00 EUMP2 =    -0.15263576507304D+03
 CCSD(T)
 CCSD(T)= -0.15266290919D+03

 The electronic state is 1-A'.
 Alpha  occ. eigenvalues --  -20.56617 -20.54460  -1.33897  -1.31780  -0.71297
 Alpha  occ. eigenvalues --   -0.69176  -0.57441  -0.55269  -0.51027  -0.48916
 Alpha virt. eigenvalues --    0.12545   0.15903   0.19462   0.22569   0.53219
 Alpha virt. eigenvalues --    0.55424   0.56398   0.58459   0.68083   0.69339
 Alpha virt. eigenvalues --    0.77871   0.79057   0.79412   0.79912   0.83234

 Mulliken charges:
               1
     1  O   -0.519251
     2  H    0.264250
     3  H    0.252266
     4  O   -0.514773
     5  H    0.259978
     6  H    0.257530
 Sum of Mulliken charges =   0.00000

 Dipole moment (field-independent basis, Debye):
    X=             -1.4035    Y=             -3.2352    Z=             -0.0000  Tot=              3.5265
 Quadrupole moment (field-independent basis, Debye-Ang):
   XX=             -9.1492   YY=             -7.1568   ZZ=            -14.7198
   XY=             -4.9817   XZ=             -0.0000   YZ=              0.0000

 CCSD(T)=-152.6629092\RMSD=6.858e-09\PG=CS [SG(H4O2)]\\@
 Normal termination of Gaussian 16 at Fri Aug 26 19:35:00 2022.
