 Gaussian 16, Revision A.03,
 Gaussian 16:  ES64L-G16RevA.03 25-Dec-2016

 ------------------
 #p CCSD(T)/cc-pVTZ
 ------------------

 ------------
 H2O_H2O_4126
 ------------
 Symbolic Z-matrix:
 Charge =  0 Multiplicity = 1

                         Standard orientation:
 ---------------------------------------------------------------------
 Center     Atomic      Atomic             Coordinates (Angstroms)
 Number     Number       Type             X           Y           Z
 ---------------------------------------------------------------------
      1          8           0        0.090684   -2.735458    0.000000
      2          1           0        0.090611   -1.752856    0.000000
      3          1           0       -0.838786   -3.054192    0.000000
      4          8           0        0.090684    2.596747    0.000000
      5          1           0        0.154878    3.577249    0.000000
      6          1           0       -0.857642    2.339485    0.000000
 ---------------------------------------------------------------------

 SCF Done:  E(RHF) =  -152.107766703     A.U. after   10 cycles
 E2 =    -0.5258893884D+00 EUMP2 =    -0.15263365609183D+03
 CCSD(T)
 CCSD(T)= -0.15266086528D+03

 The electronic state is 1-A'.
 Alpha  occ. eigenvalues --  -20.56284 -20.55261  -1.33585  -1.32563  -0.71002
 Alpha  occ. eigenvalues --   -0.69957  -0.57049  -0.56016  -0.50696  -0.49676
 Alpha virt. eigenvalues --    0.12451   0.14938   0.18926   0.21957   0.53138
 Alpha virt. eigenvalues --    0.54927   0.56511   0.57799   0.66783   0.68672
 Alpha virt. eigenvalues --    0.78200   0.79195   0.79330   0.81437   0.82157

 Mulliken charges:
               1
     1  O   -0.509927
     2  H    0.258054
     3  H    0.251700
     4  O   -0.510994
     5  H    0.258821
     6  H    0.252346
 Sum of Mulliken charges =  -0.00000

 Dipole moment (field-independent basis, Debye):
    X=             -3.1061    Y=              2.4423    Z=              0.0000  Tot=              3.9513
 Quadrupole moment (field-independent basis, Debye-Ang):
   XX=            -10.7016   YY=             -8.8859   ZZ=            -14.7122
   XY=              2.4055   XZ=              0.0000   YZ=              0.0000

 Normal termination of Gaussian 16 at Sat Aug 27 23:57:10 2022.
