 Gaussian 16, Revision A.03,
 Gaussian 16:  ES64L-G16RevA.03 25-Dec-2016

 ------------------
 #p CCSD(T)/cc-pVTZ
 ------------------

 ------------
 H2O_H2O_4602
 ------------
 Symbolic Z-matrix:
 Charge =  0 Multiplicity = 1

                         Standard orientation:
 ---------------------------------------------------------------------
 Center     Atomic      Atomic             Coordinates (Angstroms)
 Number     Number       Type             X           Y           Z
 ---------------------------------------------------------------------
      1          8           0        0.088229   -2.927975    0.000000
      2          1           0        0.088089   -1.945373    0.000000
      3          1           0       -0.841219   -3.246774    0.000000
      4          8           0        0.088229    2.783649    0.000000
      5          1           0        0.216345    3.757863    0.000000
      6          1           0       -0.874879    2.588894    0.000000
 ---------------------------------------------------------------------

 SCF Done:  E(RHF) =  -152.107755791     A.U. after   10 cycles
 E2 =    -0.5258621132D+00 EUMP2 =    -0.15263361790460D+03
 CCSD(T)
 CCSD(T)= -0.15266082995D+03

 The electronic state is 1-A'.
 Alpha  occ. eigenvalues --  -20.56189 -20.55269  -1.33490  -1.32571  -0.70903
 Alpha  occ. eigenvalues --   -0.69968  -0.56954  -0.56025  -0.50602  -0.49685
 Alpha virt. eigenvalues --    0.12992   0.14712   0.19116   0.21381   0.53344
 Alpha virt. eigenvalues --    0.54804   0.56581   0.57673   0.66953   0.68457
 Alpha virt. eigenvalues --    0.78287   0.79186   0.79643   0.81082   0.81764

 Mulliken charges:
               1
     1  O   -0.510200
     2  H    0.257867
     3  H    0.252277
     4  O   -0.511175
     5  H    0.258157
     6  H    0.253073
 Sum of Mulliken charges =  -0.00000

 Dipole moment (field-independent basis, Debye):
    X=             -3.0264    Y=              2.5304    Z=              0.0000  Tot=              3.9449
 Quadrupole moment (field-independent basis, Debye-Ang):
   XX=            -10.5494   YY=             -8.4644   ZZ=            -14.7123
   XY=              2.6883   XZ=              0.0000   YZ=              0.0000

 Normal termination of Gaussian 16 at Sun Aug 28 04:15:35 2022.
