 Gaussian 16, Revision A.03,
 Gaussian 16:  ES64L-G16RevA.03 25-Dec-2016

 ------------------
 #p CCSD(T)/cc-pVTZ
 ------------------

 ------------
 H2O_H2O_4512
 ------------
 Symbolic Z-matrix:
 Charge =  0 Multiplicity = 1

                         Standard orientation:
 ---------------------------------------------------------------------
 Center     Atomic      Atomic             Coordinates (Angstroms)
 Number     Number       Type             X           Y           Z
 ---------------------------------------------------------------------
      1          8           0        0.055965    2.906889    0.000000
      2          1           0        0.054851    1.924289    0.000000
      3          1           0       -0.873166    3.226609    0.000000
      4          8           0        0.055965   -2.727950   -0.000000
      5          1           0        0.749982   -3.423541   -0.000000
      6          1           0       -0.827106   -3.158869   -0.000000
 ---------------------------------------------------------------------

 SCF Done:  E(RHF) =  -152.108350570     A.U. after   10 cycles
 E2 =    -0.5258149444D+00 EUMP2 =    -0.15263416551414D+03
 CCSD(T)
 CCSD(T)= -0.15266136397D+03

 The electronic state is 1-A'.
 Alpha  occ. eigenvalues --  -20.56186 -20.54960  -1.33487  -1.32267  -0.70892
 Alpha  occ. eigenvalues --   -0.69667  -0.56977  -0.55736  -0.50605  -0.49389
 Alpha virt. eigenvalues --    0.13352   0.14914   0.19681   0.21035   0.53639
 Alpha virt. eigenvalues --    0.54849   0.56656   0.57791   0.66846   0.68745
 Alpha virt. eigenvalues --    0.78282   0.79468   0.79626   0.80204   0.82654

 Mulliken charges:
               1
     1  O   -0.513452
     2  H    0.260350
     3  H    0.252978
     4  O   -0.514262
     5  H    0.258411
     6  H    0.255976
 Sum of Mulliken charges =  -0.00000

 Dipole moment (field-independent basis, Debye):
    X=             -1.9192    Y=             -3.1410    Z=             -0.0000  Tot=              3.6809
 Quadrupole moment (field-independent basis, Debye-Ang):
   XX=             -9.2851   YY=             -6.2953   ZZ=            -14.7146
   XY=             -5.1291   XZ=             -0.0000   YZ=              0.0000

 Normal termination of Gaussian 16 at Sun Aug 28 03:28:55 2022.
