 Gaussian 16, Revision A.03,
 Gaussian 16:  ES64L-G16RevA.03 25-Dec-2016

 ------------------
 #p CCSD(T)/cc-pVTZ
 ------------------

 ------------
 H2O_H2O_4151
 ------------
 Symbolic Z-matrix:
 Charge =  0 Multiplicity = 1

                         Standard orientation:
 ---------------------------------------------------------------------
 Center     Atomic      Atomic             Coordinates (Angstroms)
 Number     Number       Type             X           Y           Z
 ---------------------------------------------------------------------
      1          8           0        0.090684   -2.745430    0.000000
      2          1           0        0.090612   -1.762828    0.000000
      3          1           0       -0.838786   -3.064164    0.000000
      4          8           0        0.090684    2.606719    0.000000
      5          1           0        0.154877    3.587222    0.000000
      6          1           0       -0.857642    2.349456    0.000000
 ---------------------------------------------------------------------

 SCF Done:  E(RHF) =  -152.107760950     A.U. after   10 cycles
 E2 =    -0.5258878621D+00 EUMP2 =    -0.15263364881211D+03
 CCSD(T)
 CCSD(T)= -0.15266085833D+03

 The electronic state is 1-A'.
 Alpha  occ. eigenvalues --  -20.56279 -20.55264  -1.33580  -1.32566  -0.70996
 Alpha  occ. eigenvalues --   -0.69961  -0.57043  -0.56019  -0.50691  -0.49679
 Alpha virt. eigenvalues --    0.12476   0.14924   0.18926   0.21933   0.53143
 Alpha virt. eigenvalues --    0.54922   0.56514   0.57792   0.66789   0.68659
 Alpha virt. eigenvalues --    0.78205   0.79192   0.79356   0.81438   0.82119

 Mulliken charges:
               1
     1  O   -0.509919
     2  H    0.258022
     3  H    0.251734
     4  O   -0.510991
     5  H    0.258783
     6  H    0.252371
 Sum of Mulliken charges =  -0.00000

 Dipole moment (field-independent basis, Debye):
    X=             -3.1064    Y=              2.4416    Z=              0.0000  Tot=              3.9511
 Quadrupole moment (field-independent basis, Debye-Ang):
   XX=            -10.7015   YY=             -8.8847   ZZ=            -14.7122
   XY=              2.4064   XZ=              0.0000   YZ=              0.0000

 Normal termination of Gaussian 16 at Sun Aug 28 00:10:27 2022.
