 Gaussian 16, Revision A.03,
 Gaussian 16:  ES64L-G16RevA.03 25-Dec-2016

 ------------------
 #p CCSD(T)/cc-pVTZ
 ------------------

 -----------
 H2O_H2O_450
 -----------
 Symbolic Z-matrix:
 Charge =  0 Multiplicity = 1

                         Standard orientation:
 ---------------------------------------------------------------------
 Center     Atomic      Atomic             Coordinates (Angstroms)
 Number     Number       Type             X           Y           Z
 ---------------------------------------------------------------------
      1          8           0        0.092949   -1.266366    0.000000
      2          1           0        0.092949   -0.283765    0.000000
      3          1           0       -0.836544   -1.585033    0.000000
      4          8           0        0.092949    1.133579    0.000000
      5          1           0        0.092950    2.116182    0.000000
      6          1           0       -0.836544    0.814913    0.000000
 ---------------------------------------------------------------------

 SCF Done:  E(RHF) =  -152.082920743     A.U. after   11 cycles
 E2 =    -0.5343100861D+00 EUMP2 =    -0.15261723082956D+03
 CCSD(T)
 CCSD(T)= -0.15264365544D+03

 The electronic state is 1-A'.
 Alpha  occ. eigenvalues --  -20.60138 -20.51105  -1.39439  -1.29279  -0.79011
 Alpha  occ. eigenvalues --   -0.67918  -0.59455  -0.55378  -0.51873  -0.46228
 Alpha virt. eigenvalues --    0.11208   0.16285   0.21294   0.32195   0.48641
 Alpha virt. eigenvalues --    0.51434   0.59112   0.66001   0.71097   0.71375
 Alpha virt. eigenvalues --    0.74018   0.77026   0.78924   0.82366   0.83864

 Mulliken charges:
               1
     1  O   -0.562097
     2  H    0.279214
     3  H    0.210055
     4  O   -0.384629
     5  H    0.229340
     6  H    0.228115
 Sum of Mulliken charges =   0.00000

 Dipole moment (field-independent basis, Debye):
    X=             -2.9804    Y=              3.3068    Z=              0.0000  Tot=              4.4517
 Quadrupole moment (field-independent basis, Debye-Ang):
   XX=            -10.8687   YY=             -9.5557   ZZ=            -14.6145
   XY=              1.9966   XZ=              0.0000   YZ=              0.0000

 Normal termination of Gaussian 16 at Fri Aug 26 18:20:51 2022.
