 Gaussian 16, Revision A.03,
 Gaussian 16:  ES64L-G16RevA.03 25-Dec-2016

 ------------------
 #p CCSD(T)/cc-pVTZ
 ------------------

 ------------
 H2O_H2O_2514
 ------------
 Symbolic Z-matrix:
 Charge =  0 Multiplicity = 1

                         Standard orientation:
 ---------------------------------------------------------------------
 Center     Atomic      Atomic             Coordinates (Angstroms)
 Number     Number       Type             X           Y           Z
 ---------------------------------------------------------------------
      1          8           0        0.048601    2.109915   -0.000000
      2          1           0        0.046736    1.127316   -0.000000
      3          1           0       -0.880285    2.430345   -0.000000
      4          8           0        0.048601   -1.929546    0.000000
      5          1           0        0.827015   -2.529195    0.000000
      6          1           0       -0.771084   -2.471416    0.000000
 ---------------------------------------------------------------------

 SCF Done:  E(RHF) =  -152.110869119     A.U. after   10 cycles
 E2 =    -0.5260927913D+00 EUMP2 =    -0.15263696191004D+03
 CCSD(T)
 CCSD(T)= -0.15266407002D+03

 The electronic state is 1-A'.
 Alpha  occ. eigenvalues --  -20.56938 -20.54132  -1.34200  -1.31464  -0.71595
 Alpha  occ. eigenvalues --   -0.68859  -0.57794  -0.54949  -0.51336  -0.48607
 Alpha virt. eigenvalues --    0.12342   0.16423   0.19332   0.24085   0.52662
 Alpha virt. eigenvalues --    0.55590   0.56288   0.59001   0.69041   0.70626
 Alpha virt. eigenvalues --    0.77390   0.78679   0.80234   0.80793   0.83689

 Mulliken charges:
               1
     1  O   -0.522987
     2  H    0.266590
     3  H    0.250363
     4  O   -0.511179
     5  H    0.260547
     6  H    0.256667
 Sum of Mulliken charges =   0.00000

 Dipole moment (field-independent basis, Debye):
    X=             -1.6515    Y=             -3.3058    Z=             -0.0000  Tot=              3.6953
 Quadrupole moment (field-independent basis, Debye-Ang):
   XX=             -9.1841   YY=             -7.5049   ZZ=            -14.7230
   XY=             -4.3490   XZ=              0.0000   YZ=             -0.0000

 CCSD(T)=-152.66407\RMSD=6.668e-09\PG=CS [SG(H4O2)]\\@
 Normal termination of Gaussian 16 at Fri Aug 26 15:17:33 2022.
