 Gaussian 16, Revision A.03,
 Gaussian 16:  ES64L-G16RevA.03 25-Dec-2016

 ------------------
 #p CCSD(T)/cc-pVTZ
 ------------------

 ------------
 H2O_H2O_4666
 ------------
 Symbolic Z-matrix:
 Charge =  0 Multiplicity = 1

                         Standard orientation:
 ---------------------------------------------------------------------
 Center     Atomic      Atomic             Coordinates (Angstroms)
 Number     Number       Type             X           Y           Z
 ---------------------------------------------------------------------
      1          8           0        0.041103    2.967277    0.000000
      2          1           0        0.039574    1.984676    0.000000
      3          1           0       -0.887893    3.287388    0.000000
      4          8           0        0.041103   -2.787318   -0.000000
      5          1           0        0.891295   -3.279941   -0.000000
      6          1           0       -0.700621   -3.431796   -0.000000
 ---------------------------------------------------------------------

 SCF Done:  E(RHF) =  -152.108379712     A.U. after   10 cycles
 E2 =    -0.5258036383D+00 EUMP2 =    -0.15263418335011D+03
 CCSD(T)
 CCSD(T)= -0.15266138225D+03

 The electronic state is 1-A'.
 Alpha  occ. eigenvalues --  -20.56155 -20.54976  -1.33457  -1.32283  -0.70861
 Alpha  occ. eigenvalues --   -0.69686  -0.56949  -0.55754  -0.50576  -0.49406
 Alpha virt. eigenvalues --    0.13441   0.14873   0.19719   0.20987   0.53685
 Alpha virt. eigenvalues --    0.54835   0.56690   0.57792   0.66921   0.68657
 Alpha virt. eigenvalues --    0.78309   0.79451   0.79706   0.80292   0.82541

 Mulliken charges:
               1
     1  O   -0.513826
     2  H    0.260105
     3  H    0.253639
     4  O   -0.514493
     5  H    0.257895
     6  H    0.256680
 Sum of Mulliken charges =   0.00000

 Dipole moment (field-independent basis, Debye):
    X=             -1.4104    Y=             -3.1546    Z=             -0.0000  Tot=              3.4555
 Quadrupole moment (field-independent basis, Debye-Ang):
   XX=             -9.1495   YY=             -6.1333   ZZ=            -14.7147
   XY=             -6.1258   XZ=             -0.0000   YZ=             -0.0000

 Normal termination of Gaussian 16 at Sun Aug 28 04:46:11 2022.
