 Gaussian 16, Revision A.03,
 Gaussian 16:  ES64L-G16RevA.03 25-Dec-2016

 ------------------
 #p CCSD(T)/cc-pVTZ
 ------------------

 -----------
 H2O_H2O_664
 -----------
 Symbolic Z-matrix:
 Charge =  0 Multiplicity = 1

                         Standard orientation:
 ---------------------------------------------------------------------
 Center     Atomic      Atomic             Coordinates (Angstroms)
 Number     Number       Type             X           Y           Z
 ---------------------------------------------------------------------
      1          8           0        0.048700    1.371942    0.000000
      2          1           0        0.045762    0.389345    0.000000
      3          1           0       -0.879836    1.693386    0.000000
      4          8           0        0.048700   -1.191679   -0.000000
      5          1           0        0.826458   -1.792176   -0.000000
      6          1           0       -0.771577   -1.732653   -0.000000
 ---------------------------------------------------------------------

 SCF Done:  E(RHF) =  -152.107315337     A.U. after   11 cycles
 E2 =    -0.5305062658D+00 EUMP2 =    -0.15263782160320D+03
 CCSD(T)
 CCSD(T)= -0.15266438954D+03

 The electronic state is 1-A'.
 Alpha  occ. eigenvalues --  -20.59720 -20.49846  -1.37727  -1.27994  -0.74590
 Alpha  occ. eigenvalues --   -0.69774  -0.59196  -0.54573  -0.50466  -0.45009
 Alpha virt. eigenvalues --    0.11469   0.17769   0.19512   0.33283   0.47673
 Alpha virt. eigenvalues --    0.54013   0.59905   0.62351   0.70020   0.72366
 Alpha virt. eigenvalues --    0.72538   0.78224   0.81714   0.82759   0.84351

 Mulliken charges:
               1
     1  O   -0.598012
     2  H    0.312644
     3  H    0.231330
     4  O   -0.461190
     5  H    0.262164
     6  H    0.253066
 Sum of Mulliken charges =  -0.00000

 Dipole moment (field-independent basis, Debye):
    X=             -1.5749    Y=             -4.1092    Z=             -0.0000  Tot=              4.4007
 Quadrupole moment (field-independent basis, Debye-Ang):
   XX=             -9.1705   YY=             -9.1968   ZZ=            -14.6974
   XY=             -3.1542   XZ=             -0.0000   YZ=             -0.0000

 Normal termination of Gaussian 16 at Fri Aug 26 19:42:49 2022.
