 Gaussian 16, Revision A.03,
 Gaussian 16:  ES64L-G16RevA.03 25-Dec-2016

 ------------------
 #p CCSD(T)/cc-pVTZ
 ------------------

 ------------
 H2O_H2O_2250
 ------------
 Symbolic Z-matrix:
 Charge =  0 Multiplicity = 1

                         Standard orientation:
 ---------------------------------------------------------------------
 Center     Atomic      Atomic             Coordinates (Angstroms)
 Number     Number       Type             X           Y           Z
 ---------------------------------------------------------------------
      1          8           0        0.092949   -1.984346    0.000000
      2          1           0        0.092949   -1.001744    0.000000
      3          1           0       -0.836544   -2.303012    0.000000
      4          8           0        0.092949    1.851559    0.000000
      5          1           0        0.092949    2.834160    0.000000
      6          1           0       -0.836544    1.532891    0.000000
 ---------------------------------------------------------------------

 SCF Done:  E(RHF) =  -152.108610761     A.U. after   10 cycles
 E2 =    -0.5264924144D+00 EUMP2 =    -0.15263510317543D+03
 CCSD(T)
 CCSD(T)= -0.15266225340D+03

 The electronic state is 1-A'.
 Alpha  occ. eigenvalues --  -20.57097 -20.54958  -1.34390  -1.32261  -0.71887
 Alpha  occ. eigenvalues --   -0.69597  -0.57870  -0.55697  -0.51488  -0.49373
 Alpha virt. eigenvalues --    0.11421   0.15963   0.20044   0.24772   0.52925
 Alpha virt. eigenvalues --    0.55816   0.56677   0.57499   0.68149   0.72457
 Alpha virt. eigenvalues --    0.76811   0.79361   0.79658   0.79995   0.83190

 Mulliken charges:
               1
     1  O   -0.513216
     2  H    0.263828
     3  H    0.245943
     4  O   -0.501597
     5  H    0.258975
     6  H    0.246067
 Sum of Mulliken charges =  -0.00000

 Dipole moment (field-independent basis, Debye):
    X=             -3.1426    Y=              2.4455    Z=              0.0000  Tot=              3.9820
 Quadrupole moment (field-independent basis, Debye-Ang):
   XX=            -10.8749   YY=             -9.1674   ZZ=            -14.7134
   XY=              2.1403   XZ=              0.0000   YZ=              0.0000

 Normal termination of Gaussian 16 at Sun Aug 28 05:45:07 2022.
