 Gaussian 16, Revision A.03,
 Gaussian 16:  ES64L-G16RevA.03 25-Dec-2016

 ------------------
 #p CCSD(T)/cc-pVTZ
 ------------------

 ------------
 H2O_H2O_1831
 ------------
 Symbolic Z-matrix:
 Charge =  0 Multiplicity = 1

                         Standard orientation:
 ---------------------------------------------------------------------
 Center     Atomic      Atomic             Coordinates (Angstroms)
 Number     Number       Type             X           Y           Z
 ---------------------------------------------------------------------
      1          8           0        0.076773    1.831334    0.000000
      2          1           0        0.075988    0.848733    0.000000
      3          1           0       -0.852465    2.150743    0.000000
      4          8           0        0.076773   -1.668153   -0.000000
      5          1           0        0.452073   -2.576258   -0.000000
      6          1           0       -0.903964   -1.728661   -0.000000
 ---------------------------------------------------------------------

 SCF Done:  E(RHF) =  -152.111258239     A.U. after   10 cycles
 E2 =    -0.5267578815D+00 EUMP2 =    -0.15263801612042D+03
 CCSD(T)
 CCSD(T)= -0.15266508780D+03

 The electronic state is 1-A'.
 Alpha  occ. eigenvalues --  -20.57513 -20.53952  -1.34791  -1.31306  -0.72240
 Alpha  occ. eigenvalues --   -0.68703  -0.58420  -0.54725  -0.51907  -0.48438
 Alpha virt. eigenvalues --    0.11852   0.16643   0.19569   0.26608   0.50927
 Alpha virt. eigenvalues --    0.55510   0.56521   0.58239   0.69111   0.73414
 Alpha virt. eigenvalues --    0.75588   0.78028   0.80620   0.83145   0.83693

 Mulliken charges:
               1
     1  O   -0.524510
     2  H    0.269618
     3  H    0.244150
     4  O   -0.501526
     5  H    0.259590
     6  H    0.252678
 Sum of Mulliken charges =  -0.00000

 Dipole moment (field-independent basis, Debye):
    X=             -2.5856    Y=             -3.0980    Z=             -0.0000  Tot=              4.0353
 Quadrupole moment (field-independent basis, Debye-Ang):
   XX=             -9.9765   YY=             -8.3285   ZZ=            -14.7244
   XY=             -3.0963   XZ=             -0.0000   YZ=             -0.0000

 Normal termination of Gaussian 16 at Sun Aug 28 01:58:35 2022.
