 Gaussian 16, Revision A.03,
 Gaussian 16:  ES64L-G16RevA.03 25-Dec-2016

 ------------------
 #p CCSD(T)/cc-pVTZ
 ------------------

 ------------
 H2O_H2O_2246
 ------------
 Symbolic Z-matrix:
 Charge =  0 Multiplicity = 1

                         Standard orientation:
 ---------------------------------------------------------------------
 Center     Atomic      Atomic             Coordinates (Angstroms)
 Number     Number       Type             X           Y           Z
 ---------------------------------------------------------------------
      1          8           0       -0.023251    1.994795    0.000000
      2          1           0       -0.020152    1.012199    0.000000
      3          1           0        0.905232    2.316392    0.000000
      4          8           0       -0.023251   -1.824431    0.000000
      5          1           0       -0.986364   -2.019166    0.000000
      6          1           0        0.473304   -2.672334    0.000000
 ---------------------------------------------------------------------

 SCF Done:  E(RHF) =  -152.111536277     A.U. after   10 cycles
 E2 =    -0.5262070498D+00 EUMP2 =    -0.15263774332631D+03
 CCSD(T)
 CCSD(T)= -0.15266483239D+03

 The electronic state is 1-A'.
 Alpha  occ. eigenvalues --  -20.57106 -20.54059  -1.34372  -1.31402  -0.71776
 Alpha  occ. eigenvalues --   -0.68817  -0.58006  -0.54882  -0.51508  -0.48553
 Alpha virt. eigenvalues --    0.12255   0.16700   0.19230   0.25224   0.53067
 Alpha virt. eigenvalues --    0.55126   0.56254   0.58691   0.68898   0.71889
 Alpha virt. eigenvalues --    0.76890   0.78720   0.80344   0.82858   0.83591

 Mulliken charges:
               1
     1  O   -0.527558
     2  H    0.266692
     3  H    0.253016
     4  O   -0.510775
     5  H    0.260638
     6  H    0.257988
 Sum of Mulliken charges =  -0.00000

 Dipole moment (field-independent basis, Debye):
    X=              0.7925    Y=             -3.1576    Z=              0.0000  Tot=              3.2555
 Quadrupole moment (field-independent basis, Debye-Ang):
   XX=             -9.3621   YY=             -7.9395   ZZ=            -14.7253
   XY=              4.9572   XZ=              0.0000   YZ=              0.0000

 Normal termination of Gaussian 16 at Sun Aug 28 05:43:01 2022.
