 Gaussian 16, Revision A.03,
 Gaussian 16:  ES64L-G16RevA.03 25-Dec-2016

 ------------------
 #p CCSD(T)/cc-pVTZ
 ------------------

 ------------
 H2O_H2O_2253
 ------------
 Symbolic Z-matrix:
 Charge =  0 Multiplicity = 1

                         Standard orientation:
 ---------------------------------------------------------------------
 Center     Atomic      Atomic             Coordinates (Angstroms)
 Number     Number       Type             X           Y           Z
 ---------------------------------------------------------------------
      1          8           0        0.085605   -1.993472    0.000000
      2          1           0        0.085280   -1.010870    0.000000
      3          1           0       -0.843783   -2.312446    0.000000
      4          8           0        0.085605    1.843884    0.000000
      5          1           0        0.276982    2.807668    0.000000
      6          1           0       -0.888153    1.712353    0.000000
 ---------------------------------------------------------------------

 SCF Done:  E(RHF) =  -152.109550739     A.U. after   10 cycles
 E2 =    -0.5264083177D+00 EUMP2 =    -0.15263595905643D+03
 CCSD(T)
 CCSD(T)= -0.15266308502D+03

 The electronic state is 1-A'.
 Alpha  occ. eigenvalues --  -20.57107 -20.54604  -1.34390  -1.31920  -0.71847
 Alpha  occ. eigenvalues --   -0.69280  -0.57914  -0.55367  -0.51500  -0.49042
 Alpha virt. eigenvalues --    0.11694   0.16148   0.19750   0.24700   0.52837
 Alpha virt. eigenvalues --    0.55766   0.56511   0.57786   0.68584   0.72218
 Alpha virt. eigenvalues --    0.76875   0.79356   0.79929   0.81046   0.83402

 Mulliken charges:
               1
     1  O   -0.516577
     2  H    0.265012
     3  H    0.246222
     4  O   -0.503810
     5  H    0.259100
     6  H    0.250052
 Sum of Mulliken charges =  -0.00000

 Dipole moment (field-independent basis, Debye):
    X=             -2.8970    Y=              2.7617    Z=              0.0000  Tot=              4.0024
 Quadrupole moment (field-independent basis, Debye-Ang):
   XX=            -10.4232   YY=             -8.5667   ZZ=            -14.7176
   XY=              2.7016   XZ=              0.0000   YZ=              0.0000

 Normal termination of Gaussian 16 at Sun Aug 28 05:47:14 2022.
