 Gaussian 16, Revision A.03,
 Gaussian 16:  ES64L-G16RevA.03 25-Dec-2016

 ------------------
 #p CCSD(T)/cc-pVTZ
 ------------------

 ------------
 H2O_H2O_4531
 ------------
 Symbolic Z-matrix:
 Charge =  0 Multiplicity = 1

                         Standard orientation:
 ---------------------------------------------------------------------
 Center     Atomic      Atomic             Coordinates (Angstroms)
 Number     Number       Type             X           Y           Z
 ---------------------------------------------------------------------
      1          8           0        0.076748    2.908325    0.000000
      2          1           0        0.076262    1.925724    0.000000
      3          1           0       -0.852587    3.227452   -0.000000
      4          8           0        0.076748   -2.745098    0.000000
      5          1           0        0.452324   -3.653090    0.000000
      6          1           0       -0.903970   -2.805905   -0.000000
 ---------------------------------------------------------------------

 SCF Done:  E(RHF) =  -152.108044994     A.U. after   10 cycles
 E2 =    -0.5258406533D+00 EUMP2 =    -0.15263388564693D+03
 CCSD(T)
 CCSD(T)= -0.15266109077D+03

 The electronic state is 1-A'.
 Alpha  occ. eigenvalues --  -20.56192 -20.55102  -1.33494  -1.32407  -0.70903
 Alpha  occ. eigenvalues --   -0.69804  -0.56970  -0.55868  -0.50608  -0.49524
 Alpha virt. eigenvalues --    0.13190   0.14814   0.19445   0.21137   0.53457
 Alpha virt. eigenvalues --    0.54858   0.56615   0.57744   0.66889   0.68623
 Alpha virt. eigenvalues --    0.78280   0.79339   0.79505   0.80705   0.82348

 Mulliken charges:
               1
     1  O   -0.511719
     2  H    0.259242
     3  H    0.252383
     4  O   -0.512697
     5  H    0.258455
     6  H    0.254337
 Sum of Mulliken charges =  -0.00000

 Dipole moment (field-independent basis, Debye):
    X=             -2.6320    Y=             -2.8642    Z=              0.0000  Tot=              3.8899
 Quadrupole moment (field-independent basis, Debye-Ang):
   XX=             -9.9479   YY=             -7.2322   ZZ=            -14.7134
   XY=             -3.7135   XZ=              0.0000   YZ=              0.0000

 Normal termination of Gaussian 16 at Sun Aug 28 03:39:56 2022.
