 Gaussian 16, Revision A.03,
 Gaussian 16:  ES64L-G16RevA.03 25-Dec-2016

 ------------------
 #p CCSD(T)/cc-pVTZ
 ------------------

 ------------
 H2O_H2O_3423
 ------------
 Symbolic Z-matrix:
 Charge =  0 Multiplicity = 1

                         Standard orientation:
 ---------------------------------------------------------------------
 Center     Atomic      Atomic             Coordinates (Angstroms)
 Number     Number       Type             X           Y           Z
 ---------------------------------------------------------------------
      1          8           0       -0.016615    2.459689    0.000000
      2          1           0       -0.013892    1.477091    0.000000
      3          1           0        0.911991    2.780930    0.000000
      4          8           0       -0.016615   -2.296294    0.000000
      5          1           0       -0.996932   -2.363277    0.000000
      6          1           0        0.364672   -3.201902    0.000000
 ---------------------------------------------------------------------

 SCF Done:  E(RHF) =  -152.109240517     A.U. after   10 cycles
 E2 =    -0.5258535364D+00 EUMP2 =    -0.15263509405314D+03
 CCSD(T)
 CCSD(T)= -0.15266226142D+03

 The electronic state is 1-A'.
 Alpha  occ. eigenvalues --  -20.56452 -20.54789  -1.33747  -1.32103  -0.71153
 Alpha  occ. eigenvalues --   -0.69510  -0.57266  -0.55589  -0.50870  -0.49235
 Alpha virt. eigenvalues --    0.12482   0.15568   0.19261   0.22336   0.53369
 Alpha virt. eigenvalues --    0.55385   0.56530   0.57996   0.67099   0.69276
 Alpha virt. eigenvalues --    0.78031   0.78683   0.79606   0.80619   0.82952

 Mulliken charges:
               1
     1  O   -0.517583
     2  H    0.261569
     3  H    0.254750
     4  O   -0.515920
     5  H    0.258164
     6  H    0.259020
 Sum of Mulliken charges =  -0.00000

 Dipole moment (field-independent basis, Debye):
    X=              0.5707    Y=             -2.9089    Z=              0.0000  Tot=              2.9643
 Quadrupole moment (field-independent basis, Debye-Ang):
   XX=             -9.5428   YY=             -7.6488   ZZ=            -14.7176
   XY=              6.4559   XZ=              0.0000   YZ=              0.0000

 Normal termination of Gaussian 16 at Fri Aug 26 21:37:03 2022.
