 Gaussian 16, Revision A.03,
 Gaussian 16:  ES64L-G16RevA.03 25-Dec-2016

 ------------------
 #p CCSD(T)/cc-pVTZ
 ------------------

 ------------
 H2O_H2O_3997
 ------------
 Symbolic Z-matrix:
 Charge =  0 Multiplicity = 1

                         Standard orientation:
 ---------------------------------------------------------------------
 Center     Atomic      Atomic             Coordinates (Angstroms)
 Number     Number       Type             X           Y           Z
 ---------------------------------------------------------------------
      1          8           0       -0.019830    2.691064    0.000000
      2          1           0       -0.017452    1.708465    0.000000
      3          1           0        0.908888    3.011980    0.000000
      4          8           0       -0.019830   -2.523946    0.000000
      5          1           0       -0.993712   -2.654559    0.000000
      6          1           0        0.419562   -3.402832    0.000000
 ---------------------------------------------------------------------

 SCF Done:  E(RHF) =  -152.108758460     A.U. after   10 cycles
 E2 =    -0.5258096546D+00 EUMP2 =    -0.15263456811445D+03
 CCSD(T)
 CCSD(T)= -0.15266175448D+03

 The electronic state is 1-A'.
 Alpha  occ. eigenvalues --  -20.56284 -20.54919  -1.33584  -1.32230  -0.70989
 Alpha  occ. eigenvalues --   -0.69635  -0.57089  -0.55708  -0.50705  -0.49357
 Alpha virt. eigenvalues --    0.12931   0.15185   0.19395   0.21583   0.53307
 Alpha virt. eigenvalues --    0.55091   0.56614   0.57843   0.66684   0.69012
 Alpha virt. eigenvalues --    0.78187   0.79067   0.79493   0.80537   0.82783

 Mulliken charges:
               1
     1  O   -0.515634
     2  H    0.260641
     3  H    0.254585
     4  O   -0.515854
     5  H    0.257810
     6  H    0.258454
 Sum of Mulliken charges =  -0.00000

 Dipole moment (field-independent basis, Debye):
    X=              0.6807    Y=             -2.9480    Z=              0.0000  Tot=              3.0256
 Quadrupole moment (field-independent basis, Debye-Ang):
   XX=             -9.4469   YY=             -7.2192   ZZ=            -14.7159
   XY=              6.8472   XZ=              0.0000   YZ=              0.0000

 Normal termination of Gaussian 16 at Sat Aug 27 00:54:31 2022.
