 Gaussian 16, Revision A.03,
 Gaussian 16:  ES64L-G16RevA.03 25-Dec-2016

 ------------------
 #p CCSD(T)/cc-pVTZ
 ------------------

 ------------
 H2O_H2O_4348
 ------------
 Symbolic Z-matrix:
 Charge =  0 Multiplicity = 1

                         Standard orientation:
 ---------------------------------------------------------------------
 Center     Atomic      Atomic             Coordinates (Angstroms)
 Number     Number       Type             X           Y           Z
 ---------------------------------------------------------------------
      1          8           0       -0.016585    2.828655    0.000000
      2          1           0       -0.014227    1.846057    0.000000
      3          1           0        0.912141    3.149551    0.000000
      4          8           0       -0.016585   -2.665249    0.000000
      5          1           0       -0.996926   -2.731865    0.000000
      6          1           0        0.364366   -3.570998    0.000000
 ---------------------------------------------------------------------

 SCF Done:  E(RHF) =  -152.108510927     A.U. after   10 cycles
 E2 =    -0.5258009151D+00 EUMP2 =    -0.15263431184246D+03
 CCSD(T)
 CCSD(T)= -0.15266150711D+03

 The electronic state is 1-A'.
 Alpha  occ. eigenvalues --  -20.56207 -20.55030  -1.33510  -1.32338  -0.70916
 Alpha  occ. eigenvalues --   -0.69745  -0.57005  -0.55813  -0.50629  -0.49463
 Alpha virt. eigenvalues --    0.13130   0.14977   0.19395   0.21378   0.53381
 Alpha virt. eigenvalues --    0.54971   0.56655   0.57796   0.66774   0.68754
 Alpha virt. eigenvalues --    0.78258   0.79387   0.79393   0.80712   0.82563

 Mulliken charges:
               1
     1  O   -0.514664
     2  H    0.259678
     3  H    0.254822
     4  O   -0.515150
     5  H    0.257176
     6  H    0.258138
 Sum of Mulliken charges =  -0.00000

 Dipole moment (field-independent basis, Debye):
    X=              0.5702    Y=             -2.8707    Z=              0.0000  Tot=              2.9268
 Quadrupole moment (field-independent basis, Debye-Ang):
   XX=             -9.5434   YY=             -7.2761   ZZ=            -14.7150
   XY=              7.4268   XZ=              0.0000   YZ=              0.0000

 9753\MP4DQ=-152.6434319\MP4SDQ=-152.6464781\CCSD=-152.6458938\CCSD(T)=
 Normal termination of Gaussian 16 at Sun Aug 28 02:07:34 2022.
