 Gaussian 16, Revision A.03,
 Gaussian 16:  ES64L-G16RevA.03 25-Dec-2016

 ------------------
 #p CCSD(T)/cc-pVTZ
 ------------------

 -----------
 H2O_H2O_271
 -----------
 Symbolic Z-matrix:
 Charge =  0 Multiplicity = 1

                         Standard orientation:
 ---------------------------------------------------------------------
 Center     Atomic      Atomic             Coordinates (Angstroms)
 Number     Number       Type             X           Y           Z
 ---------------------------------------------------------------------
      1          8           0       -0.023440    1.206967    0.000000
      2          1           0       -0.018164    0.224380    0.000000
      3          1           0        0.904329    1.530620    0.000000
      4          8           0       -0.023440   -1.036707    0.000000
      5          1           0       -0.986119   -1.233575    0.000000
      6          1           0        0.474993   -1.883507    0.000000
 ---------------------------------------------------------------------

 SCF Done:  E(RHF) =  -152.076802734     A.U. after   11 cycles
 E2 =    -0.5340113709D+00 EUMP2 =    -0.15261081410524D+03
 CCSD(T)
 CCSD(T)= -0.15263676536D+03

 The electronic state is 1-A'.
 Alpha  occ. eigenvalues --  -20.61018 -20.46807  -1.40926  -1.26035  -0.78515
 Alpha  occ. eigenvalues --   -0.72383  -0.57353  -0.56783  -0.47133  -0.42836
 Alpha virt. eigenvalues --    0.11008   0.17426   0.20295   0.33909   0.47242
 Alpha virt. eigenvalues --    0.52647   0.60096   0.68605   0.71045   0.71804
 Alpha virt. eigenvalues --    0.76856   0.78342   0.78456   0.84375   0.84397

 Mulliken charges:
               1
     1  O   -0.648363
     2  H    0.293572
     3  H    0.228026
     4  O   -0.369311
     5  H    0.261621
     6  H    0.234455
 Sum of Mulliken charges =  -0.00000

 Dipole moment (field-independent basis, Debye):
    X=              0.7348    Y=             -4.4717    Z=              0.0000  Tot=              4.5317
 Quadrupole moment (field-independent basis, Debye-Ang):
   XX=             -9.2824   YY=             -9.7711   ZZ=            -14.6138
   XY=              2.9740   XZ=              0.0000   YZ=              0.0000

 Normal termination of Gaussian 16 at Fri Aug 26 17:04:28 2022.
