 Gaussian 16, Revision A.03,
 Gaussian 16:  ES64L-G16RevA.03 25-Dec-2016

 ------------------
 #p CCSD(T)/cc-pVTZ
 ------------------

 ------------
 H2O_H2O_1186
 ------------
 Symbolic Z-matrix:
 Charge =  0 Multiplicity = 1

                         Standard orientation:
 ---------------------------------------------------------------------
 Center     Atomic      Atomic             Coordinates (Angstroms)
 Number     Number       Type             X           Y           Z
 ---------------------------------------------------------------------
      1          8           0        0.059699    1.579774   -0.000000
      2          1           0        0.057803    0.597174   -0.000000
      3          1           0       -0.869177    1.900233   -0.000000
      4          8           0        0.059699   -1.402407    0.000000
      5          1           0        0.706147   -2.142415    0.000000
      6          1           0       -0.849961   -1.773924    0.000000
 ---------------------------------------------------------------------

 SCF Done:  E(RHF) =  -152.113519013     A.U. after   10 cycles
 E2 =    -0.5280406371D+00 EUMP2 =    -0.15264155965042D+03
 CCSD(T)
 CCSD(T)= -0.15266848447D+03

 The electronic state is 1-A'.
 Alpha  occ. eigenvalues --  -20.58467 -20.52314  -1.35857  -1.29871  -0.73170
 Alpha  occ. eigenvalues --   -0.67984  -0.59515  -0.53051  -0.52945  -0.46995
 Alpha virt. eigenvalues --    0.11839   0.17544   0.19196   0.30789   0.48692
 Alpha virt. eigenvalues --    0.54830   0.57078   0.59620   0.69744   0.72176
 Alpha virt. eigenvalues --    0.73176   0.76819   0.82117   0.82565   0.84761

 Mulliken charges:
               1
     1  O   -0.552303
     2  H    0.289284
     3  H    0.239863
     4  O   -0.495189
     5  H    0.262056
     6  H    0.256288
 Sum of Mulliken charges =  -0.00000

 Dipole moment (field-independent basis, Debye):
    X=             -1.9813    Y=             -3.6184    Z=              0.0000  Tot=              4.1253
 Quadrupole moment (field-independent basis, Debye-Ang):
   XX=             -9.3770   YY=             -8.5774   ZZ=            -14.7296
   XY=             -3.3475   XZ=              0.0000   YZ=              0.0000

 Normal termination of Gaussian 16 at Fri Aug 26 22:58:37 2022.
