 Gaussian 16, Revision A.03,
 Gaussian 16:  ES64L-G16RevA.03 25-Dec-2016

 ------------------
 #p CCSD(T)/cc-pVTZ
 ------------------

 ------------
 H2O_H2O_3380
 ------------
 Symbolic Z-matrix:
 Charge =  0 Multiplicity = 1

                         Standard orientation:
 ---------------------------------------------------------------------
 Center     Atomic      Atomic             Coordinates (Angstroms)
 Number     Number       Type             X           Y           Z
 ---------------------------------------------------------------------
      1          8           0        0.079850    2.447356   -0.000000
      2          1           0        0.079381    1.464755   -0.000000
      3          1           0       -0.849491    2.766467   -0.000000
      4          8           0        0.079850   -2.288291    0.000000
      5          1           0        0.395253   -3.218897    0.000000
      6          1           0       -0.902746   -2.284842    0.000000
 ---------------------------------------------------------------------

 SCF Done:  E(RHF) =  -152.108575870     A.U. after   10 cycles
 E2 =    -0.5259365656D+00 EUMP2 =    -0.15263451243605D+03
 CCSD(T)
 CCSD(T)= -0.15266169097D+03

 The electronic state is 1-A'.
 Alpha  occ. eigenvalues --  -20.56494 -20.54890  -1.33787  -1.32198  -0.71202
 Alpha  occ. eigenvalues --   -0.69586  -0.57277  -0.55664  -0.50904  -0.49319
 Alpha virt. eigenvalues --    0.12249   0.15468   0.19339   0.22167   0.53487
 Alpha virt. eigenvalues --    0.55057   0.56414   0.58149   0.67143   0.69192
 Alpha virt. eigenvalues --    0.78003   0.78636   0.79535   0.80701   0.82778

 Mulliken charges:
               1
     1  O   -0.512999
     2  H    0.261191
     3  H    0.250581
     4  O   -0.512222
     5  H    0.259877
     6  H    0.253572
 Sum of Mulliken charges =  -0.00000

 Dipole moment (field-independent basis, Debye):
    X=             -2.7264    Y=             -2.8347    Z=              0.0000  Tot=              3.9331
 Quadrupole moment (field-independent basis, Debye-Ang):
   XX=            -10.0998   YY=             -7.8855   ZZ=            -14.7152
   XY=             -3.2484   XZ=              0.0000   YZ=             -0.0000

 Normal termination of Gaussian 16 at Fri Aug 26 21:22:50 2022.
