 Gaussian 16, Revision A.03,
 Gaussian 16:  ES64L-G16RevA.03 25-Dec-2016

 ------------------
 #p CCSD(T)/cc-pVTZ
 ------------------

 -----------
 H2O_H2O_762
 -----------
 Symbolic Z-matrix:
 Charge =  0 Multiplicity = 1

                         Standard orientation:
 ---------------------------------------------------------------------
 Center     Atomic      Atomic             Coordinates (Angstroms)
 Number     Number       Type             X           Y           Z
 ---------------------------------------------------------------------
      1          8           0        0.056080    1.411030    0.000000
      2          1           0        0.053706    0.428431    0.000000
      3          1           0       -0.872641    1.731941    0.000000
      4          8           0        0.056080   -1.232234    0.000000
      5          1           0        0.749204   -1.928715    0.000000
      6          1           0       -0.827543   -1.662020    0.000000
 ---------------------------------------------------------------------

 SCF Done:  E(RHF) =  -152.109638990     A.U. after   10 cycles
 E2 =    -0.5299583992D+00 EUMP2 =    -0.15263959738887D+03
 CCSD(T)
 CCSD(T)= -0.15266626962D+03

 The electronic state is 1-A'.
 Alpha  occ. eigenvalues --  -20.59434 -20.50546  -1.37246  -1.28510  -0.74303
 Alpha  occ. eigenvalues --   -0.69044  -0.59480  -0.54169  -0.51200  -0.45557
 Alpha virt. eigenvalues --    0.11543   0.17638   0.19482   0.32912   0.47913
 Alpha virt. eigenvalues --    0.54206   0.59601   0.60880   0.70244   0.72285
 Alpha virt. eigenvalues --    0.72416   0.77792   0.81721   0.82995   0.84482

 Mulliken charges:
               1
     1  O   -0.585036
     2  H    0.308816
     3  H    0.232081
     4  O   -0.469348
     5  H    0.260307
     6  H    0.253181
 Sum of Mulliken charges =  -0.00000

 Dipole moment (field-independent basis, Debye):
    X=             -1.8241    Y=             -3.9682    Z=             -0.0000  Tot=              4.3674
 Quadrupole moment (field-independent basis, Debye-Ang):
   XX=             -9.2873   YY=             -9.0526   ZZ=            -14.7062
   XY=             -3.1598   XZ=             -0.0000   YZ=             -0.0000

 Normal termination of Gaussian 16 at Fri Aug 26 20:21:08 2022.
