 Gaussian 16, Revision A.03,
 Gaussian 16:  ES64L-G16RevA.03 25-Dec-2016

 ------------------
 #p CCSD(T)/cc-pVTZ
 ------------------

 ------------
 H2O_H2O_4586
 ------------
 Symbolic Z-matrix:
 Charge =  0 Multiplicity = 1

                         Standard orientation:
 ---------------------------------------------------------------------
 Center     Atomic      Atomic             Coordinates (Angstroms)
 Number     Number       Type             X           Y           Z
 ---------------------------------------------------------------------
      1          8           0        0.059618    2.936010    0.000000
      2          1           0        0.058625    1.953409    0.000000
      3          1           0       -0.869553    3.255616   -0.000000
      4          8           0        0.059618   -2.758534    0.000000
      5          1           0        0.706745   -3.497947    0.000000
      6          1           0       -0.849701   -3.130886   -0.000000
 ---------------------------------------------------------------------

 SCF Done:  E(RHF) =  -152.108279300     A.U. after   10 cycles
 E2 =    -0.5258177587D+00 EUMP2 =    -0.15263409705898D+03
 CCSD(T)
 CCSD(T)= -0.15266129743D+03

 The electronic state is 1-A'.
 Alpha  occ. eigenvalues --  -20.56174 -20.54989  -1.33476  -1.32296  -0.70881
 Alpha  occ. eigenvalues --   -0.69696  -0.56963  -0.55763  -0.50593  -0.49417
 Alpha virt. eigenvalues --    0.13372   0.14871   0.19671   0.21007   0.53635
 Alpha virt. eigenvalues --    0.54842   0.56661   0.57779   0.66889   0.68687
 Alpha virt. eigenvalues --    0.78293   0.79442   0.79620   0.80325   0.82573

 Mulliken charges:
               1
     1  O   -0.513095
     2  H    0.260090
     3  H    0.252907
     4  O   -0.513928
     5  H    0.258339
     6  H    0.255688
 Sum of Mulliken charges =  -0.00000

 Dipole moment (field-independent basis, Debye):
    X=             -2.0449    Y=             -3.1133    Z=             -0.0000  Tot=              3.7248
 Quadrupole moment (field-independent basis, Debye-Ang):
   XX=             -9.3616   YY=             -6.3351   ZZ=            -14.7143
   XY=             -4.9364   XZ=             -0.0000   YZ=             -0.0000

 Normal termination of Gaussian 16 at Sun Aug 28 04:09:25 2022.
