 Gaussian 16, Revision A.03,
 Gaussian 16:  ES64L-G16RevA.03 25-Dec-2016

 ------------------
 #p CCSD(T)/cc-pVTZ
 ------------------

 -----------
 H2O_H2O_502
 -----------
 Symbolic Z-matrix:
 Charge =  0 Multiplicity = 1

                         Standard orientation:
 ---------------------------------------------------------------------
 Center     Atomic      Atomic             Coordinates (Angstroms)
 Number     Number       Type             X           Y           Z
 ---------------------------------------------------------------------
      1          8           0        0.088243   -1.292561    0.000000
      2          1           0        0.087915   -0.309959    0.000000
      3          1           0       -0.841144   -1.611537    0.000000
      4          8           0        0.088243    1.148268    0.000000
      5          1           0        0.216173    2.122507    0.000000
      6          1           0       -0.874828    0.953330    0.000000
 ---------------------------------------------------------------------

 SCF Done:  E(RHF) =  -152.091149405     A.U. after   11 cycles
 E2 =    -0.5332334102D+00 EUMP2 =    -0.15262438281499D+03
 CCSD(T)
 CCSD(T)= -0.15265086326D+03

 The electronic state is 1-A'.
 Alpha  occ. eigenvalues --  -20.60039 -20.50868  -1.38885  -1.29010  -0.77797
 Alpha  occ. eigenvalues --   -0.68459  -0.59319  -0.55150  -0.51595  -0.45969
 Alpha virt. eigenvalues --    0.11186   0.16410   0.20904   0.32442   0.48640
 Alpha virt. eigenvalues --    0.52110   0.59070   0.64830   0.71203   0.71502
 Alpha virt. eigenvalues --    0.74038   0.77755   0.78695   0.82989   0.83973

 Mulliken charges:
               1
     1  O   -0.570238
     2  H    0.287416
     3  H    0.214449
     4  O   -0.392133
     5  H    0.230192
     6  H    0.230314
 Sum of Mulliken charges =  -0.00000

 Dipole moment (field-independent basis, Debye):
    X=             -2.8297    Y=              3.4914    Z=              0.0000  Tot=              4.4941
 Quadrupole moment (field-independent basis, Debye-Ang):
   XX=            -10.5819   YY=             -9.4023   ZZ=            -14.6359
   XY=              2.2870   XZ=              0.0000   YZ=              0.0000

 Normal termination of Gaussian 16 at Fri Aug 26 18:41:28 2022.
