 Gaussian 16, Revision A.03,
 Gaussian 16:  ES64L-G16RevA.03 25-Dec-2016

 ------------------
 #p CCSD(T)/cc-pVTZ
 ------------------

 ------------
 H2O_H2O_4625
 ------------
 Symbolic Z-matrix:
 Charge =  0 Multiplicity = 1

                         Standard orientation:
 ---------------------------------------------------------------------
 Center     Atomic      Atomic             Coordinates (Angstroms)
 Number     Number       Type             X           Y           Z
 ---------------------------------------------------------------------
      1          8           0        0.092949   -2.931679    0.000000
      2          1           0        0.092949   -1.949078    0.000000
      3          1           0       -0.836544   -3.250346    0.000000
      4          8           0        0.092949    2.798892    0.000000
      5          1           0        0.092949    3.781494    0.000000
      6          1           0       -0.836544    2.480226    0.000000
 ---------------------------------------------------------------------

 SCF Done:  E(RHF) =  -152.107603314     A.U. after   10 cycles
 E2 =    -0.5258745155D+00 EUMP2 =    -0.15263347782968D+03
 CCSD(T)
 CCSD(T)= -0.15266069357D+03

 The electronic state is 1-A'.
 Alpha  occ. eigenvalues --  -20.56191 -20.55364  -1.33492  -1.32665  -0.70906
 Alpha  occ. eigenvalues --   -0.70062  -0.56950  -0.56116  -0.50602  -0.49777
 Alpha virt. eigenvalues --    0.12835   0.14673   0.18904   0.21595   0.53300
 Alpha virt. eigenvalues --    0.54759   0.56561   0.57624   0.66979   0.68369
 Alpha virt. eigenvalues --    0.78288   0.79098   0.79675   0.81151   0.81630

 Mulliken charges:
               1
     1  O   -0.509406
     2  H    0.257075
     3  H    0.252292
     4  O   -0.510347
     5  H    0.257963
     6  H    0.252424
 Sum of Mulliken charges =  -0.00000

 Dipole moment (field-independent basis, Debye):
    X=             -3.1887    Y=              2.3274    Z=              0.0000  Tot=              3.9477
 Quadrupole moment (field-independent basis, Debye-Ang):
   XX=            -10.8448   YY=             -9.2900   ZZ=            -14.7117
   XY=              2.1582   XZ=              0.0000   YZ=              0.0000

 Normal termination of Gaussian 16 at Sun Aug 28 04:28:31 2022.
