 Gaussian 16, Revision A.03,
 Gaussian 16:  ES64L-G16RevA.03 25-Dec-2016

 ------------------
 #p CCSD(T)/cc-pVTZ
 ------------------

 -----------
 H2O_H2O_691
 -----------
 Symbolic Z-matrix:
 Charge =  0 Multiplicity = 1

                         Standard orientation:
 ---------------------------------------------------------------------
 Center     Atomic      Atomic             Coordinates (Angstroms)
 Number     Number       Type             X           Y           Z
 ---------------------------------------------------------------------
      1          8           0        0.041274    1.381665    0.000000
      2          1           0        0.037870    0.399069    0.000000
      3          1           0       -0.887109    1.703550    0.000000
      4          8           0        0.041274   -1.201863    0.000000
      5          1           0        0.890526   -1.696108    0.000000
      6          1           0       -0.701678   -1.844924    0.000000
 ---------------------------------------------------------------------

 SCF Done:  E(RHF) =  -152.108230031     A.U. after   10 cycles
 E2 =    -0.5302796110D+00 EUMP2 =    -0.15263850964205D+03
 CCSD(T)
 CCSD(T)= -0.15266510460D+03

 The electronic state is 1-A'.
 Alpha  occ. eigenvalues --  -20.59629 -20.49976  -1.37585  -1.28083  -0.74517
 Alpha  occ. eigenvalues --   -0.69500  -0.59344  -0.54456  -0.50590  -0.45113
 Alpha virt. eigenvalues --    0.11546   0.17990   0.19335   0.33303   0.47681
 Alpha virt. eigenvalues --    0.54112   0.59023   0.63459   0.69289   0.72385
 Alpha virt. eigenvalues --    0.72513   0.78167   0.81634   0.82960   0.84328

 Mulliken charges:
               1
     1  O   -0.597774
     2  H    0.310829
     3  H    0.234571
     4  O   -0.464434
     5  H    0.263808
     6  H    0.253000
 Sum of Mulliken charges =  -0.00000

 Dipole moment (field-independent basis, Debye):
    X=             -1.3397    Y=             -4.0737    Z=             -0.0000  Tot=              4.2883
 Quadrupole moment (field-independent basis, Debye-Ang):
   XX=             -9.1314   YY=             -9.1619   ZZ=            -14.7009
   XY=             -3.2266   XZ=             -0.0000   YZ=             -0.0000

 Normal termination of Gaussian 16 at Fri Aug 26 19:52:34 2022.
