 Gaussian 16, Revision A.03,
 Gaussian 16:  ES64L-G16RevA.03 25-Dec-2016

 ------------------
 #p CCSD(T)/cc-pVTZ
 ------------------

 -----------
 H2O_H2O_712
 -----------
 Symbolic Z-matrix:
 Charge =  0 Multiplicity = 1

                         Standard orientation:
 ---------------------------------------------------------------------
 Center     Atomic      Atomic             Coordinates (Angstroms)
 Number     Number       Type             X           Y           Z
 ---------------------------------------------------------------------
      1          8           0        0.056083    1.391084   -0.000000
      2          1           0        0.053673    0.408485   -0.000000
      3          1           0       -0.872626    1.712029   -0.000000
      4          8           0        0.056083   -1.212292    0.000000
      5          1           0        0.749181   -1.908799    0.000000
      6          1           0       -0.827556   -1.642046    0.000000
 ---------------------------------------------------------------------

 SCF Done:  E(RHF) =  -152.108399218     A.U. after   10 cycles
 E2 =    -0.5302748824D+00 EUMP2 =    -0.15263867410001D+03
 CCSD(T)
 CCSD(T)= -0.15266529857D+03

 The electronic state is 1-A'.
 Alpha  occ. eigenvalues --  -20.59574 -20.50267  -1.37481  -1.28308  -0.74488
 Alpha  occ. eigenvalues --   -0.69354  -0.59350  -0.54363  -0.50908  -0.45338
 Alpha virt. eigenvalues --    0.11488   0.17596   0.19563   0.33060   0.47853
 Alpha virt. eigenvalues --    0.54093   0.60096   0.61042   0.70395   0.72378
 Alpha virt. eigenvalues --    0.72454   0.77929   0.81576   0.83006   0.84414

 Mulliken charges:
               1
     1  O   -0.589683
     2  H    0.310464
     3  H    0.230656
     4  O   -0.463426
     5  H    0.259561
     6  H    0.252426
 Sum of Mulliken charges =  -0.00000

 Dipole moment (field-independent basis, Debye):
    X=             -1.8182    Y=             -4.0191    Z=              0.0000  Tot=              4.4113
 Quadrupole moment (field-independent basis, Debye-Ang):
   XX=             -9.2854   YY=             -9.1187   ZZ=            -14.7009
   XY=             -3.1287   XZ=              0.0000   YZ=             -0.0000

 Normal termination of Gaussian 16 at Fri Aug 26 20:01:50 2022.
