 Gaussian 16, Revision A.03,
 Gaussian 16:  ES64L-G16RevA.03 25-Dec-2016

 ------------------
 #p CCSD(T)/cc-pVTZ
 ------------------

 ------------
 H2O_H2O_3464
 ------------
 Symbolic Z-matrix:
 Charge =  0 Multiplicity = 1

                         Standard orientation:
 ---------------------------------------------------------------------
 Center     Atomic      Atomic             Coordinates (Angstroms)
 Number     Number       Type             X           Y           Z
 ---------------------------------------------------------------------
      1          8           0        0.048574    2.488863    0.000000
      2          1           0        0.047004    1.506262    0.000000
      3          1           0       -0.880409    2.809014    0.000000
      4          8           0        0.048574   -2.308465   -0.000000
      5          1           0        0.827167   -2.907880   -0.000000
      6          1           0       -0.770949   -2.850580   -0.000000
 ---------------------------------------------------------------------

 SCF Done:  E(RHF) =  -152.109233822     A.U. after   10 cycles
 E2 =    -0.5258646373D+00 EUMP2 =    -0.15263509845913D+03
 CCSD(T)
 CCSD(T)= -0.15266226413D+03

 The electronic state is 1-A'.
 Alpha  occ. eigenvalues --  -20.56456 -20.54636  -1.33745  -1.31951  -0.71147
 Alpha  occ. eigenvalues --   -0.69347  -0.57266  -0.55433  -0.50870  -0.49081
 Alpha virt. eigenvalues --    0.12746   0.15562   0.19555   0.21849   0.53401
 Alpha virt. eigenvalues --    0.55108   0.56472   0.58064   0.67091   0.69340
 Alpha virt. eigenvalues --    0.78035   0.79098   0.79431   0.79756   0.83060

 Mulliken charges:
               1
     1  O   -0.516741
     2  H    0.263026
     3  H    0.252311
     4  O   -0.515415
     5  H    0.259755
     6  H    0.257064
 Sum of Mulliken charges =   0.00000

 Dipole moment (field-independent basis, Debye):
    X=             -1.6599    Y=             -3.2133    Z=             -0.0000  Tot=              3.6167
 Quadrupole moment (field-independent basis, Debye-Ang):
   XX=             -9.1824   YY=             -6.8855   ZZ=            -14.7178
   XY=             -4.9325   XZ=             -0.0000   YZ=              0.0000

 Normal termination of Gaussian 16 at Fri Aug 26 21:50:33 2022.
