 Gaussian 16, Revision A.03,
 Gaussian 16:  ES64L-G16RevA.03 25-Dec-2016

 ------------------
 #p CCSD(T)/cc-pVTZ
 ------------------

 -----------
 H2O_H2O_625
 -----------
 Symbolic Z-matrix:
 Charge =  0 Multiplicity = 1

                         Standard orientation:
 ---------------------------------------------------------------------
 Center     Atomic      Atomic             Coordinates (Angstroms)
 Number     Number       Type             X           Y           Z
 ---------------------------------------------------------------------
      1          8           0        0.092949   -1.336170    0.000000
      2          1           0        0.092949   -0.353569    0.000000
      3          1           0       -0.836544   -1.654836    0.000000
      4          8           0        0.092949    1.203383    0.000000
      5          1           0        0.092950    2.185985    0.000000
      6          1           0       -0.836544    0.884717    0.000000
 ---------------------------------------------------------------------

 SCF Done:  E(RHF) =  -152.094675870     A.U. after   11 cycles
 E2 =    -0.5324418863D+00 EUMP2 =    -0.15262711775608D+03
 CCSD(T)
 CCSD(T)= -0.15265379730D+03

 The electronic state is 1-A'.
 Alpha  occ. eigenvalues --  -20.59599 -20.52168  -1.38107  -1.30038  -0.77269
 Alpha  occ. eigenvalues --   -0.67733  -0.59813  -0.54517  -0.52913  -0.47028
 Alpha virt. eigenvalues --    0.11329   0.16362   0.21084   0.31983   0.48285
 Alpha virt. eigenvalues --    0.51931   0.58840   0.64346   0.69616   0.71026
 Alpha virt. eigenvalues --    0.73748   0.78134   0.78646   0.82546   0.83035

 Mulliken charges:
               1
     1  O   -0.551513
     2  H    0.285240
     3  H    0.218399
     4  O   -0.411476
     5  H    0.232874
     6  H    0.226477
 Sum of Mulliken charges =  -0.00000

 Dipole moment (field-independent basis, Debye):
    X=             -3.0107    Y=              3.1035    Z=              0.0000  Tot=              4.3239
 Quadrupole moment (field-independent basis, Debye-Ang):
   XX=            -10.8883   YY=             -9.4140   ZZ=            -14.6471
   XY=              2.0313   XZ=              0.0000   YZ=              0.0000

 Normal termination of Gaussian 16 at Fri Aug 26 19:28:43 2022.
