 Gaussian 16, Revision A.03,
 Gaussian 16:  ES64L-G16RevA.03 25-Dec-2016

 ------------------
 #p CCSD(T)/cc-pVTZ
 ------------------

 -----------
 H2O_H2O_813
 -----------
 Symbolic Z-matrix:
 Charge =  0 Multiplicity = 1

                         Standard orientation:
 ---------------------------------------------------------------------
 Center     Atomic      Atomic             Coordinates (Angstroms)
 Number     Number       Type             X           Y           Z
 ---------------------------------------------------------------------
      1          8           0        0.052394    1.431509    0.000000
      2          1           0        0.049822    0.448911    0.000000
      3          1           0       -0.876261    1.752607    0.000000
      4          8           0        0.052394   -1.251730   -0.000000
      5          1           0        0.789455   -1.901535   -0.000000
      6          1           0       -0.801326   -1.738215   -0.000000
 ---------------------------------------------------------------------

 SCF Done:  E(RHF) =  -152.110879497     A.U. after   10 cycles
 E2 =    -0.5296158353D+00 EUMP2 =    -0.15264049533189D+03
 CCSD(T)
 CCSD(T)= -0.15266720832D+03

 The electronic state is 1-A'.
 Alpha  occ. eigenvalues --  -20.59301 -20.50742  -1.37027  -1.28645  -0.74089
 Alpha  occ. eigenvalues --   -0.68797  -0.59584  -0.53990  -0.51405  -0.45709
 Alpha virt. eigenvalues --    0.11616   0.17797   0.19324   0.32784   0.47964
 Alpha virt. eigenvalues --    0.54329   0.58810   0.61134   0.69965   0.71927
 Alpha virt. eigenvalues --    0.72473   0.77766   0.81984   0.82898   0.84585

 Mulliken charges:
               1
     1  O   -0.582230
     2  H    0.307361
     3  H    0.234395
     4  O   -0.477164
     5  H    0.262801
     6  H    0.254836
 Sum of Mulliken charges =   0.00000

 Dipole moment (field-independent basis, Debye):
    X=             -1.7103    Y=             -3.9428    Z=             -0.0000  Tot=              4.2978
 Quadrupole moment (field-independent basis, Debye-Ang):
   XX=             -9.2239   YY=             -8.9914   ZZ=            -14.7123
   XY=             -3.2279   XZ=             -0.0000   YZ=              0.0000

 Normal termination of Gaussian 16 at Fri Aug 26 20:40:19 2022.
