 Gaussian 16, Revision A.03,
 Gaussian 16:  ES64L-G16RevA.03 25-Dec-2016

 ------------------
 #p CCSD(T)/cc-pVTZ
 ------------------

 ------------
 H2O_H2O_1944
 ------------
 Symbolic Z-matrix:
 Charge =  0 Multiplicity = 1

                         Standard orientation:
 ---------------------------------------------------------------------
 Center     Atomic      Atomic             Coordinates (Angstroms)
 Number     Number       Type             X           Y           Z
 ---------------------------------------------------------------------
      1          8           0        0.030244    1.877959    0.000000
      2          1           0        0.027269    0.895362    0.000000
      3          1           0       -0.898279    2.199438    0.000000
      4          8           0        0.030244   -1.702390    0.000000
      5          1           0        0.959739   -2.021053    0.000000
      6          1           0       -0.572639   -2.478301    0.000000
 ---------------------------------------------------------------------

 SCF Done:  E(RHF) =  -152.112572658     A.U. after   10 cycles
 E2 =    -0.5264467022D+00 EUMP2 =    -0.15263901936070D+03
 CCSD(T)
 CCSD(T)= -0.15266607685D+03

 The electronic state is 1-A'.
 Alpha  occ. eigenvalues --  -20.57395 -20.53662  -1.34654  -1.31030  -0.72043
 Alpha  occ. eigenvalues --   -0.68477  -0.58368  -0.54483  -0.51793  -0.48186
 Alpha virt. eigenvalues --    0.12236   0.17100   0.19132   0.26562   0.51959
 Alpha virt. eigenvalues --    0.54675   0.56268   0.59031   0.69059   0.72594
 Alpha virt. eigenvalues --    0.76031   0.77767   0.80766   0.83404   0.84364

 Mulliken charges:
               1
     1  O   -0.532211
     2  H    0.269324
     3  H    0.251215
     4  O   -0.508952
     5  H    0.262186
     6  H    0.258439
 Sum of Mulliken charges =  -0.00000

 Dipole moment (field-independent basis, Debye):
    X=             -1.0246    Y=             -3.3158    Z=              0.0000  Tot=              3.4705
 Quadrupole moment (field-independent basis, Debye-Ang):
   XX=             -9.2308   YY=             -8.0021   ZZ=            -14.7299
   XY=             -4.4554   XZ=              0.0000   YZ=              0.0000

 Normal termination of Gaussian 16 at Sun Aug 28 02:58:16 2022.
