 Gaussian 16, Revision A.03,
 Gaussian 16:  ES64L-G16RevA.03 25-Dec-2016

 ------------------
 #p CCSD(T)/cc-pVTZ
 ------------------

 ------------
 H2O_H2O_3591
 ------------
 Symbolic Z-matrix:
 Charge =  0 Multiplicity = 1

                         Standard orientation:
 ---------------------------------------------------------------------
 Center     Atomic      Atomic             Coordinates (Angstroms)
 Number     Number       Type             X           Y           Z
 ---------------------------------------------------------------------
      1          8           0        0.041127    2.538473    0.000000
      2          1           0        0.039331    1.555873    0.000000
      3          1           0       -0.887782    2.858838    0.000000
      4          8           0        0.041127   -2.358536   -0.000000
      5          1           0        0.891186   -2.851392   -0.000000
      6          1           0       -0.700772   -3.002812   -0.000000
 ---------------------------------------------------------------------

 SCF Done:  E(RHF) =  -152.109152711     A.U. after   10 cycles
 E2 =    -0.5258440798D+00 EUMP2 =    -0.15263499679076D+03
 CCSD(T)
 CCSD(T)= -0.15266216695D+03

 The electronic state is 1-A'.
 Alpha  occ. eigenvalues --  -20.56409 -20.54682  -1.33701  -1.31996  -0.71102
 Alpha  occ. eigenvalues --   -0.69394  -0.57220  -0.55478  -0.50825  -0.49126
 Alpha virt. eigenvalues --    0.12827   0.15478   0.19567   0.21715   0.53432
 Alpha virt. eigenvalues --    0.55072   0.56517   0.57965   0.66912   0.69304
 Alpha virt. eigenvalues --    0.78077   0.79091   0.79578   0.79713   0.83020

 Mulliken charges:
               1
     1  O   -0.516692
     2  H    0.262655
     3  H    0.252932
     4  O   -0.515876
     5  H    0.259413
     6  H    0.257568
 Sum of Mulliken charges =  -0.00000

 Dipole moment (field-independent basis, Debye):
    X=             -1.4064    Y=             -3.1969    Z=             -0.0000  Tot=              3.4926
 Quadrupole moment (field-independent basis, Debye-Ang):
   XX=             -9.1491   YY=             -6.8227   ZZ=            -14.7175
   XY=             -5.3573   XZ=             -0.0000   YZ=             -0.0000

 Normal termination of Gaussian 16 at Fri Aug 26 22:33:54 2022.
