 Gaussian 16, Revision A.03,
 Gaussian 16:  ES64L-G16RevA.03 25-Dec-2016

 ------------------
 #p CCSD(T)/cc-pVTZ
 ------------------

 ------------
 H2O_H2O_2268
 ------------
 Symbolic Z-matrix:
 Charge =  0 Multiplicity = 1

                         Standard orientation:
 ---------------------------------------------------------------------
 Center     Atomic      Atomic             Coordinates (Angstroms)
 Number     Number       Type             X           Y           Z
 ---------------------------------------------------------------------
      1          8           0        0.033826    2.008639    0.000000
      2          1           0        0.031211    1.026041    0.000000
      3          1           0       -0.894815    2.329778   -0.000000
      4          8           0        0.033826   -1.831143    0.000000
      5          1           0        0.940628   -2.209583    0.000000
      6          1           0       -0.618243   -2.566202   -0.000000
 ---------------------------------------------------------------------

 SCF Done:  E(RHF) =  -152.111623862     A.U. after   10 cycles
 E2 =    -0.5261964271D+00 EUMP2 =    -0.15263782028862D+03
 CCSD(T)
 CCSD(T)= -0.15266490729D+03

 The electronic state is 1-A'.
 Alpha  occ. eigenvalues --  -20.57109 -20.53960  -1.34367  -1.31303  -0.71759
 Alpha  occ. eigenvalues --   -0.68715  -0.58006  -0.54785  -0.51506  -0.48454
 Alpha virt. eigenvalues --    0.12300   0.16720   0.19233   0.25092   0.52562
 Alpha virt. eigenvalues --    0.55271   0.56439   0.58807   0.69037   0.71731
 Alpha virt. eigenvalues --    0.76952   0.78354   0.80420   0.82815   0.83602

 Mulliken charges:
               1
     1  O   -0.527071
     2  H    0.267439
     3  H    0.251471
     4  O   -0.510421
     5  H    0.260988
     6  H    0.257593
 Sum of Mulliken charges =  -0.00000

 Dipole moment (field-independent basis, Debye):
    X=             -1.1485    Y=             -3.2895    Z=             -0.0000  Tot=              3.4842
 Quadrupole moment (field-independent basis, Debye-Ang):
   XX=             -9.1867   YY=             -7.7435   ZZ=            -14.7258
   XY=             -4.6254   XZ=              0.0000   YZ=             -0.0000

 Normal termination of Gaussian 16 at Sun Aug 28 05:53:12 2022.
