 Gaussian 16, Revision A.03,
 Gaussian 16:  ES64L-G16RevA.03 25-Dec-2016

 ------------------
 #p CCSD(T)/cc-pVTZ
 ------------------

 ------------
 H2O_H2O_1477
 ------------
 Symbolic Z-matrix:
 Charge =  0 Multiplicity = 1

                         Standard orientation:
 ---------------------------------------------------------------------
 Center     Atomic      Atomic             Coordinates (Angstroms)
 Number     Number       Type             X           Y           Z
 ---------------------------------------------------------------------
      1          8           0        0.088237   -1.681473    0.000000
      2          1           0        0.087988   -0.698872    0.000000
      3          1           0       -0.841175   -2.000375    0.000000
      4          8           0        0.088237    1.537166    0.000000
      5          1           0        0.216246    2.511395    0.000000
      6          1           0       -0.874849    1.342305    0.000000
 ---------------------------------------------------------------------

 SCF Done:  E(RHF) =  -152.109959823     A.U. after   10 cycles
 E2 =    -0.5275971224D+00 EUMP2 =    -0.15263755694530D+03
 CCSD(T)
 CCSD(T)= -0.15266462362D+03

 The electronic state is 1-A'.
 Alpha  occ. eigenvalues --  -20.57908 -20.54083  -1.35265  -1.31458  -0.72935
 Alpha  occ. eigenvalues --   -0.68768  -0.58807  -0.54811  -0.52329  -0.48563
 Alpha virt. eigenvalues --    0.11571   0.16447   0.20191   0.28087   0.49795
 Alpha virt. eigenvalues --    0.54682   0.57786   0.58060   0.68362   0.73851
 Alpha virt. eigenvalues --    0.74651   0.77612   0.80773   0.82096   0.83502

 Mulliken charges:
               1
     1  O   -0.525082
     2  H    0.274140
     3  H    0.239553
     4  O   -0.483079
     5  H    0.249605
     6  H    0.244863
 Sum of Mulliken charges =   0.00000

 Dipole moment (field-independent basis, Debye):
    X=             -2.9466    Y=              2.8226    Z=              0.0000  Tot=              4.0803
 Quadrupole moment (field-independent basis, Debye-Ang):
   XX=            -10.5994   YY=             -8.8716   ZZ=            -14.7148
   XY=              2.4508   XZ=              0.0000   YZ=              0.0000

 Normal termination of Gaussian 16 at Sat Aug 27 00:49:27 2022.
