 Gaussian 16, Revision A.03,
 Gaussian 16:  ES64L-G16RevA.03 25-Dec-2016

 ------------------
 #p CCSD(T)/cc-pVTZ
 ------------------

 ------------
 H2O_H2O_3702
 ------------
 Symbolic Z-matrix:
 Charge =  0 Multiplicity = 1

                         Standard orientation:
 ---------------------------------------------------------------------
 Center     Atomic      Atomic             Coordinates (Angstroms)
 Number     Number       Type             X           Y           Z
 ---------------------------------------------------------------------
      1          8           0        0.088231   -2.568983    0.000000
      2          1           0        0.088070   -1.586382    0.000000
      3          1           0       -0.841210   -2.887802    0.000000
      4          8           0        0.088231    2.424661    0.000000
      5          1           0        0.216326    3.398877    0.000000
      6          1           0       -0.874874    2.229886    0.000000
 ---------------------------------------------------------------------

 SCF Done:  E(RHF) =  -152.108011114     A.U. after   10 cycles
 E2 =    -0.5259185940D+00 EUMP2 =    -0.15263392970834D+03
 CCSD(T)
 CCSD(T)= -0.15266112803D+03

 The electronic state is 1-A'.
 Alpha  occ. eigenvalues --  -20.56391 -20.55139  -1.33690  -1.32443  -0.71108
 Alpha  occ. eigenvalues --   -0.69834  -0.57161  -0.55900  -0.50802  -0.49558
 Alpha virt. eigenvalues --    0.12173   0.15197   0.19077   0.22198   0.53235
 Alpha virt. eigenvalues --    0.54998   0.56468   0.57955   0.66813   0.68926
 Alpha virt. eigenvalues --    0.78101   0.78830   0.79308   0.81244   0.82511

 Mulliken charges:
               1
     1  O   -0.510701
     2  H    0.259155
     3  H    0.251039
     4  O   -0.511303
     5  H    0.259469
     6  H    0.252341
 Sum of Mulliken charges =  -0.00000

 Dipole moment (field-independent basis, Debye):
    X=             -3.0169    Y=              2.5555    Z=              0.0000  Tot=              3.9537
 Quadrupole moment (field-independent basis, Debye-Ang):
   XX=            -10.5542   YY=             -8.5811   ZZ=            -14.7130
   XY=              2.6253   XZ=              0.0000   YZ=              0.0000

 Normal termination of Gaussian 16 at Fri Aug 26 23:12:00 2022.
