 Gaussian 16, Revision A.03,
 Gaussian 16:  ES64L-G16RevA.03 25-Dec-2016

 ------------------
 #p CCSD(T)/cc-pVTZ
 ------------------

 ------------
 H2O_H2O_2496
 ------------
 Symbolic Z-matrix:
 Charge =  0 Multiplicity = 1

                         Standard orientation:
 ---------------------------------------------------------------------
 Center     Atomic      Atomic             Coordinates (Angstroms)
 Number     Number       Type             X           Y           Z
 ---------------------------------------------------------------------
      1          8           0       -0.023238    2.094518    0.000000
      2          1           0       -0.020292    1.111921    0.000000
      3          1           0        0.905296    2.415969    0.000000
      4          8           0       -0.023238   -1.924146    0.000000
      5          1           0       -0.986380   -2.118731    0.000000
      6          1           0        0.473186   -2.772127    0.000000
 ---------------------------------------------------------------------

 SCF Done:  E(RHF) =  -152.110903712     A.U. after   10 cycles
 E2 =    -0.5260772460D+00 EUMP2 =    -0.15263698095841D+03
 CCSD(T)
 CCSD(T)= -0.15266408986D+03

 The electronic state is 1-A'.
 Alpha  occ. eigenvalues --  -20.56922 -20.54250  -1.34192  -1.31582  -0.71596
 Alpha  occ. eigenvalues --   -0.68989  -0.57786  -0.55071  -0.51326  -0.48728
 Alpha virt. eigenvalues --    0.12284   0.16427   0.19273   0.24306   0.53407
 Alpha virt. eigenvalues --    0.55478   0.56339   0.58606   0.68907   0.70733
 Alpha virt. eigenvalues --    0.77362   0.79043   0.80128   0.81148   0.83657

 Mulliken charges:
               1
     1  O   -0.524690
     2  H    0.265670
     3  H    0.253346
     4  O   -0.512294
     5  H    0.260022
     6  H    0.257946
 Sum of Mulliken charges =  -0.00000

 Dipole moment (field-independent basis, Debye):
    X=              0.7931    Y=             -3.1207    Z=              0.0000  Tot=              3.2199
 Quadrupole moment (field-independent basis, Debye-Ang):
   XX=             -9.3616   YY=             -7.8052   ZZ=            -14.7230
   XY=              5.1979   XZ=              0.0000   YZ=              0.0000

 535214\MP4DQ=-152.6459725\MP4SDQ=-152.649034\CCSD=-152.648437\CCSD(T)=
 Normal termination of Gaussian 16 at Sun Aug 28 07:44:01 2022.
