 Gaussian 16, Revision A.03,
 Gaussian 16:  ES64L-G16RevA.03 25-Dec-2016

 ------------------
 #p CCSD(T)/cc-pVTZ
 ------------------

 -----------
 H2O_H2O_579
 -----------
 Symbolic Z-matrix:
 Charge =  0 Multiplicity = 1

                         Standard orientation:
 ---------------------------------------------------------------------
 Center     Atomic      Atomic             Coordinates (Angstroms)
 Number     Number       Type             X           Y           Z
 ---------------------------------------------------------------------
      1          8           0        0.082828   -1.328004    0.000000
      2          1           0        0.082139   -0.345403    0.000000
      3          1           0       -0.846442   -1.647321    0.000000
      4          8           0        0.082828    1.173538    0.000000
      5          1           0        0.336479    2.122836    0.000000
      6          1           0       -0.897423    1.105613    0.000000
 ---------------------------------------------------------------------

 SCF Done:  E(RHF) =  -152.098481164     A.U. after   11 cycles
 E2 =    -0.5321198118D+00 EUMP2 =    -0.15263060097556D+03
 CCSD(T)
 CCSD(T)= -0.15265715502D+03

 The electronic state is 1-A'.
 Alpha  occ. eigenvalues --  -20.59846 -20.50833  -1.38272  -1.28901  -0.76554
 Alpha  occ. eigenvalues --   -0.68768  -0.59341  -0.54814  -0.51519  -0.45882
 Alpha virt. eigenvalues --    0.11238   0.16603   0.20529   0.32614   0.48448
 Alpha virt. eigenvalues --    0.52860   0.59031   0.63655   0.70793   0.71832
 Alpha virt. eigenvalues --    0.74070   0.78387   0.78788   0.83512   0.83806

 Mulliken charges:
               1
     1  O   -0.574174
     2  H    0.294263
     3  H    0.219426
     4  O   -0.407267
     5  H    0.233140
     6  H    0.234612
 Sum of Mulliken charges =  -0.00000

 Dipole moment (field-independent basis, Debye):
    X=             -2.6641    Y=              3.6207    Z=              0.0000  Tot=              4.4952
 Quadrupole moment (field-independent basis, Debye-Ang):
   XX=            -10.2799   YY=             -9.2680   ZZ=            -14.6584
   XY=              2.5447   XZ=              0.0000   YZ=              0.0000

 Normal termination of Gaussian 16 at Fri Aug 26 19:11:35 2022.
