 Gaussian 16, Revision A.03,
 Gaussian 16:  ES64L-G16RevA.03 25-Dec-2016

 ------------------
 #p CCSD(T)/cc-pVTZ
 ------------------

 ------------
 H2O_H2O_4657
 ------------
 Symbolic Z-matrix:
 Charge =  0 Multiplicity = 1

                         Standard orientation:
 ---------------------------------------------------------------------
 Center     Atomic      Atomic             Coordinates (Angstroms)
 Number     Number       Type             X           Y           Z
 ---------------------------------------------------------------------
      1          8           0        0.073523    2.960215   -0.000000
      2          1           0        0.072950    1.977614   -0.000000
      3          1           0       -0.855784    3.279423    0.000000
      4          8           0        0.073523   -2.793250   -0.000000
      5          1           0        0.507602   -3.674773   -0.000000
      6          1           0       -0.901130   -2.917983    0.000000
 ---------------------------------------------------------------------

 SCF Done:  E(RHF) =  -152.108062681     A.U. after   10 cycles
 E2 =    -0.5258337125D+00 EUMP2 =    -0.15263389639310D+03
 CCSD(T)
 CCSD(T)= -0.15266110171D+03

 The electronic state is 1-A'.
 Alpha  occ. eigenvalues --  -20.56168 -20.55092  -1.33470  -1.32397  -0.70879
 Alpha  occ. eigenvalues --   -0.69795  -0.56948  -0.55859  -0.50586  -0.49515
 Alpha virt. eigenvalues --    0.13306   0.14778   0.19532   0.21032   0.53542
 Alpha virt. eigenvalues --    0.54828   0.56643   0.57732   0.66948   0.68574
 Alpha virt. eigenvalues --    0.78301   0.79348   0.79583   0.80639   0.82288

 Mulliken charges:
               1
     1  O   -0.511905
     2  H    0.259264
     3  H    0.252571
     4  O   -0.512822
     5  H    0.258276
     6  H    0.254616
 Sum of Mulliken charges =  -0.00000

 Dipole moment (field-independent basis, Debye):
    X=             -2.5222    Y=             -2.9270    Z=              0.0000  Tot=              3.8638
 Quadrupole moment (field-independent basis, Debye-Ang):
   XX=             -9.8087   YY=             -6.9415   ZZ=            -14.7135
   XY=             -3.9959   XZ=              0.0000   YZ=              0.0000

 Normal termination of Gaussian 16 at Sun Aug 28 04:41:30 2022.
