 Gaussian 16, Revision A.03,
 Gaussian 16:  ES64L-G16RevA.03 25-Dec-2016

 ------------------
 #p CCSD(T)/cc-pVTZ
 ------------------

 -----------
 H2O_H2O_632
 -----------
 Symbolic Z-matrix:
 Charge =  0 Multiplicity = 1

                         Standard orientation:
 ---------------------------------------------------------------------
 Center     Atomic      Atomic             Coordinates (Angstroms)
 Number     Number       Type             X           Y           Z
 ---------------------------------------------------------------------
      1          8           0        0.073584    1.354681   -0.000000
      2          1           0        0.072288    0.372080   -0.000000
      3          1           0       -0.855488    1.674572    0.000000
      4          8           0        0.073584   -1.187824   -0.000000
      5          1           0        0.507016   -2.069665   -0.000000
      6          1           0       -0.901160   -1.311840    0.000000
 ---------------------------------------------------------------------

 SCF Done:  E(RHF) =  -152.103527247     A.U. after   11 cycles
 E2 =    -0.5312691224D+00 EUMP2 =    -0.15263479636891D+03
 CCSD(T)
 CCSD(T)= -0.15266137205D+03

 The electronic state is 1-A'.
 Alpha  occ. eigenvalues --  -20.59747 -20.50494  -1.37911  -1.28564  -0.75518
 Alpha  occ. eigenvalues --   -0.69210  -0.59269  -0.54634  -0.51146  -0.45562
 Alpha virt. eigenvalues --    0.11315   0.16926   0.20121   0.32859   0.48222
 Alpha virt. eigenvalues --    0.53570   0.59454   0.62421   0.70779   0.72151
 Alpha virt. eigenvalues --    0.73940   0.77951   0.79983   0.83659   0.84000

 Mulliken charges:
               1
     1  O   -0.582265
     2  H    0.301948
     3  H    0.223747
     4  O   -0.426900
     5  H    0.241262
     6  H    0.242208
 Sum of Mulliken charges =   0.00000

 Dipole moment (field-independent basis, Debye):
    X=             -2.3715    Y=             -3.8340    Z=              0.0000  Tot=              4.5081
 Quadrupole moment (field-independent basis, Debye-Ang):
   XX=             -9.8349   YY=             -9.1879   ZZ=            -14.6776
   XY=             -2.8326   XZ=              0.0000   YZ=              0.0000

 Normal termination of Gaussian 16 at Fri Aug 26 19:31:18 2022.
