 Gaussian 16, Revision A.03,
 Gaussian 16:  ES64L-G16RevA.03 25-Dec-2016

 ------------------
 #p CCSD(T)/cc-pVTZ
 ------------------

 ------------
 H2O_H2O_3637
 ------------
 Symbolic Z-matrix:
 Charge =  0 Multiplicity = 1

                         Standard orientation:
 ---------------------------------------------------------------------
 Center     Atomic      Atomic             Coordinates (Angstroms)
 Number     Number       Type             X           Y           Z
 ---------------------------------------------------------------------
      1          8           0        0.055979    2.557863   -0.000000
      2          1           0        0.054708    1.575262   -0.000000
      3          1           0       -0.873101    2.877731    0.000000
      4          8           0        0.055979   -2.378942   -0.000000
      5          1           0        0.749885   -3.074644   -0.000000
      6          1           0       -0.827161   -2.809719    0.000000
 ---------------------------------------------------------------------

 SCF Done:  E(RHF) =  -152.108955181     A.U. after   10 cycles
 E2 =    -0.5258554799D+00 EUMP2 =    -0.15263481066136D+03
 CCSD(T)
 CCSD(T)= -0.15266198549D+03

 The electronic state is 1-A'.
 Alpha  occ. eigenvalues --  -20.56399 -20.54722  -1.33692  -1.32035  -0.71096
 Alpha  occ. eigenvalues --   -0.69430  -0.57203  -0.55512  -0.50814  -0.49162
 Alpha virt. eigenvalues --    0.12818   0.15415   0.19568   0.21630   0.53441
 Alpha virt. eigenvalues --    0.55015   0.56497   0.57963   0.66854   0.69278
 Alpha virt. eigenvalues --    0.78088   0.79060   0.79673   0.79681   0.82975

 Mulliken charges:
               1
     1  O   -0.515523
     2  H    0.262414
     3  H    0.252117
     4  O   -0.515148
     5  H    0.259692
     6  H    0.256447
 Sum of Mulliken charges =  -0.00000

 Dipole moment (field-independent basis, Debye):
    X=             -1.9142    Y=             -3.1763    Z=              0.0000  Tot=              3.7085
 Quadrupole moment (field-independent basis, Debye-Ang):
   XX=             -9.2860   YY=             -6.8423   ZZ=            -14.7168
   XY=             -4.6814   XZ=             -0.0000   YZ=              0.0000

 Normal termination of Gaussian 16 at Fri Aug 26 22:49:06 2022.
