 Gaussian 16, Revision A.03,
 Gaussian 16:  ES64L-G16RevA.03 25-Dec-2016

 ------------------
 #p CCSD(T)/cc-pVTZ
 ------------------

 ------------
 H2O_H2O_3141
 ------------
 Symbolic Z-matrix:
 Charge =  0 Multiplicity = 1

                         Standard orientation:
 ---------------------------------------------------------------------
 Center     Atomic      Atomic             Coordinates (Angstroms)
 Number     Number       Type             X           Y           Z
 ---------------------------------------------------------------------
      1          8           0        0.041140    2.358972    0.000000
      2          1           0        0.039202    1.376373    0.000000
      3          1           0       -0.887722    2.679472    0.000000
      4          8           0        0.041140   -2.179048    0.000000
      5          1           0        0.891129   -2.672026    0.000000
      6          1           0       -0.700852   -2.823217    0.000000
 ---------------------------------------------------------------------

 SCF Done:  E(RHF) =  -152.109729563     A.U. after   10 cycles
 E2 =    -0.5259036647D+00 EUMP2 =    -0.15263563322785D+03
 CCSD(T)
 CCSD(T)= -0.15266278161D+03

 The electronic state is 1-A'.
 Alpha  occ. eigenvalues --  -20.56583 -20.54496  -1.33865  -1.31815  -0.71265
 Alpha  occ. eigenvalues --   -0.69212  -0.57404  -0.55303  -0.50993  -0.48950
 Alpha virt. eigenvalues --    0.12579   0.15837   0.19479   0.22415   0.53259
 Alpha virt. eigenvalues --    0.55370   0.56416   0.58369   0.67846   0.69349
 Alpha virt. eigenvalues --    0.77909   0.79025   0.79426   0.79879   0.83197

 Mulliken charges:
               1
     1  O   -0.518799
     2  H    0.263986
     3  H    0.252382
     4  O   -0.515034
     5  H    0.259904
     6  H    0.257562
 Sum of Mulliken charges =  -0.00000

 Dipole moment (field-independent basis, Debye):
    X=             -1.4040    Y=             -3.2287    Z=              0.0000  Tot=              3.5208
 Quadrupole moment (field-independent basis, Debye-Ang):
   XX=             -9.1491   YY=             -7.1088   ZZ=            -14.7194
   XY=             -5.0353   XZ=              0.0000   YZ=              0.0000

 Normal termination of Gaussian 16 at Fri Aug 26 20:00:04 2022.
