 Gaussian 16, Revision A.03,
 Gaussian 16:  ES64L-G16RevA.03 25-Dec-2016

 ------------------
 #p CCSD(T)/cc-pVTZ
 ------------------

 ----------
 H2O_H2O_20
 ----------
 Symbolic Z-matrix:
 Charge =  0 Multiplicity = 1

                         Standard orientation:
 ---------------------------------------------------------------------
 Center     Atomic      Atomic             Coordinates (Angstroms)
 Number     Number       Type             X           Y           Z
 ---------------------------------------------------------------------
      1          8           0        0.026923    1.108771   -0.000000
      2          1           0        0.021419    0.126185   -0.000000
      3          1           0       -0.900771    1.432638    0.000000
      4          8           0        0.026923   -0.935710    0.000000
      5          1           0        0.974604   -1.195338   -0.000000
      6          1           0       -0.526014   -1.747970    0.000000
 ---------------------------------------------------------------------

 SCF Done:  E(RHF) =  -152.025405942     A.U. after   11 cycles
 E2 =    -0.5364152750D+00 EUMP2 =    -0.15256182121678D+03
 CCSD(T)
 CCSD(T)= -0.15258724450D+03

 The electronic state is 1-A'.
 Alpha  occ. eigenvalues --  -20.62153 -20.43513  -1.44788  -1.24119  -0.82125
 Alpha  occ. eigenvalues --   -0.76062  -0.59070  -0.54613  -0.43497  -0.40561
 Alpha virt. eigenvalues --    0.10360   0.16604   0.21157   0.33200   0.46913
 Alpha virt. eigenvalues --    0.51595   0.61050   0.68511   0.70170   0.70651
 Alpha virt. eigenvalues --    0.76497   0.77828   0.81478   0.84286   0.89113

 Mulliken charges:
               1
     1  O   -0.692225
     2  H    0.270653
     3  H    0.211669
     4  O   -0.286788
     5  H    0.265380
     6  H    0.231311
 Sum of Mulliken charges =  -0.00000

 Dipole moment (field-independent basis, Debye):
    X=             -0.8012    Y=             -5.0447    Z=              0.0000  Tot=              5.1079
 Quadrupole moment (field-independent basis, Debye-Ang):
   XX=             -9.1735   YY=            -10.2784   ZZ=            -14.5309
   XY=             -2.6656   XZ=              0.0000   YZ=              0.0000

 Normal termination of Gaussian 16 at Fri Aug 26 15:19:19 2022.
