 Gaussian 16, Revision A.03,
 Gaussian 16:  ES64L-G16RevA.03 25-Dec-2016

 ------------------
 #p CCSD(T)/cc-pVTZ
 ------------------

 ------------
 H2O_H2O_3671
 ------------
 Symbolic Z-matrix:
 Charge =  0 Multiplicity = 1

                         Standard orientation:
 ---------------------------------------------------------------------
 Center     Atomic      Atomic             Coordinates (Angstroms)
 Number     Number       Type             X           Y           Z
 ---------------------------------------------------------------------
      1          8           0       -0.023190    2.563210    0.000000
      2          1           0       -0.020801    1.580611    0.000000
      3          1           0        0.905526    2.884135    0.000000
      4          8           0       -0.023190   -2.392812    0.000000
      5          1           0       -0.986443   -2.586850    0.000000
      6          1           0        0.472752   -3.241075    0.000000
 ---------------------------------------------------------------------

 SCF Done:  E(RHF) =  -152.109058820     A.U. after   10 cycles
 E2 =    -0.5258290509D+00 EUMP2 =    -0.15263488787075D+03
 CCSD(T)
 CCSD(T)= -0.15266206268D+03

 The electronic state is 1-A'.
 Alpha  occ. eigenvalues --  -20.56375 -20.54796  -1.33670  -1.32109  -0.71075
 Alpha  occ. eigenvalues --   -0.69514  -0.57186  -0.55592  -0.50794  -0.49239
 Alpha virt. eigenvalues --    0.12751   0.15407   0.19411   0.21829   0.53316
 Alpha virt. eigenvalues --    0.55200   0.56564   0.57915   0.66814   0.69218
 Alpha virt. eigenvalues --    0.78105   0.78838   0.79604   0.80315   0.82919

 Mulliken charges:
               1
     1  O   -0.516731
     2  H    0.261617
     3  H    0.254257
     4  O   -0.516162
     5  H    0.258440
     6  H    0.258579
 Sum of Mulliken charges =  -0.00000

 Dipole moment (field-independent basis, Debye):
    X=              0.7947    Y=             -3.0211    Z=              0.0000  Tot=              3.1239
 Quadrupole moment (field-independent basis, Debye-Ang):
   XX=             -9.3613   YY=             -7.2098   ZZ=            -14.7170
   XY=              6.3268   XZ=              0.0000   YZ=              0.0000

 Normal termination of Gaussian 16 at Fri Aug 26 23:00:51 2022.
