 Gaussian 16, Revision A.03,
 Gaussian 16:  ES64L-G16RevA.03 25-Dec-2016

 ------------------
 #p CCSD(T)/cc-pVTZ
 ------------------

 ------------
 H2O_H2O_4989
 ------------
 Symbolic Z-matrix:
 Charge =  0 Multiplicity = 1

                         Standard orientation:
 ---------------------------------------------------------------------
 Center     Atomic      Atomic             Coordinates (Angstroms)
 Number     Number       Type             X           Y           Z
 ---------------------------------------------------------------------
      1          8           0        0.048545    3.097166    0.000000
      2          1           0        0.047292    2.114565    0.000000
      3          1           0       -0.880541    3.417017    0.000000
      4          8           0        0.048545   -2.916737   -0.000000
      5          1           0        0.827332   -3.515899   -0.000000
      6          1           0       -0.770802   -3.459117   -0.000000
 ---------------------------------------------------------------------

 SCF Done:  E(RHF) =  -152.108214313     A.U. after   10 cycles
 E2 =    -0.5258089498D+00 EUMP2 =    -0.15263402326281D+03
 CCSD(T)
 CCSD(T)= -0.15266122660D+03

 The electronic state is 1-A'.
 Alpha  occ. eigenvalues --  -20.56110 -20.55039  -1.33412  -1.32344  -0.70816
 Alpha  occ. eigenvalues --   -0.69747  -0.56896  -0.55812  -0.50529  -0.49465
 Alpha virt. eigenvalues --    0.13550   0.14754   0.19749   0.20876   0.53736
 Alpha virt. eigenvalues --    0.54795   0.56723   0.57758   0.67088   0.68489
 Alpha virt. eigenvalues --    0.78354   0.79395   0.79765   0.80534   0.82171

 Mulliken charges:
               1
     1  O   -0.513009
     2  H    0.259466
     3  H    0.253512
     4  O   -0.513637
     5  H    0.257627
     6  H    0.256041
 Sum of Mulliken charges =   0.00000

 Dipole moment (field-independent basis, Debye):
    X=             -1.6667    Y=             -3.1560    Z=             -0.0000  Tot=              3.5691
 Quadrupole moment (field-independent basis, Debye-Ang):
   XX=             -9.1822   YY=             -5.8951   ZZ=            -14.7142
   XY=             -5.8673   XZ=             -0.0000   YZ=              0.0000

 Normal termination of Gaussian 16 at Sun Aug 28 07:29:32 2022.
