 Gaussian 16, Revision A.03,
 Gaussian 16:  ES64L-G16RevA.03 25-Dec-2016

 ------------------
 #p CCSD(T)/cc-pVTZ
 ------------------

 ------------
 H2O_H2O_2535
 ------------
 Symbolic Z-matrix:
 Charge =  0 Multiplicity = 1

                         Standard orientation:
 ---------------------------------------------------------------------
 Center     Atomic      Atomic             Coordinates (Angstroms)
 Number     Number       Type             X           Y           Z
 ---------------------------------------------------------------------
      1          8           0        0.063248    2.117236   -0.000000
      2          1           0        0.062005    1.134635   -0.000000
      3          1           0       -0.865842    2.437077   -0.000000
      4          8           0        0.063248   -1.941745    0.000000
      5          1           0        0.660432   -2.722051    0.000000
      6          1           0       -0.868556   -2.253590    0.000000
 ---------------------------------------------------------------------

 SCF Done:  E(RHF) =  -152.110434774     A.U. after   10 cycles
 E2 =    -0.5261227778D+00 EUMP2 =    -0.15263655755170D+03
 CCSD(T)
 CCSD(T)= -0.15266367395D+03

 The electronic state is 1-A'.
 Alpha  occ. eigenvalues --  -20.56925 -20.54255  -1.34191  -1.31582  -0.71595
 Alpha  occ. eigenvalues --   -0.68968  -0.57761  -0.55059  -0.51321  -0.48719
 Alpha virt. eigenvalues --    0.12225   0.16297   0.19377   0.23921   0.52944
 Alpha virt. eigenvalues --    0.55696   0.56076   0.58884   0.68940   0.70444
 Alpha virt. eigenvalues --    0.77417   0.78850   0.80132   0.80758   0.83471

 Mulliken charges:
               1
     1  O   -0.520670
     2  H    0.266065
     3  H    0.249072
     4  O   -0.509960
     5  H    0.260170
     6  H    0.255323
 Sum of Mulliken charges =  -0.00000

 Dipole moment (field-independent basis, Debye):
    X=             -2.1489    Y=             -3.2114    Z=             -0.0000  Tot=              3.8640
 Quadrupole moment (field-independent basis, Debye-Ang):
   XX=             -9.4613   YY=             -7.6343   ZZ=            -14.7214
   XY=             -3.8564   XZ=              0.0000   YZ=             -0.0000

 Normal termination of Gaussian 16 at Fri Aug 26 15:25:55 2022.
