 Gaussian 16, Revision A.03,
 Gaussian 16:  ES64L-G16RevA.03 25-Dec-2016

 ------------------
 #p CCSD(T)/cc-pVTZ
 ------------------

 -----------
 H2O_H2O_398
 -----------
 Symbolic Z-matrix:
 Charge =  0 Multiplicity = 1

                         Standard orientation:
 ---------------------------------------------------------------------
 Center     Atomic      Atomic             Coordinates (Angstroms)
 Number     Number       Type             X           Y           Z
 ---------------------------------------------------------------------
      1          8           0        0.016848   -1.253047    0.000000
      2          1           0        0.011320   -0.270461    0.000000
      3          1           0       -0.910837   -1.576938    0.000000
      4          8           0        0.016848    1.089748    0.000000
      5          1           0        0.996969    1.159528    0.000000
      6          1           0       -0.367024    1.994263    0.000000
 ---------------------------------------------------------------------

 SCF Done:  E(RHF) =  -152.089204249     A.U. after   11 cycles
 E2 =    -0.5329690646D+00 EUMP2 =    -0.15262217331351D+03
 CCSD(T)
 CCSD(T)= -0.15264837130D+03

 The electronic state is 1-A'.
 Alpha  occ. eigenvalues --  -20.60448 -20.48387  -1.39646  -1.27094  -0.77751
 Alpha  occ. eigenvalues --   -0.70135  -0.58730  -0.55857  -0.48787  -0.44021
 Alpha virt. eigenvalues --    0.11340   0.17809   0.19870   0.34114   0.47655
 Alpha virt. eigenvalues --    0.52878   0.58974   0.68445   0.71705   0.72025
 Alpha virt. eigenvalues --    0.75292   0.76859   0.78249   0.83880   0.84722

 Mulliken charges:
               1
     1  O   -0.630620
     2  H    0.293219
     3  H    0.237579
     4  O   -0.391472
     5  H    0.259454
     6  H    0.231839
 Sum of Mulliken charges =  -0.00000

 Dipole moment (field-independent basis, Debye):
    X=             -0.5422    Y=              4.1021    Z=              0.0000  Tot=              4.1378
 Quadrupole moment (field-independent basis, Debye-Ang):
   XX=             -9.4717   YY=             -9.5382   ZZ=            -14.6390
   XY=              3.2250   XZ=              0.0000   YZ=              0.0000

 Normal termination of Gaussian 16 at Fri Aug 26 17:57:10 2022.
