 Gaussian 16, Revision A.03,
 Gaussian 16:  ES64L-G16RevA.03 25-Dec-2016

 ------------------
 #p CCSD(T)/cc-pVTZ
 ------------------

 ------------
 H2O_H2O_1962
 ------------
 Symbolic Z-matrix:
 Charge =  0 Multiplicity = 1

                         Standard orientation:
 ---------------------------------------------------------------------
 Center     Atomic      Atomic             Coordinates (Angstroms)
 Number     Number       Type             X           Y           Z
 ---------------------------------------------------------------------
      1          8           0        0.056022    1.889717    0.000000
      2          1           0        0.054280    0.907118    0.000000
      3          1           0       -0.872904    2.210032    0.000000
      4          8           0        0.056022   -1.710850   -0.000000
      5          1           0        0.749594   -2.406885   -0.000000
      6          1           0       -0.827324   -2.141203   -0.000000
 ---------------------------------------------------------------------

 SCF Done:  E(RHF) =  -152.112229535     A.U. after   10 cycles
 E2 =    -0.5264882907D+00 EUMP2 =    -0.15263871782592D+03
 CCSD(T)
 CCSD(T)= -0.15266578039D+03

 The electronic state is 1-A'.
 Alpha  occ. eigenvalues --  -20.57402 -20.53674  -1.34654  -1.31036  -0.72040
 Alpha  occ. eigenvalues --   -0.68465  -0.58344  -0.54484  -0.51791  -0.48184
 Alpha virt. eigenvalues --    0.12147   0.16954   0.19203   0.26370   0.51341
 Alpha virt. eigenvalues --    0.55187   0.56304   0.58928   0.69028   0.72380
 Alpha virt. eigenvalues --    0.76115   0.77564   0.80754   0.83385   0.84204

 Mulliken charges:
               1
     1  O   -0.528692
     2  H    0.269783
     3  H    0.247381
     4  O   -0.507023
     5  H    0.262155
     6  H    0.256396
 Sum of Mulliken charges =  -0.00000

 Dipole moment (field-independent basis, Debye):
    X=             -1.8923    Y=             -3.3740    Z=             -0.0000  Tot=              3.8684
 Quadrupole moment (field-independent basis, Debye-Ang):
   XX=             -9.2941   YY=             -7.9244   ZZ=            -14.7287
   XY=             -3.8215   XZ=             -0.0000   YZ=              0.0000

 Normal termination of Gaussian 16 at Sun Aug 28 03:11:40 2022.
