 Gaussian 16, Revision A.03,
 Gaussian 16:  ES64L-G16RevA.03 25-Dec-2016

 ------------------
 #p CCSD(T)/cc-pVTZ
 ------------------

 -----------
 H2O_H2O_253
 -----------
 Symbolic Z-matrix:
 Charge =  0 Multiplicity = 1

                         Standard orientation:
 ---------------------------------------------------------------------
 Center     Atomic      Atomic             Coordinates (Angstroms)
 Number     Number       Type             X           Y           Z
 ---------------------------------------------------------------------
      1          8           0        0.085622   -1.195697    0.000000
      2          1           0        0.085066   -0.213096    0.000000
      3          1           0       -0.843690   -1.514890    0.000000
      4          8           0        0.085622    1.046149    0.000000
      5          1           0        0.276773    2.009979    0.000000
      6          1           0       -0.888105    0.914390    0.000000
 ---------------------------------------------------------------------

 SCF Done:  E(RHF) =  -152.067608866     A.U. after   11 cycles
 E2 =    -0.5359544476D+00 EUMP2 =    -0.15260356331406D+03
 CCSD(T)
 CCSD(T)= -0.15262956329D+03

 The electronic state is 1-A'.
 Alpha  occ. eigenvalues --  -20.60986 -20.48533  -1.41326  -1.27378  -0.80383
 Alpha  occ. eigenvalues --   -0.70329  -0.57648  -0.56746  -0.49212  -0.44225
 Alpha virt. eigenvalues --    0.10853   0.16174   0.21253   0.32314   0.49225
 Alpha virt. eigenvalues --    0.51607   0.59627   0.65641   0.71569   0.72803
 Alpha virt. eigenvalues --    0.76357   0.76770   0.79716   0.83781   0.85601

 Mulliken charges:
               1
     1  O   -0.596695
     2  H    0.277377
     3  H    0.201389
     4  O   -0.344166
     5  H    0.227894
     6  H    0.234202
 Sum of Mulliken charges =  -0.00000

 Dipole moment (field-independent basis, Debye):
    X=             -2.6848    Y=              3.9726    Z=              0.0000  Tot=              4.7947
 Quadrupole moment (field-independent basis, Debye-Ang):
   XX=            -10.3928   YY=             -9.6877   ZZ=            -14.5807
   XY=              2.3241   XZ=              0.0000   YZ=              0.0000

 Normal termination of Gaussian 16 at Fri Aug 26 16:55:58 2022.
