 Gaussian 16, Revision A.03,
 Gaussian 16:  ES64L-G16RevA.03 25-Dec-2016

 ------------------
 #p CCSD(T)/cc-pVTZ
 ------------------

 ------------
 H2O_H2O_1924
 ------------
 Symbolic Z-matrix:
 Charge =  0 Multiplicity = 1

                         Standard orientation:
 ---------------------------------------------------------------------
 Center     Atomic      Atomic             Coordinates (Angstroms)
 Number     Number       Type             X           Y           Z
 ---------------------------------------------------------------------
      1          8           0       -0.013585    1.859121    0.000000
      2          1           0       -0.009798    0.876527    0.000000
      3          1           0        0.914673    2.181367    0.000000
      4          8           0       -0.013585   -1.699881    0.000000
      5          1           0       -0.996180   -1.703668    0.000000
      6          1           0        0.308662   -2.628139    0.000000
 ---------------------------------------------------------------------

 SCF Done:  E(RHF) =  -152.111987142     A.U. after   10 cycles
 E2 =    -0.5264749713D+00 EUMP2 =    -0.15263846211374D+03
 CCSD(T)
 CCSD(T)= -0.15266553414D+03

 The electronic state is 1-A'.
 Alpha  occ. eigenvalues --  -20.57363 -20.53974  -1.34647  -1.31334  -0.72094
 Alpha  occ. eigenvalues --   -0.68761  -0.58326  -0.54783  -0.51772  -0.48487
 Alpha virt. eigenvalues --    0.12173   0.16959   0.19267   0.26682   0.52563
 Alpha virt. eigenvalues --    0.54508   0.55900   0.59316   0.68728   0.73438
 Alpha virt. eigenvalues --    0.75885   0.78450   0.80546   0.83296   0.84017

 Mulliken charges:
               1
     1  O   -0.532046
     2  H    0.267368
     3  H    0.254554
     4  O   -0.508533
     5  H    0.260896
     6  H    0.257760
 Sum of Mulliken charges =  -0.00000

 Dipole moment (field-independent basis, Debye):
    X=              0.4694    Y=             -3.0046    Z=              0.0000  Tot=              3.0410
 Quadrupole moment (field-independent basis, Debye-Ang):
   XX=             -9.6503   YY=             -8.3770   ZZ=            -14.7268
   XY=              5.0103   XZ=              0.0000   YZ=              0.0000

 Normal termination of Gaussian 16 at Sun Aug 28 02:49:55 2022.
