 Gaussian 16, Revision A.03,
 Gaussian 16:  ES64L-G16RevA.03 25-Dec-2016

 ------------------
 #p CCSD(T)/cc-pVTZ
 ------------------

 -----------
 H2O_H2O_248
 -----------
 Symbolic Z-matrix:
 Charge =  0 Multiplicity = 1

                         Standard orientation:
 ---------------------------------------------------------------------
 Center     Atomic      Atomic             Coordinates (Angstroms)
 Number     Number       Type             X           Y           Z
 ---------------------------------------------------------------------
      1          8           0        0.016873   -1.193211    0.000000
      2          1           0        0.011047   -0.210627    0.000000
      3          1           0       -0.910714   -1.517383    0.000000
      4          8           0        0.016873    1.029922    0.000000
      5          1           0        0.996972    1.100000    0.000000
      6          1           0       -0.367273    1.934322    0.000000
 ---------------------------------------------------------------------

 SCF Done:  E(RHF) =  -152.071544380     A.U. after   11 cycles
 E2 =    -0.5345323811D+00 EUMP2 =    -0.15260607676066D+03
 CCSD(T)
 CCSD(T)= -0.15263197395D+03

 The electronic state is 1-A'.
 Alpha  occ. eigenvalues --  -20.61035 -20.46883  -1.41276  -1.26126  -0.79556
 Alpha  occ. eigenvalues --   -0.71537  -0.57596  -0.56906  -0.47161  -0.42944
 Alpha virt. eigenvalues --    0.11064   0.17481   0.20294   0.33984   0.47607
 Alpha virt. eigenvalues --    0.52308   0.59628   0.68810   0.71715   0.72263
 Alpha virt. eigenvalues --    0.76332   0.77407   0.78549   0.84525   0.85121

 Mulliken charges:
               1
     1  O   -0.650867
     2  H    0.286354
     3  H    0.231845
     4  O   -0.359565
     5  H    0.261737
     6  H    0.230495
 Sum of Mulliken charges =   0.00000

 Dipole moment (field-independent basis, Debye):
    X=             -0.5279    Y=              4.3531    Z=              0.0000  Tot=              4.3849
 Quadrupole moment (field-independent basis, Debye-Ang):
   XX=             -9.4432   YY=             -9.7760   ZZ=            -14.6008
   XY=              3.0502   XZ=              0.0000   YZ=              0.0000

 Normal termination of Gaussian 16 at Fri Aug 26 16:53:53 2022.
