 Gaussian 16, Revision A.03,
 Gaussian 16:  ES64L-G16RevA.03 25-Dec-2016

 ------------------
 #p CCSD(T)/cc-pVTZ
 ------------------

 ------------
 H2O_H2O_3285
 ------------
 Symbolic Z-matrix:
 Charge =  0 Multiplicity = 1

                         Standard orientation:
 ---------------------------------------------------------------------
 Center     Atomic      Atomic             Coordinates (Angstroms)
 Number     Number       Type             X           Y           Z
 ---------------------------------------------------------------------
      1          8           0        0.063233    2.416404    0.000000
      2          1           0        0.062150    1.433803    0.000000
      3          1           0       -0.865908    2.736094    0.000000
      4          8           0        0.063233   -2.240892   -0.000000
      5          1           0        0.660544   -3.021101   -0.000000
      6          1           0       -0.868519   -2.552889   -0.000000
 ---------------------------------------------------------------------

 SCF Done:  E(RHF) =  -152.109198203     A.U. after   10 cycles
 E2 =    -0.5259117879D+00 EUMP2 =    -0.15263510999060D+03
 CCSD(T)
 CCSD(T)= -0.15266227224D+03

 The electronic state is 1-A'.
 Alpha  occ. eigenvalues --  -20.56529 -20.54639  -1.33815  -1.31954  -0.71221
 Alpha  occ. eigenvalues --   -0.69344  -0.57332  -0.55431  -0.50939  -0.49082
 Alpha virt. eigenvalues --    0.12533   0.15647   0.19485   0.22108   0.53392
 Alpha virt. eigenvalues --    0.55178   0.56389   0.58256   0.67399   0.69338
 Alpha virt. eigenvalues --    0.77968   0.78842   0.79757   0.79795   0.83044

 Mulliken charges:
               1
     1  O   -0.516000
     2  H    0.263049
     3  H    0.251140
     4  O   -0.513995
     5  H    0.260063
     6  H    0.255743
 Sum of Mulliken charges =  -0.00000

 Dipole moment (field-independent basis, Debye):
    X=             -2.1586    Y=             -3.1376    Z=             -0.0000  Tot=              3.8085
 Quadrupole moment (field-independent basis, Debye-Ang):
   XX=             -9.4568   YY=             -7.1990   ZZ=            -14.7176
   XY=             -4.1660   XZ=             -0.0000   YZ=             -0.0000

 Normal termination of Gaussian 16 at Fri Aug 26 20:49:50 2022.
