 Gaussian 16, Revision A.03,
 Gaussian 16:  ES64L-G16RevA.03 25-Dec-2016

 ------------------
 #p CCSD(T)/cc-pVTZ
 ------------------

 ----------
 H2O_H2O_96
 ----------
 Symbolic Z-matrix:
 Charge =  0 Multiplicity = 1

                         Standard orientation:
 ---------------------------------------------------------------------
 Center     Atomic      Atomic             Coordinates (Angstroms)
 Number     Number       Type             X           Y           Z
 ---------------------------------------------------------------------
      1          8           0       -0.023470    1.137157    0.000000
      2          1           0       -0.017845    0.154571    0.000000
      3          1           0        0.904183    1.461140    0.000000
      4          8           0       -0.023470   -0.966913    0.000000
      5          1           0       -0.986078   -1.164123    0.000000
      6          1           0        0.475264   -1.813536    0.000000
 ---------------------------------------------------------------------

 SCF Done:  E(RHF) =  -152.044926271     A.U. after   11 cycles
 E2 =    -0.5358192501D+00 EUMP2 =    -0.15258074552091D+03
 CCSD(T)
 CCSD(T)= -0.15260632037D+03

 The electronic state is 1-A'.
 Alpha  occ. eigenvalues --  -20.61772 -20.44695  -1.43427  -1.24781  -0.81117
 Alpha  occ. eigenvalues --   -0.74489  -0.58278  -0.55652  -0.44804  -0.41376
 Alpha virt. eigenvalues --    0.10608   0.16926   0.20857   0.33506   0.47149
 Alpha virt. eigenvalues --    0.51887   0.60619   0.68825   0.70859   0.71061
 Alpha virt. eigenvalues --    0.76579   0.77644   0.80811   0.84599   0.87262

 Mulliken charges:
               1
     1  O   -0.677263
     2  H    0.280620
     3  H    0.219088
     4  O   -0.318874
     5  H    0.264629
     6  H    0.231801
 Sum of Mulliken charges =  -0.00000

 Dipole moment (field-independent basis, Debye):
    X=              0.7101    Y=             -4.8135    Z=              0.0000  Tot=              4.8656
 Quadrupole moment (field-independent basis, Debye-Ang):
   XX=             -9.2496   YY=            -10.0977   ZZ=            -14.5577
   XY=              2.7793   XZ=              0.0000   YZ=              0.0000

 Normal termination of Gaussian 16 at Fri Aug 26 15:49:50 2022.
