 Gaussian 16, Revision A.03,
 Gaussian 16:  ES64L-G16RevA.03 25-Dec-2016

 ------------------
 #p CCSD(T)/cc-pVTZ
 ------------------

 ------------
 H2O_H2O_3047
 ------------
 Symbolic Z-matrix:
 Charge =  0 Multiplicity = 1

                         Standard orientation:
 ---------------------------------------------------------------------
 Center     Atomic      Atomic             Coordinates (Angstroms)
 Number     Number       Type             X           Y           Z
 ---------------------------------------------------------------------
      1          8           0       -0.019865    2.312124    0.000000
      2          1           0       -0.017082    1.329526    0.000000
      3          1           0        0.908722    2.633422    0.000000
      4          8           0       -0.019865   -2.145022    0.000000
      5          1           0       -0.993693   -2.276036    0.000000
      6          1           0        0.419890   -3.023726    0.000000
 ---------------------------------------------------------------------

 SCF Done:  E(RHF) =  -152.109785268     A.U. after   10 cycles
 E2 =    -0.5259114227D+00 EUMP2 =    -0.15263569669040D+03
 CCSD(T)
 CCSD(T)= -0.15266284374D+03

 The electronic state is 1-A'.
 Alpha  occ. eigenvalues --  -20.56607 -20.54600  -1.33893  -1.31919  -0.71299
 Alpha  occ. eigenvalues --   -0.69325  -0.57433  -0.55410  -0.51021  -0.49056
 Alpha virt. eigenvalues --    0.12368   0.15884   0.19303   0.22888   0.53577
 Alpha virt. eigenvalues --    0.55533   0.56442   0.58272   0.68000   0.69353
 Alpha virt. eigenvalues --    0.77869   0.78807   0.79779   0.80375   0.83142

 Mulliken charges:
               1
     1  O   -0.519835
     2  H    0.263097
     3  H    0.254262
     4  O   -0.515170
     5  H    0.258916
     6  H    0.258731
 Sum of Mulliken charges =  -0.00000

 Dipole moment (field-independent basis, Debye):
    X=              0.6806    Y=             -3.0023    Z=              0.0000  Tot=              3.0785
 Quadrupole moment (field-independent basis, Debye-Ang):
   XX=             -9.4467   YY=             -7.6503   ZZ=            -14.7194
   XY=              5.8916   XZ=              0.0000   YZ=              0.0000

 CCSD(T)=-152.6628437\RMSD=6.854e-09\PG=CS [SG(H4O2)]\\@
 Normal termination of Gaussian 16 at Fri Aug 26 19:28:33 2022.
