 Gaussian 16, Revision A.03,
 Gaussian 16:  ES64L-G16RevA.03 25-Dec-2016

 ------------------
 #p CCSD(T)/cc-pVTZ
 ------------------

 -----------
 H2O_H2O_100
 -----------
 Symbolic Z-matrix:
 Charge =  0 Multiplicity = 1

                         Standard orientation:
 ---------------------------------------------------------------------
 Center     Atomic      Atomic             Coordinates (Angstroms)
 Number     Number       Type             X           Y           Z
 ---------------------------------------------------------------------
      1          8           0        0.092949   -1.126759    0.000000
      2          1           0        0.092949   -0.144158    0.000000
      3          1           0       -0.836544   -1.445426    0.000000
      4          8           0        0.092949    0.993973    0.000000
      5          1           0        0.092949    1.976574    0.000000
      6          1           0       -0.836544    0.675305    0.000000
 ---------------------------------------------------------------------

 SCF Done:  E(RHF) =  -152.028351239     A.U. after   11 cycles
 E2 =    -0.5392782509D+00 EUMP2 =    -0.15256762948969D+03
 CCSD(T)
 CCSD(T)= -0.15259325170D+03

 The electronic state is 1-A'.
 Alpha  occ. eigenvalues --  -20.61395 -20.47882  -1.44082  -1.27127  -0.83946
 Alpha  occ. eigenvalues --   -0.69938  -0.57889  -0.57042  -0.48585  -0.43959
 Alpha virt. eigenvalues --    0.10792   0.15854   0.21936   0.31507   0.48991
 Alpha virt. eigenvalues --    0.50636   0.59730   0.67812   0.70957   0.72614
 Alpha virt. eigenvalues --    0.74804   0.78458   0.79463   0.84989   0.85353

 Mulliken charges:
               1
     1  O   -0.591638
     2  H    0.254982
     3  H    0.185990
     4  O   -0.313781
     5  H    0.226117
     6  H    0.238330
 Sum of Mulliken charges =   0.00000

 Dipole moment (field-independent basis, Debye):
    X=             -2.8986    Y=              3.8648    Z=              0.0000  Tot=              4.8310
 Quadrupole moment (field-independent basis, Debye-Ang):
   XX=            -10.7902   YY=             -9.9858   ZZ=            -14.5093
   XY=              1.8953   XZ=              0.0000   YZ=              0.0000

 Normal termination of Gaussian 16 at Fri Aug 26 15:51:29 2022.
