 Gaussian 16, Revision A.03,
 Gaussian 16:  ES64L-G16RevA.03 25-Dec-2016

 ------------------
 #p CCSD(T)/cc-pVTZ
 ------------------

 ------------
 H2O_H2O_4339
 ------------
 Symbolic Z-matrix:
 Charge =  0 Multiplicity = 1

                         Standard orientation:
 ---------------------------------------------------------------------
 Center     Atomic      Atomic             Coordinates (Angstroms)
 Number     Number       Type             X           Y           Z
 ---------------------------------------------------------------------
      1          8           0        0.048556    2.837890    0.000000
      2          1           0        0.047185    1.855290    0.000000
      3          1           0       -0.880492    3.157853    0.000000
      4          8           0        0.048556   -2.657473   -0.000000
      5          1           0        0.827271   -3.256728   -0.000000
      6          1           0       -0.770856   -3.199754   -0.000000
 ---------------------------------------------------------------------

 SCF Done:  E(RHF) =  -152.108505298     A.U. after   10 cycles
 E2 =    -0.5258111912D+00 EUMP2 =    -0.15263431648964D+03
 CCSD(T)
 CCSD(T)= -0.15266151051D+03

 The electronic state is 1-A'.
 Alpha  occ. eigenvalues --  -20.56216 -20.54904  -1.33517  -1.32212  -0.70921
 Alpha  occ. eigenvalues --   -0.69612  -0.57013  -0.55684  -0.50636  -0.49336
 Alpha virt. eigenvalues --    0.13284   0.15011   0.19684   0.21115   0.53631
 Alpha virt. eigenvalues --    0.54865   0.56640   0.57807   0.66756   0.68872
 Alpha virt. eigenvalues --    0.78252   0.79518   0.79650   0.79929   0.82766

 Mulliken charges:
               1
     1  O   -0.514204
     2  H    0.260855
     3  H    0.253146
     4  O   -0.514927
     5  H    0.258552
     6  H    0.256578
 Sum of Mulliken charges =  -0.00000

 Dipole moment (field-independent basis, Debye):
    X=             -1.6645    Y=             -3.1721    Z=             -0.0000  Tot=              3.5823
 Quadrupole moment (field-independent basis, Debye-Ang):
   XX=             -9.1821   YY=             -6.3218   ZZ=            -14.7151
   XY=             -5.4690   XZ=             -0.0000   YZ=              0.0000

 Normal termination of Gaussian 16 at Sun Aug 28 01:57:54 2022.
