 Gaussian 16, Revision A.03,
 Gaussian 16:  ES64L-G16RevA.03 25-Dec-2016

 ------------------
 #p CCSD(T)/cc-pVTZ
 ------------------

 ------------
 H2O_H2O_3989
 ------------
 Symbolic Z-matrix:
 Charge =  0 Multiplicity = 1

                         Standard orientation:
 ---------------------------------------------------------------------
 Center     Atomic      Atomic             Coordinates (Angstroms)
 Number     Number       Type             X           Y           Z
 ---------------------------------------------------------------------
      1          8           0        0.048562    2.698279    0.000000
      2          1           0        0.047118    1.715679    0.000000
      3          1           0       -0.880461    3.018311    0.000000
      4          8           0        0.048562   -2.517869   -0.000000
      5          1           0        0.827234   -3.117184   -0.000000
      6          1           0       -0.770891   -3.060090   -0.000000
 ---------------------------------------------------------------------

 SCF Done:  E(RHF) =  -152.108737357     A.U. after   10 cycles
 E2 =    -0.5258226343D+00 EUMP2 =    -0.15263455999105D+03
 CCSD(T)
 CCSD(T)= -0.15266174526D+03

 The electronic state is 1-A'.
 Alpha  occ. eigenvalues --  -20.56296 -20.54811  -1.33593  -1.32122  -0.70996
 Alpha  occ. eigenvalues --   -0.69521  -0.57098  -0.55598  -0.50714  -0.49248
 Alpha virt. eigenvalues --    0.13078   0.15203   0.19639   0.21322   0.53556
 Alpha virt. eigenvalues --    0.54912   0.56582   0.57837   0.66679   0.69106
 Alpha virt. eigenvalues --    0.78180   0.79499   0.79600   0.79608   0.82888

 Mulliken charges:
               1
     1  O   -0.515044
     2  H    0.261688
     3  H    0.252878
     4  O   -0.515462
     5  H    0.259085
     6  H    0.256856
 Sum of Mulliken charges =  -0.00000

 Dipole moment (field-independent basis, Debye):
    X=             -1.6629    Y=             -3.1851    Z=             -0.0000  Tot=              3.5931
 Quadrupole moment (field-independent basis, Debye-Ang):
   XX=             -9.1821   YY=             -6.5485   ZZ=            -14.7160
   XY=             -5.2544   XZ=             -0.0000   YZ=              0.0000

 Normal termination of Gaussian 16 at Sat Aug 27 00:51:47 2022.
