 Gaussian 16, Revision A.03,
 Gaussian 16:  ES64L-G16RevA.03 25-Dec-2016

 ------------------
 #p CCSD(T)/cc-pVTZ
 ------------------

 -----------
 H2O_H2O_864
 -----------
 Symbolic Z-matrix:
 Charge =  0 Multiplicity = 1

                         Standard orientation:
 ---------------------------------------------------------------------
 Center     Atomic      Atomic             Coordinates (Angstroms)
 Number     Number       Type             X           Y           Z
 ---------------------------------------------------------------------
      1          8           0        0.048684    1.451725    0.000000
      2          1           0        0.045918    0.469128    0.000000
      3          1           0       -0.879909    1.773007    0.000000
      4          8           0        0.048684   -1.271446    0.000000
      5          1           0        0.826547   -1.871807    0.000000
      6          1           0       -0.771498   -1.812564    0.000000
 ---------------------------------------------------------------------

 SCF Done:  E(RHF) =  -152.111853035     A.U. after   10 cycles
 E2 =    -0.5293074687D+00 EUMP2 =    -0.15264116050402D+03
 CCSD(T)
 CCSD(T)= -0.15266791080D+03

 The electronic state is 1-A'.
 Alpha  occ. eigenvalues --  -20.59171 -20.50944  -1.36824  -1.28790  -0.73912
 Alpha  occ. eigenvalues --   -0.68567  -0.59665  -0.53819  -0.51616  -0.45869
 Alpha virt. eigenvalues --    0.11687   0.17947   0.19169   0.32623   0.48065
 Alpha virt. eigenvalues --    0.54440   0.58075   0.61378   0.69623   0.71726
 Alpha virt. eigenvalues --    0.72534   0.77729   0.82151   0.82842   0.84671

 Mulliken charges:
               1
     1  O   -0.579239
     2  H    0.305215
     3  H    0.236623
     4  O   -0.483120
     5  H    0.264512
     6  H    0.256010
 Sum of Mulliken charges =   0.00000

 Dipole moment (field-independent basis, Debye):
    X=             -1.5946    Y=             -3.9097    Z=             -0.0000  Tot=              4.2224
 Quadrupole moment (field-independent basis, Debye-Ang):
   XX=             -9.1785   YY=             -8.9301   ZZ=            -14.7172
   XY=             -3.2971   XZ=             -0.0000   YZ=             -0.0000

 Normal termination of Gaussian 16 at Fri Aug 26 20:58:57 2022.
