 Gaussian 16, Revision A.03,
 Gaussian 16:  ES64L-G16RevA.03 25-Dec-2016

 ------------------
 #p CCSD(T)/cc-pVTZ
 ------------------

 ------------
 H2O_H2O_2507
 ------------
 Symbolic Z-matrix:
 Charge =  0 Multiplicity = 1

                         Standard orientation:
 ---------------------------------------------------------------------
 Center     Atomic      Atomic             Coordinates (Angstroms)
 Number     Number       Type             X           Y           Z
 ---------------------------------------------------------------------
      1          8           0        0.073543    2.102611   -0.000000
      2          1           0        0.072727    1.120010   -0.000000
      3          1           0       -0.855685    2.422049   -0.000000
      4          8           0        0.073543   -1.935683    0.000000
      5          1           0        0.507405   -2.817312    0.000000
      6          1           0       -0.901140   -2.060174    0.000000
 ---------------------------------------------------------------------

 SCF Done:  E(RHF) =  -152.110026413     A.U. after   10 cycles
 E2 =    -0.5261760192D+00 EUMP2 =    -0.15263620243201D+03
 CCSD(T)
 CCSD(T)= -0.15266332579D+03

 The electronic state is 1-A'.
 Alpha  occ. eigenvalues --  -20.56938 -20.54403  -1.34210  -1.31725  -0.71627
 Alpha  occ. eigenvalues --   -0.69104  -0.57758  -0.55193  -0.51334  -0.48856
 Alpha virt. eigenvalues --    0.12047   0.16194   0.19449   0.23942   0.53286
 Alpha virt. eigenvalues --    0.55601   0.56141   0.58573   0.68816   0.70571
 Alpha virt. eigenvalues --    0.77375   0.79052   0.80016   0.80932   0.83261

 Mulliken charges:
               1
     1  O   -0.518719
     2  H    0.265385
     3  H    0.248177
     4  O   -0.508368
     5  H    0.259727
     6  H    0.253798
 Sum of Mulliken charges =  -0.00000

 Dipole moment (field-independent basis, Debye):
    X=             -2.4973    Y=             -3.0546    Z=              0.0000  Tot=              3.9455
 Quadrupole moment (field-independent basis, Debye-Ang):
   XX=             -9.8223   YY=             -7.9152   ZZ=            -14.7198
   XY=             -3.4126   XZ=              0.0000   YZ=             -0.0000

 CCSD(T)=-152.6633258\RMSD=6.856e-09\PG=CS [SG(H4O2)]\\@
 Normal termination of Gaussian 16 at Fri Aug 26 15:14:52 2022.
