 Gaussian 16, Revision A.03,
 Gaussian 16:  ES64L-G16RevA.03 25-Dec-2016

 ------------------
 #p CCSD(T)/cc-pVTZ
 ------------------

 ------------
 H2O_H2O_4356
 ------------
 Symbolic Z-matrix:
 Charge =  0 Multiplicity = 1

                         Standard orientation:
 ---------------------------------------------------------------------
 Center     Atomic      Atomic             Coordinates (Angstroms)
 Number     Number       Type             X           Y           Z
 ---------------------------------------------------------------------
      1          8           0        0.076749    2.838521    0.000000
      2          1           0        0.076251    1.855920    0.000000
      3          1           0       -0.852582    3.157659   -0.000000
      4          8           0        0.076749   -2.675296    0.000000
      5          1           0        0.452314   -3.583291    0.000000
      6          1           0       -0.903969   -2.736090   -0.000000
 ---------------------------------------------------------------------

 SCF Done:  E(RHF) =  -152.108106771     A.U. after   10 cycles
 E2 =    -0.5258449899D+00 EUMP2 =    -0.15263395176086D+03
 CCSD(T)
 CCSD(T)= -0.15266115444D+03

 The electronic state is 1-A'.
 Alpha  occ. eigenvalues --  -20.56225 -20.55071  -1.33526  -1.32376  -0.70936
 Alpha  occ. eigenvalues --   -0.69773  -0.57004  -0.55838  -0.50641  -0.49494
 Alpha virt. eigenvalues --    0.13071   0.14897   0.19411   0.21242   0.53386
 Alpha virt. eigenvalues --    0.54906   0.56587   0.57781   0.66805   0.68732
 Alpha virt. eigenvalues --    0.78250   0.79367   0.79368   0.80690   0.82517

 Mulliken charges:
               1
     1  O   -0.511913
     2  H    0.259556
     3  H    0.252204
     4  O   -0.512923
     5  H    0.258734
     6  H    0.254341
 Sum of Mulliken charges =   0.00000

 Dipole moment (field-independent basis, Debye):
    X=             -2.6307    Y=             -2.8687    Z=              0.0000  Tot=              3.8923
 Quadrupole moment (field-independent basis, Debye-Ang):
   XX=             -9.9484   YY=             -7.3034   ZZ=            -14.7136
   XY=             -3.6737   XZ=              0.0000   YZ=              0.0000

 Normal termination of Gaussian 16 at Sun Aug 28 02:13:05 2022.
