 Gaussian 16, Revision A.03,
 Gaussian 16:  ES64L-G16RevA.03 25-Dec-2016

 ------------------
 #p CCSD(T)/cc-pVTZ
 ------------------

 ------------
 H2O_H2O_1851
 ------------
 Symbolic Z-matrix:
 Charge =  0 Multiplicity = 1

                         Standard orientation:
 ---------------------------------------------------------------------
 Center     Atomic      Atomic             Coordinates (Angstroms)
 Number     Number       Type             X           Y           Z
 ---------------------------------------------------------------------
      1          8           0        0.090686   -1.828009    0.000000
      2          1           0        0.090577   -0.845407    0.000000
      3          1           0       -0.838771   -2.146779    0.000000
      4          8           0        0.090686    1.689305    0.000000
      5          1           0        0.154843    2.669810    0.000000
      6          1           0       -0.857630    1.432006    0.000000
 ---------------------------------------------------------------------

 SCF Done:  E(RHF) =  -152.109356452     A.U. after   10 cycles
 E2 =    -0.5269105008D+00 EUMP2 =    -0.15263626695244D+03
 CCSD(T)
 CCSD(T)= -0.15266338257D+03

 The electronic state is 1-A'.
 Alpha  occ. eigenvalues --  -20.57455 -20.54611  -1.34760  -1.31934  -0.72323
 Alpha  occ. eigenvalues --   -0.69237  -0.58274  -0.55347  -0.51848  -0.49045
 Alpha virt. eigenvalues --    0.11520   0.16225   0.20181   0.26163   0.51375
 Alpha virt. eigenvalues --    0.55282   0.57279   0.57437   0.68147   0.74178
 Alpha virt. eigenvalues --    0.75480   0.78241   0.80137   0.82703   0.83204

 Mulliken charges:
               1
     1  O   -0.517536
     2  H    0.267690
     3  H    0.243231
     4  O   -0.495911
     5  H    0.256841
     6  H    0.245685
 Sum of Mulliken charges =  -0.00000

 Dipole moment (field-independent basis, Debye):
    X=             -3.0500    Y=              2.6190    Z=              0.0000  Tot=              4.0201
 Quadrupole moment (field-independent basis, Debye-Ang):
   XX=            -10.7405   YY=             -8.9635   ZZ=            -14.7153
   XY=              2.3124   XZ=              0.0000   YZ=              0.0000

 Normal termination of Gaussian 16 at Sun Aug 28 02:12:21 2022.
