 Gaussian 16, Revision A.03,
 Gaussian 16:  ES64L-G16RevA.03 25-Dec-2016

 ------------------
 #p CCSD(T)/cc-pVTZ
 ------------------

 -----------
 H2O_H2O_723
 -----------
 Symbolic Z-matrix:
 Charge =  0 Multiplicity = 1

                         Standard orientation:
 ---------------------------------------------------------------------
 Center     Atomic      Atomic             Coordinates (Angstroms)
 Number     Number       Type             X           Y           Z
 ---------------------------------------------------------------------
      1          8           0        0.016803   -1.382689    0.000000
      2          1           0        0.011825   -0.400100    0.000000
      3          1           0       -0.911064   -1.706060    0.000000
      4          8           0        0.016803    1.219371    0.000000
      5          1           0        0.996962    1.288603    0.000000
      6          1           0       -0.366562    2.124103    0.000000
 ---------------------------------------------------------------------

 SCF Done:  E(RHF) =  -152.107130585     A.U. after   10 cycles
 E2 =    -0.5302455209D+00 EUMP2 =    -0.15263737610626D+03
 CCSD(T)
 CCSD(T)= -0.15266402742D+03

 The electronic state is 1-A'.
 Alpha  occ. eigenvalues --  -20.59405 -20.50727  -1.37418  -1.28716  -0.75205
 Alpha  occ. eigenvalues --   -0.68283  -0.59959  -0.54232  -0.51293  -0.45780
 Alpha virt. eigenvalues --    0.11768   0.18232   0.19166   0.33436   0.48140
 Alpha virt. eigenvalues --    0.53912   0.57279   0.66539   0.68303   0.72192
 Alpha virt. eigenvalues --    0.74246   0.76486   0.80136   0.83571   0.84033

 Mulliken charges:
               1
     1  O   -0.594756
     2  H    0.296407
     3  H    0.245948
     4  O   -0.443255
     5  H    0.259068
     6  H    0.236589
 Sum of Mulliken charges =   0.00000

 Dipole moment (field-independent basis, Debye):
    X=             -0.5603    Y=              3.6910    Z=              0.0000  Tot=              3.7333
 Quadrupole moment (field-independent basis, Debye-Ang):
   XX=             -9.5125   YY=             -9.1238   ZZ=            -14.6923
   XY=              3.5925   XZ=              0.0000   YZ=              0.0000

 Normal termination of Gaussian 16 at Fri Aug 26 20:06:43 2022.
