 Gaussian 16, Revision A.03,
 Gaussian 16:  ES64L-G16RevA.03 25-Dec-2016

 ------------------
 #p CCSD(T)/cc-pVTZ
 ------------------

 ------------
 H2O_H2O_2610
 ------------
 Symbolic Z-matrix:
 Charge =  0 Multiplicity = 1

                         Standard orientation:
 ---------------------------------------------------------------------
 Center     Atomic      Atomic             Coordinates (Angstroms)
 Number     Number       Type             X           Y           Z
 ---------------------------------------------------------------------
      1          8           0        0.063246    2.147152    0.000000
      2          1           0        0.062021    1.164551    0.000000
      3          1           0       -0.865849    2.466977    0.000000
      4          8           0        0.063246   -1.971659   -0.000000
      5          1           0        0.660444   -2.751954   -0.000000
      6          1           0       -0.868552   -2.283522   -0.000000
 ---------------------------------------------------------------------

 SCF Done:  E(RHF) =  -152.110276656     A.U. after   10 cycles
 E2 =    -0.5260909246D+00 EUMP2 =    -0.15263636758071D+03
 CCSD(T)
 CCSD(T)= -0.15266348938D+03

 The electronic state is 1-A'.
 Alpha  occ. eigenvalues --  -20.56875 -20.54303  -1.34144  -1.31628  -0.71548
 Alpha  occ. eigenvalues --   -0.69014  -0.57705  -0.55107  -0.51274  -0.48764
 Alpha virt. eigenvalues --    0.12247   0.16227   0.19390   0.23679   0.53054
 Alpha virt. eigenvalues --    0.55650   0.56113   0.58874   0.68950   0.70101
 Alpha virt. eigenvalues --    0.77510   0.78938   0.80081   0.80405   0.83406

 Mulliken charges:
               1
     1  O   -0.520058
     2  H    0.265724
     3  H    0.249335
     4  O   -0.510524
     5  H    0.260148
     6  H    0.255375
 Sum of Mulliken charges =  -0.00000

 Dipole moment (field-independent basis, Debye):
    X=             -2.1501    Y=             -3.2018    Z=             -0.0000  Tot=              3.8568
 Quadrupole moment (field-independent basis, Debye-Ang):
   XX=             -9.4606   YY=             -7.5897   ZZ=            -14.7208
   XY=             -3.8874   XZ=             -0.0000   YZ=              0.0000

 CCSD(T)=-152.6634894\RMSD=6.793e-09\PG=CS [SG(H4O2)]\\@
 Normal termination of Gaussian 16 at Fri Aug 26 15:59:22 2022.
