 Gaussian 16, Revision A.03,
 Gaussian 16:  ES64L-G16RevA.03 25-Dec-2016

 ------------------
 #p CCSD(T)/cc-pVTZ
 ------------------

 ------------
 H2O_H2O_2885
 ------------
 Symbolic Z-matrix:
 Charge =  0 Multiplicity = 1

                         Standard orientation:
 ---------------------------------------------------------------------
 Center     Atomic      Atomic             Coordinates (Angstroms)
 Number     Number       Type             X           Y           Z
 ---------------------------------------------------------------------
      1          8           0        0.063240    2.256847   -0.000000
      2          1           0        0.062078    1.274247   -0.000000
      3          1           0       -0.865875    2.576613   -0.000000
      4          8           0        0.063240   -2.081346    0.000000
      5          1           0        0.660487   -2.861604    0.000000
      6          1           0       -0.868538   -2.393268    0.000000
 ---------------------------------------------------------------------

 SCF Done:  E(RHF) =  -152.109766857     A.U. after   10 cycles
 E2 =    -0.5259981867D+00 EUMP2 =    -0.15263576504384D+03
 CCSD(T)
 CCSD(T)= -0.15266290523D+03

 The electronic state is 1-A'.
 Alpha  occ. eigenvalues --  -20.56715 -20.54458  -1.33991  -1.31778  -0.71397
 Alpha  occ. eigenvalues --   -0.69165  -0.57530  -0.55258  -0.51118  -0.48910
 Alpha virt. eigenvalues --    0.12342   0.15979   0.19432   0.22913   0.53304
 Alpha virt. eigenvalues --    0.55443   0.56245   0.58693   0.68570   0.69357
 Alpha virt. eigenvalues --    0.77759   0.79047   0.79736   0.79925   0.83219

 Mulliken charges:
               1
     1  O   -0.518085
     2  H    0.264509
     3  H    0.250185
     4  O   -0.512335
     5  H    0.260164
     6  H    0.255562
 Sum of Mulliken charges =   0.00000

 Dipole moment (field-independent basis, Debye):
    X=             -2.1540    Y=             -3.1715    Z=              0.0000  Tot=              3.8338
 Quadrupole moment (field-independent basis, Debye-Ang):
   XX=             -9.4588   YY=             -7.4288   ZZ=            -14.7193
   XY=             -4.0010   XZ=              0.0000   YZ=             -0.0000

 Normal termination of Gaussian 16 at Fri Aug 26 18:01:53 2022.
