 Gaussian 16, Revision A.03,
 Gaussian 16:  ES64L-G16RevA.03 25-Dec-2016

 ------------------
 #p CCSD(T)/cc-pVTZ
 ------------------

 ------------
 H2O_H2O_2266
 ------------
 Symbolic Z-matrix:
 Charge =  0 Multiplicity = 1

                         Standard orientation:
 ---------------------------------------------------------------------
 Center     Atomic      Atomic             Coordinates (Angstroms)
 Number     Number       Type             X           Y           Z
 ---------------------------------------------------------------------
      1          8           0        0.041173    2.009941   -0.000000
      2          1           0        0.038882    1.027342   -0.000000
      3          1           0       -0.887575    2.330773   -0.000000
      4          8           0        0.041173   -1.830046    0.000000
      5          1           0        0.890983   -2.323328    0.000000
      6          1           0       -0.701051   -2.473948    0.000000
 ---------------------------------------------------------------------

 SCF Done:  E(RHF) =  -152.111617489     A.U. after   10 cycles
 E2 =    -0.5262065067D+00 EUMP2 =    -0.15263782399528D+03
 CCSD(T)
 CCSD(T)= -0.15266491062D+03

 The electronic state is 1-A'.
 Alpha  occ. eigenvalues --  -20.57119 -20.53926  -1.34375  -1.31270  -0.71764
 Alpha  occ. eigenvalues --   -0.68678  -0.58014  -0.54750  -0.51514  -0.48419
 Alpha virt. eigenvalues --    0.12300   0.16719   0.19240   0.25077   0.52319
 Alpha virt. eigenvalues --    0.55324   0.56439   0.58930   0.69054   0.71733
 Alpha virt. eigenvalues --    0.76951   0.78208   0.80450   0.82759   0.83594

 Mulliken charges:
               1
     1  O   -0.526549
     2  H    0.267737
     3  H    0.250487
     4  O   -0.509955
     5  H    0.261074
     6  H    0.257206
 Sum of Mulliken charges =  -0.00000

 Dipole moment (field-independent basis, Debye):
    X=             -1.3966    Y=             -3.3353    Z=              0.0000  Tot=              3.6159
 Quadrupole moment (field-independent basis, Debye-Ang):
   XX=             -9.1505   YY=             -7.6865   ZZ=            -14.7258
   XY=             -4.4078   XZ=              0.0000   YZ=             -0.0000

 543266\MP4DQ=-152.64677\MP4SDQ=-152.6498387\CCSD=-152.6492368\CCSD(T)=
 Normal termination of Gaussian 16 at Sun Aug 28 05:52:29 2022.
