 Gaussian 16, Revision A.03,
 Gaussian 16:  ES64L-G16RevA.03 25-Dec-2016

 ------------------
 #p CCSD(T)/cc-pVTZ
 ------------------

 ------------
 H2O_H2O_1901
 ------------
 Symbolic Z-matrix:
 Charge =  0 Multiplicity = 1

                         Standard orientation:
 ---------------------------------------------------------------------
 Center     Atomic      Atomic             Coordinates (Angstroms)
 Number     Number       Type             X           Y           Z
 ---------------------------------------------------------------------
      1          8           0        0.090686   -1.847953    0.000000
      2          1           0        0.090578   -0.865351    0.000000
      3          1           0       -0.838772   -2.166721    0.000000
      4          8           0        0.090686    1.709248    0.000000
      5          1           0        0.154844    2.689754    0.000000
      6          1           0       -0.857630    1.451952    0.000000
 ---------------------------------------------------------------------

 SCF Done:  E(RHF) =  -152.109313402     A.U. after   10 cycles
 E2 =    -0.5268387853D+00 EUMP2 =    -0.15263615218706D+03
 CCSD(T)
 CCSD(T)= -0.15266327129D+03

 The electronic state is 1-A'.
 Alpha  occ. eigenvalues --  -20.57404 -20.54645  -1.34706  -1.31965  -0.72255
 Alpha  occ. eigenvalues --   -0.69275  -0.58218  -0.55383  -0.51797  -0.49077
 Alpha virt. eigenvalues --    0.11519   0.16202   0.20154   0.25955   0.51583
 Alpha virt. eigenvalues --    0.55379   0.57186   0.57425   0.68169   0.74045
 Alpha virt. eigenvalues --    0.75687   0.78373   0.80080   0.82792   0.83023

 Mulliken charges:
               1
     1  O   -0.517023
     2  H    0.267125
     3  H    0.243639
     4  O   -0.497042
     5  H    0.257346
     6  H    0.245955
 Sum of Mulliken charges =   0.00000

 Dipole moment (field-independent basis, Debye):
    X=             -3.0524    Y=              2.6096    Z=              0.0000  Tot=              4.0159
 Quadrupole moment (field-independent basis, Debye-Ang):
   XX=            -10.7390   YY=             -8.9605   ZZ=            -14.7154
   XY=              2.3153   XZ=              0.0000   YZ=              0.0000

 Normal termination of Gaussian 16 at Sun Aug 28 02:38:28 2022.
