 Gaussian 16, Revision A.03,
 Gaussian 16:  ES64L-G16RevA.03 25-Dec-2016

 ------------------
 #p CCSD(T)/cc-pVTZ
 ------------------

 ------------
 H2O_H2O_1565
 ------------
 Symbolic Z-matrix:
 Charge =  0 Multiplicity = 1

                         Standard orientation:
 ---------------------------------------------------------------------
 Center     Atomic      Atomic             Coordinates (Angstroms)
 Number     Number       Type             X           Y           Z
 ---------------------------------------------------------------------
      1          8           0        0.044921    1.730968   -0.000000
      2          1           0        0.042433    0.748370   -0.000000
      3          1           0       -0.883762    2.051987   -0.000000
      4          8           0        0.044921   -1.550631    0.000000
      5          1           0        0.860539   -2.098602    0.000000
      6          1           0       -0.737946   -2.144454    0.000000
 ---------------------------------------------------------------------

 SCF Done:  E(RHF) =  -152.113761371     A.U. after   10 cycles
 E2 =    -0.5270043293D+00 EUMP2 =    -0.15264076570002D+03
 CCSD(T)
 CCSD(T)= -0.15266777322D+03

 The electronic state is 1-A'.
 Alpha  occ. eigenvalues --  -20.57866 -20.53030  -1.35140  -1.30459  -0.72485
 Alpha  occ. eigenvalues --   -0.68062  -0.58952  -0.53825  -0.52274  -0.47612
 Alpha virt. eigenvalues --    0.12096   0.17548   0.18985   0.28650   0.50224
 Alpha virt. eigenvalues --    0.54585   0.56162   0.59536   0.68995   0.72059
 Alpha virt. eigenvalues --    0.74586   0.76853   0.81417   0.83099   0.84789

 Mulliken charges:
               1
     1  O   -0.540228
     2  H    0.276426
     3  H    0.246766
     4  O   -0.506852
     5  H    0.264952
     6  H    0.258936
 Sum of Mulliken charges =  -0.00000

 Dipole moment (field-independent basis, Debye):
    X=             -1.5082    Y=             -3.5143    Z=              0.0000  Tot=              3.8242
 Quadrupole moment (field-independent basis, Debye-Ang):
   XX=             -9.1613   YY=             -8.2126   ZZ=            -14.7349
   XY=             -3.8286   XZ=              0.0000   YZ=              0.0000

 Normal termination of Gaussian 16 at Sat Aug 27 23:20:06 2022.
