 Gaussian 16, Revision A.03,
 Gaussian 16:  ES64L-G16RevA.03 25-Dec-2016

 ------------------
 #p CCSD(T)/cc-pVTZ
 ------------------

 -----------
 H2O_H2O_567
 -----------
 Symbolic Z-matrix:
 Charge =  0 Multiplicity = 1

                         Standard orientation:
 ---------------------------------------------------------------------
 Center     Atomic      Atomic             Coordinates (Angstroms)
 Number     Number       Type             X           Y           Z
 ---------------------------------------------------------------------
      1          8           0        0.037602    1.331281    0.000000
      2          1           0        0.033809    0.348687    0.000000
      3          1           0       -0.890654    1.653534   -0.000000
      4          8           0        0.037602   -1.152448    0.000000
      5          1           0        0.917187   -1.590440    0.000000
      6          1           0       -0.661975   -1.842446   -0.000000
 ---------------------------------------------------------------------

 SCF Done:  E(RHF) =  -152.103413142     A.U. after   11 cycles
 E2 =    -0.5311558538D+00 EUMP2 =    -0.15263456899600D+03
 CCSD(T)
 CCSD(T)= -0.15266101677D+03

 The electronic state is 1-A'.
 Alpha  occ. eigenvalues --  -20.60004 -20.49156  -1.38295  -1.27516  -0.75125
 Alpha  occ. eigenvalues --   -0.70463  -0.58884  -0.55014  -0.49718  -0.44494
 Alpha virt. eigenvalues --    0.11402   0.17866   0.19583   0.33621   0.47406
 Alpha virt. eigenvalues --    0.53808   0.59743   0.65210   0.69246   0.72305
 Alpha virt. eigenvalues --    0.73486   0.78386   0.81030   0.83043   0.84028

 Mulliken charges:
               1
     1  O   -0.611628
     2  H    0.311385
     3  H    0.232113
     4  O   -0.443805
     5  H    0.262540
     6  H    0.249395
 Sum of Mulliken charges =   0.00000

 Dipole moment (field-independent basis, Debye):
    X=             -1.2105    Y=             -4.2030    Z=             -0.0000  Tot=              4.3738
 Quadrupole moment (field-independent basis, Debye-Ang):
   XX=             -9.1309   YY=             -9.3394   ZZ=            -14.6834
   XY=             -3.1462   XZ=              0.0000   YZ=             -0.0000

 Normal termination of Gaussian 16 at Fri Aug 26 19:07:12 2022.
