 Gaussian 16, Revision A.03,
 Gaussian 16:  ES64L-G16RevA.03 25-Dec-2016

 ------------------
 #p CCSD(T)/cc-pVTZ
 ------------------

 ------------
 H2O_H2O_3159
 ------------
 Symbolic Z-matrix:
 Charge =  0 Multiplicity = 1

                         Standard orientation:
 ---------------------------------------------------------------------
 Center     Atomic      Atomic             Coordinates (Angstroms)
 Number     Number       Type             X           Y           Z
 ---------------------------------------------------------------------
      1          8           0        0.066760    2.365236   -0.000000
      2          1           0        0.065784    1.382635   -0.000000
      3          1           0       -0.862416    2.684825   -0.000000
      4          8           0        0.066760   -2.192131    0.000000
      5          1           0        0.611853   -3.009676    0.000000
      6          1           0       -0.883376   -2.442625    0.000000
 ---------------------------------------------------------------------

 SCF Done:  E(RHF) =  -152.109261680     A.U. after   10 cycles
 E2 =    -0.5259420596D+00 EUMP2 =    -0.15263520373918D+03
 CCSD(T)
 CCSD(T)= -0.15266236164D+03

 The electronic state is 1-A'.
 Alpha  occ. eigenvalues --  -20.56582 -20.54622  -1.33867  -1.31937  -0.71275
 Alpha  occ. eigenvalues --   -0.69326  -0.57385  -0.55414  -0.50990  -0.49065
 Alpha virt. eigenvalues --    0.12415   0.15726   0.19456   0.22333   0.53439
 Alpha virt. eigenvalues --    0.55224   0.56346   0.58383   0.67687   0.69330
 Alpha virt. eigenvalues --    0.77913   0.78832   0.79774   0.79906   0.83052

 Mulliken charges:
               1
     1  O   -0.516054
     2  H    0.263222
     3  H    0.250667
     4  O   -0.513239
     5  H    0.260102
     6  H    0.255302
 Sum of Mulliken charges =  -0.00000

 Dipole moment (field-independent basis, Debye):
    X=             -2.2774    Y=             -3.1035    Z=              0.0000  Tot=              3.8494
 Quadrupole moment (field-independent basis, Debye-Ang):
   XX=             -9.5645   YY=             -7.3665   ZZ=            -14.7177
   XY=             -3.9453   XZ=              0.0000   YZ=             -0.0000

 CCSD(T)=-152.6623616\RMSD=6.990e-09\PG=CS [SG(H4O2)]\\@
 Normal termination of Gaussian 16 at Fri Aug 26 20:08:13 2022.
