 Gaussian 16, Revision A.03,
 Gaussian 16:  ES64L-G16RevA.03 25-Dec-2016

 ------------------
 #p CCSD(T)/cc-pVTZ
 ------------------

 -----------
 H2O_H2O_457
 -----------
 Symbolic Z-matrix:
 Charge =  0 Multiplicity = 1

                         Standard orientation:
 ---------------------------------------------------------------------
 Center     Atomic      Atomic             Coordinates (Angstroms)
 Number     Number       Type             X           Y           Z
 ---------------------------------------------------------------------
      1          8           0        0.073590    1.284871    0.000000
      2          1           0        0.072219    0.302271    0.000000
      3          1           0       -0.855457    1.604835    0.000000
      4          8           0        0.073590   -1.118026   -0.000000
      5          1           0        0.506954   -1.999900   -0.000000
      6          1           0       -0.901163   -1.241967   -0.000000
 ---------------------------------------------------------------------

 SCF Done:  E(RHF) =  -152.094241926     A.U. after   11 cycles
 E2 =    -0.5328161070D+00 EUMP2 =    -0.15262705803284D+03
 CCSD(T)
 CCSD(T)= -0.15265339382D+03

 The electronic state is 1-A'.
 Alpha  occ. eigenvalues --  -20.60328 -20.49287  -1.39101  -1.27727  -0.76786
 Alpha  occ. eigenvalues --   -0.70406  -0.58461  -0.55515  -0.49910  -0.44648
 Alpha virt. eigenvalues --    0.11097   0.16746   0.20438   0.33008   0.48466
 Alpha virt. eigenvalues --    0.53033   0.59757   0.63739   0.72060   0.72222
 Alpha virt. eigenvalues --    0.74298   0.78861   0.79011   0.83975   0.84221

 Mulliken charges:
               1
     1  O   -0.597811
     2  H    0.299912
     3  H    0.216641
     4  O   -0.396994
     5  H    0.238054
     6  H    0.240198
 Sum of Mulliken charges =  -0.00000

 Dipole moment (field-independent basis, Debye):
    X=             -2.3384    Y=             -4.0525    Z=             -0.0000  Tot=              4.6788
 Quadrupole moment (field-independent basis, Debye-Ang):
   XX=             -9.8232   YY=             -9.4157   ZZ=            -14.6482
   XY=             -2.7548   XZ=             -0.0000   YZ=              0.0000

 Normal termination of Gaussian 16 at Fri Aug 26 18:23:49 2022.
