 Gaussian 16, Revision A.03,
 Gaussian 16:  ES64L-G16RevA.03 25-Dec-2016

 ------------------
 #p CCSD(T)/cc-pVTZ
 ------------------

 ---------
 H2O_H2O_7
 ---------
 Symbolic Z-matrix:
 Charge =  0 Multiplicity = 1

                         Standard orientation:
 ---------------------------------------------------------------------
 Center     Atomic      Atomic             Coordinates (Angstroms)
 Number     Number       Type             X           Y           Z
 ---------------------------------------------------------------------
      1          8           0        0.073611   -1.105359    0.000000
      2          1           0        0.071999   -0.122759    0.000000
      3          1           0       -0.855358   -1.425550    0.000000
      4          8           0        0.073611    0.938550    0.000000
      5          1           0        0.506759    1.820530    0.000000
      6          1           0       -0.901173    1.062251    0.000000
 ---------------------------------------------------------------------

 SCF Done:  E(RHF) =  -152.021371883     A.U. after   11 cycles
 E2 =    -0.5379387573D+00 EUMP2 =    -0.15255931063989D+03
 CCSD(T)
 CCSD(T)= -0.15258472439D+03

 The electronic state is 1-A'.
 Alpha  occ. eigenvalues --  -20.62213 -20.44491  -1.45048  -1.24779  -0.82932
 Alpha  occ. eigenvalues --   -0.75298  -0.59091  -0.54387  -0.44752  -0.41286
 Alpha virt. eigenvalues --    0.10247   0.15766   0.21720   0.31759   0.49231
 Alpha virt. eigenvalues --    0.51301   0.60274   0.64380   0.70165   0.71638
 Alpha virt. eigenvalues --    0.76934   0.79315   0.81897   0.84715   0.88408

 Mulliken charges:
               1
     1  O   -0.653670
     2  H    0.264604
     3  H    0.187559
     4  O   -0.271418
     5  H    0.230605
     6  H    0.242320
 Sum of Mulliken charges =  -0.00000

 Dipole moment (field-independent basis, Debye):
    X=             -2.2180    Y=              4.8536    Z=              0.0000  Tot=              5.3364
 Quadrupole moment (field-independent basis, Debye-Ang):
   XX=             -9.7611   YY=            -10.1976   ZZ=            -14.5118
   XY=              2.4990   XZ=              0.0000   YZ=              0.0000

 Normal termination of Gaussian 16 at Fri Aug 26 15:14:06 2022.
