 Gaussian 16, Revision A.03,
 Gaussian 16:  ES64L-G16RevA.03 25-Dec-2016

 ------------------
 #p CCSD(T)/cc-pVTZ
 ------------------

 ------------
 H2O_H2O_1702
 ------------
 Symbolic Z-matrix:
 Charge =  0 Multiplicity = 1

                         Standard orientation:
 ---------------------------------------------------------------------
 Center     Atomic      Atomic             Coordinates (Angstroms)
 Number     Number       Type             X           Y           Z
 ---------------------------------------------------------------------
      1          8           0        0.088236   -1.771222    0.000000
      2          1           0        0.088000   -0.788621    0.000000
      3          1           0       -0.841181   -2.090111    0.000000
      4          8           0        0.088236    1.626913    0.000000
      5          1           0        0.216257    2.601139    0.000000
      6          1           0       -0.874853    1.432064    0.000000
 ---------------------------------------------------------------------

 SCF Done:  E(RHF) =  -152.109926746     A.U. after   10 cycles
 E2 =    -0.5271070803D+00 EUMP2 =    -0.15263703382615D+03
 CCSD(T)
 CCSD(T)= -0.15266412611D+03

 The electronic state is 1-A'.
 Alpha  occ. eigenvalues --  -20.57624 -20.54337  -1.34939  -1.31679  -0.72514
 Alpha  occ. eigenvalues --   -0.68996  -0.58485  -0.55075  -0.52024  -0.48792
 Alpha virt. eigenvalues --    0.11587   0.16367   0.20101   0.26910   0.50689
 Alpha virt. eigenvalues --    0.55146   0.57416   0.57658   0.68387   0.74519
 Alpha virt. eigenvalues --    0.74892   0.77881   0.80433   0.82581   0.83453

 Mulliken charges:
               1
     1  O   -0.521064
     2  H    0.270165
     3  H    0.242040
     4  O   -0.492983
     5  H    0.255057
     6  H    0.246785
 Sum of Mulliken charges =  -0.00000

 Dipole moment (field-independent basis, Debye):
    X=             -2.9608    Y=              2.7601    Z=              0.0000  Tot=              4.0478
 Quadrupole moment (field-independent basis, Debye-Ang):
   XX=            -10.5931   YY=             -8.8244   ZZ=            -14.7171
   XY=              2.4735   XZ=              0.0000   YZ=              0.0000

 Normal termination of Gaussian 16 at Sun Aug 28 00:49:11 2022.
