 Gaussian 16, Revision A.03,
 Gaussian 16:  ES64L-G16RevA.03 25-Dec-2016

 ------------------
 #p CCSD(T)/cc-pVTZ
 ------------------

 -----------
 H2O_H2O_922
 -----------
 Symbolic Z-matrix:
 Charge =  0 Multiplicity = 1

                         Standard orientation:
 ---------------------------------------------------------------------
 Center     Atomic      Atomic             Coordinates (Angstroms)
 Number     Number       Type             X           Y           Z
 ---------------------------------------------------------------------
      1          8           0       -0.020010    1.464480    0.000000
      2          1           0       -0.015519    0.481889    0.000000
      3          1           0        0.908017    1.787392    0.000000
      4          8           0       -0.020010   -1.297448    0.000000
      5          1           0       -0.993609   -1.430154    0.000000
      6          1           0        0.421271   -2.175387    0.000000
 ---------------------------------------------------------------------

 SCF Done:  E(RHF) =  -152.111603320     A.U. after   10 cycles
 E2 =    -0.5290252103D+00 EUMP2 =    -0.15264062853046D+03
 CCSD(T)
 CCSD(T)= -0.15266743259D+03

 The electronic state is 1-A'.
 Alpha  occ. eigenvalues --  -20.58929 -20.51558  -1.36585  -1.29314  -0.74129
 Alpha  occ. eigenvalues --   -0.67997  -0.59944  -0.53566  -0.52204  -0.46421
 Alpha virt. eigenvalues --    0.11910   0.18323   0.18874   0.32480   0.48624
 Alpha virt. eigenvalues --    0.54477   0.56437   0.64163   0.68300   0.72468
 Alpha virt. eigenvalues --    0.73730   0.76761   0.81276   0.82920   0.84237

 Mulliken charges:
               1
     1  O   -0.577621
     2  H    0.293495
     3  H    0.247624
     4  O   -0.467155
     5  H    0.261738
     6  H    0.241920
 Sum of Mulliken charges =  -0.00000

 Dipole moment (field-independent basis, Debye):
    X=              0.6693    Y=             -3.5909    Z=              0.0000  Tot=              3.6527
 Quadrupole moment (field-independent basis, Debye-Ang):
   XX=             -9.4316   YY=             -8.9035   ZZ=            -14.7133
   XY=              3.7305   XZ=              0.0000   YZ=              0.0000

 Normal termination of Gaussian 16 at Fri Aug 26 21:21:34 2022.
