 Gaussian 16, Revision A.03,
 Gaussian 16:  ES64L-G16RevA.03 25-Dec-2016

 ------------------
 #p CCSD(T)/cc-pVTZ
 ------------------

 ------------
 H2O_H2O_1485
 ------------
 Symbolic Z-matrix:
 Charge =  0 Multiplicity = 1

                         Standard orientation:
 ---------------------------------------------------------------------
 Center     Atomic      Atomic             Coordinates (Angstroms)
 Number     Number       Type             X           Y           Z
 ---------------------------------------------------------------------
      1          8           0        0.063276    1.698394    0.000000
      2          1           0        0.061711    0.715794    0.000000
      3          1           0       -0.865708    2.018541    0.000000
      4          8           0        0.063276   -1.522945   -0.000000
      5          1           0        0.660204   -2.303447   -0.000000
      6          1           0       -0.868629   -1.834484   -0.000000
 ---------------------------------------------------------------------

 SCF Done:  E(RHF) =  -152.113163360     A.U. after   10 cycles
 E2 =    -0.5272495013D+00 EUMP2 =    -0.15264041286155D+03
 CCSD(T)
 CCSD(T)= -0.15266741748D+03

 The electronic state is 1-A'.
 Alpha  occ. eigenvalues --  -20.57972 -20.53086  -1.35268  -1.30520  -0.72646
 Alpha  occ. eigenvalues --   -0.68133  -0.59025  -0.53858  -0.52387  -0.47660
 Alpha virt. eigenvalues --    0.11936   0.17250   0.19236   0.28887   0.49540
 Alpha virt. eigenvalues --    0.55036   0.56599   0.59053   0.69577   0.72721
 Alpha virt. eigenvalues --    0.74243   0.76693   0.81432   0.82928   0.84538

 Mulliken charges:
               1
     1  O   -0.537853
     2  H    0.277988
     3  H    0.242876
     4  O   -0.501375
     5  H    0.262325
     6  H    0.256040
 Sum of Mulliken charges =  -0.00000

 Dipole moment (field-independent basis, Debye):
    X=             -2.1180    Y=             -3.4428    Z=             -0.0000  Tot=              4.0421
 Quadrupole moment (field-independent basis, Debye-Ang):
   XX=             -9.4729   YY=             -8.3334   ZZ=            -14.7317
   XY=             -3.4150   XZ=             -0.0000   YZ=              0.0000

 Normal termination of Gaussian 16 at Sat Aug 27 00:52:26 2022.
