 Gaussian 16, Revision A.03,
 Gaussian 16:  ES64L-G16RevA.03 25-Dec-2016

 ------------------
 #p CCSD(T)/cc-pVTZ
 ------------------

 ------------
 H2O_H2O_2216
 ------------
 Symbolic Z-matrix:
 Charge =  0 Multiplicity = 1

                         Standard orientation:
 ---------------------------------------------------------------------
 Center     Atomic      Atomic             Coordinates (Angstroms)
 Number     Number       Type             X           Y           Z
 ---------------------------------------------------------------------
      1          8           0        0.041175    1.989996    0.000000
      2          1           0        0.038860    1.007397    0.000000
      3          1           0       -0.887565    2.310851   -0.000000
      4          8           0        0.041175   -1.810103    0.000000
      5          1           0        0.890973   -2.303406    0.000000
      6          1           0       -0.701064   -2.453988   -0.000000
 ---------------------------------------------------------------------

 SCF Done:  E(RHF) =  -152.111762853     A.U. after   10 cycles
 E2 =    -0.5262382455D+00 EUMP2 =    -0.15263800109809D+03
 CCSD(T)
 CCSD(T)= -0.15266508335D+03

 The electronic state is 1-A'.
 Alpha  occ. eigenvalues --  -20.57161 -20.53880  -1.34415  -1.31227  -0.71803
 Alpha  occ. eigenvalues --   -0.68638  -0.58065  -0.54704  -0.51554  -0.48377
 Alpha virt. eigenvalues --    0.12289   0.16777   0.19224   0.25290   0.52218
 Alpha virt. eigenvalues --    0.55259   0.56447   0.58926   0.69060   0.71904
 Alpha virt. eigenvalues --    0.76837   0.78090   0.80500   0.83225   0.83567

 Mulliken charges:
               1
     1  O   -0.527202
     2  H    0.268011
     3  H    0.250337
     4  O   -0.509642
     5  H    0.261226
     6  H    0.257270
 Sum of Mulliken charges =  -0.00000

 Dipole moment (field-independent basis, Debye):
    X=             -1.3960    Y=             -3.3440    Z=             -0.0000  Tot=              3.6237
 Quadrupole moment (field-independent basis, Debye-Ang):
   XX=             -9.1507   YY=             -7.7215   ZZ=            -14.7264
   XY=             -4.3718   XZ=             -0.0000   YZ=             -0.0000

 Normal termination of Gaussian 16 at Sun Aug 28 05:29:25 2022.
