 Gaussian 16, Revision A.03,
 Gaussian 16:  ES64L-G16RevA.03 25-Dec-2016

 ------------------
 #p CCSD(T)/cc-pVTZ
 ------------------

 -----------
 H2O_H2O_713
 -----------
 Symbolic Z-matrix:
 Charge =  0 Multiplicity = 1

                         Standard orientation:
 ---------------------------------------------------------------------
 Center     Atomic      Atomic             Coordinates (Angstroms)
 Number     Number       Type             X           Y           Z
 ---------------------------------------------------------------------
      1          8           0        0.052402    1.391617   -0.000000
      2          1           0        0.049751    0.409019   -0.000000
      3          1           0       -0.876228    1.712789   -0.000000
      4          8           0        0.052402   -1.211846    0.000000
      5          1           0        0.789410   -1.861711    0.000000
      6          1           0       -0.801357   -1.698263    0.000000
 ---------------------------------------------------------------------

 SCF Done:  E(RHF) =  -152.108639628     A.U. after   10 cycles
 E2 =    -0.5302201275D+00 EUMP2 =    -0.15263885975548D+03
 CCSD(T)
 CCSD(T)= -0.15266548189D+03

 The electronic state is 1-A'.
 Alpha  occ. eigenvalues --  -20.59575 -20.50198  -1.37477  -1.28250  -0.74433
 Alpha  occ. eigenvalues --   -0.69389  -0.59351  -0.54365  -0.50836  -0.45282
 Alpha virt. eigenvalues --    0.11509   0.17715   0.19487   0.33110   0.47801
 Alpha virt. eigenvalues --    0.54113   0.59763   0.61528   0.70197   0.72295
 Alpha virt. eigenvalues --    0.72391   0.78019   0.81743   0.82889   0.84439

 Mulliken charges:
               1
     1  O   -0.591505
     2  H    0.311087
     3  H    0.231701
     4  O   -0.466166
     5  H    0.261513
     6  H    0.253371
 Sum of Mulliken charges =  -0.00000

 Dipole moment (field-independent basis, Debye):
    X=             -1.6996    Y=             -4.0420    Z=              0.0000  Tot=              4.3848
 Quadrupole moment (field-independent basis, Debye-Ang):
   XX=             -9.2202   YY=             -9.1236   ZZ=            -14.7023
   XY=             -3.1612   XZ=              0.0000   YZ=             -0.0000

 Normal termination of Gaussian 16 at Fri Aug 26 20:02:32 2022.
