 Gaussian 16, Revision A.03,
 Gaussian 16:  ES64L-G16RevA.03 25-Dec-2016

 ------------------
 #p CCSD(T)/cc-pVTZ
 ------------------

 -----------
 H2O_H2O_163
 -----------
 Symbolic Z-matrix:
 Charge =  0 Multiplicity = 1

                         Standard orientation:
 ---------------------------------------------------------------------
 Center     Atomic      Atomic             Coordinates (Angstroms)
 Number     Number       Type             X           Y           Z
 ---------------------------------------------------------------------
      1          8           0        0.052451    1.172206   -0.000000
      2          1           0        0.049263    0.189610   -0.000000
      3          1           0       -0.876004    1.493887   -0.000000
      4          8           0        0.052451   -0.992493    0.000000
      5          1           0        0.789104   -1.642761    0.000000
      6          1           0       -0.801574   -1.478444    0.000000
 ---------------------------------------------------------------------

 SCF Done:  E(RHF) =  -152.062717690     A.U. after   11 cycles
 E2 =    -0.5349004403D+00 EUMP2 =    -0.15259761812998D+03
 CCSD(T)
 CCSD(T)= -0.15262336831D+03

 The electronic state is 1-A'.
 Alpha  occ. eigenvalues --  -20.61636 -20.45351  -1.42233  -1.25135  -0.77788
 Alpha  occ. eigenvalues --   -0.76478  -0.57740  -0.55570  -0.45708  -0.41751
 Alpha virt. eigenvalues --    0.10552   0.16620   0.20925   0.33078   0.47283
 Alpha virt. eigenvalues --    0.52326   0.63205   0.63916   0.71003   0.71298
 Alpha virt. eigenvalues --    0.79061   0.79835   0.80998   0.82237   0.85862

 Mulliken charges:
               1
     1  O   -0.654881
     2  H    0.298888
     3  H    0.206528
     4  O   -0.345565
     5  H    0.250683
     6  H    0.244347
 Sum of Mulliken charges =  -0.00000

 Dipole moment (field-independent basis, Debye):
    X=             -1.6057    Y=             -4.8738    Z=              0.0000  Tot=              5.1315
 Quadrupole moment (field-independent basis, Debye-Ang):
   XX=             -9.1856   YY=            -10.0365   ZZ=            -14.5901
   XY=             -2.7475   XZ=              0.0000   YZ=              0.0000

 Normal termination of Gaussian 16 at Fri Aug 26 16:18:09 2022.
