 Gaussian 16, Revision A.03,
 Gaussian 16:  ES64L-G16RevA.03 25-Dec-2016

 ------------------
 #p CCSD(T)/cc-pVTZ
 ------------------

 -----------
 H2O_H2O_156
 -----------
 Symbolic Z-matrix:
 Charge =  0 Multiplicity = 1

                         Standard orientation:
 ---------------------------------------------------------------------
 Center     Atomic      Atomic             Coordinates (Angstroms)
 Number     Number       Type             X           Y           Z
 ---------------------------------------------------------------------
      1          8           0        0.076813   -1.163176    0.000000
      2          1           0        0.075543   -0.180576    0.000000
      3          1           0       -0.852267   -1.483044    0.000000
      4          8           0        0.076813    1.000072    0.000000
      5          1           0        0.451666    1.908363    0.000000
      6          1           0       -0.903954    1.060096    0.000000
 ---------------------------------------------------------------------

 SCF Done:  E(RHF) =  -152.056644635     A.U. after   11 cycles
 E2 =    -0.5363814652D+00 EUMP2 =    -0.15259302609982D+03
 CCSD(T)
 CCSD(T)= -0.15261878165D+03

 The electronic state is 1-A'.
 Alpha  occ. eigenvalues --  -20.61514 -20.46632  -1.42476  -1.26057  -0.80696
 Alpha  occ. eigenvalues --   -0.72913  -0.57627  -0.56168  -0.47142  -0.42773
 Alpha virt. eigenvalues --    0.10597   0.16128   0.21277   0.32312   0.49195
 Alpha virt. eigenvalues --    0.51841   0.60047   0.64735   0.71317   0.72240
 Alpha virt. eigenvalues --    0.76995   0.78525   0.80925   0.85103   0.85905

 Mulliken charges:
               1
     1  O   -0.625437
     2  H    0.281681
     3  H    0.198083
     4  O   -0.325036
     5  H    0.231792
     6  H    0.238917
 Sum of Mulliken charges =  -0.00000

 Dipole moment (field-independent basis, Debye):
    X=             -2.3667    Y=              4.4612    Z=              0.0000  Tot=              5.0501
 Quadrupole moment (field-independent basis, Debye-Ang):
   XX=             -9.9271   YY=             -9.8780   ZZ=            -14.5646
   XY=              2.5365   XZ=              0.0000   YZ=              0.0000

 Normal termination of Gaussian 16 at Fri Aug 26 16:15:09 2022.
