 Gaussian 16, Revision A.03,
 Gaussian 16:  ES64L-G16RevA.03 25-Dec-2016

 ------------------
 #p CCSD(T)/cc-pVTZ
 ------------------

 ------------
 H2O_H2O_3361
 ------------
 Symbolic Z-matrix:
 Charge =  0 Multiplicity = 1

                         Standard orientation:
 ---------------------------------------------------------------------
 Center     Atomic      Atomic             Coordinates (Angstroms)
 Number     Number       Type             X           Y           Z
 ---------------------------------------------------------------------
      1          8           0        0.059636    2.447373    0.000000
      2          1           0        0.058437    1.464772    0.000000
      3          1           0       -0.869467    2.767173    0.000000
      4          8           0        0.059636   -2.269922   -0.000000
      5          1           0        0.706609   -3.009471   -0.000000
      6          1           0       -0.849760   -2.642084   -0.000000
 ---------------------------------------------------------------------

 SCF Done:  E(RHF) =  -152.109186284     A.U. after   10 cycles
 E2 =    -0.5258935714D+00 EUMP2 =    -0.15263507985503D+03
 CCSD(T)
 CCSD(T)= -0.15266224410D+03

 The electronic state is 1-A'.
 Alpha  occ. eigenvalues --  -20.56498 -20.54642  -1.33785  -1.31956  -0.71190
 Alpha  occ. eigenvalues --   -0.69348  -0.57303  -0.55435  -0.50909  -0.49085
 Alpha virt. eigenvalues --    0.12617   0.15605   0.19511   0.21985   0.53381
 Alpha virt. eigenvalues --    0.55146   0.56418   0.58178   0.67254   0.69340
 Alpha virt. eigenvalues --    0.77997   0.78898   0.79682   0.79754   0.83047

 Mulliken charges:
               1
     1  O   -0.516129
     2  H    0.263015
     3  H    0.251488
     4  O   -0.514494
     5  H    0.260000
     6  H    0.256120
 Sum of Mulliken charges =  -0.00000

 Dipole moment (field-independent basis, Debye):
    X=             -2.0367    Y=             -3.1673    Z=             -0.0000  Tot=              3.7656
 Quadrupole moment (field-independent basis, Debye-Ang):
   XX=             -9.3637   YY=             -7.0742   ZZ=            -14.7175
   XY=             -4.3709   XZ=             -0.0000   YZ=              0.0000

 Normal termination of Gaussian 16 at Fri Aug 26 21:16:36 2022.
