 Gaussian 16, Revision A.03,
 Gaussian 16:  ES64L-G16RevA.03 25-Dec-2016

 ------------------
 #p CCSD(T)/cc-pVTZ
 ------------------

 ------------
 H2O_H2O_3130
 ------------
 Symbolic Z-matrix:
 Charge =  0 Multiplicity = 1

                         Standard orientation:
 ---------------------------------------------------------------------
 Center     Atomic      Atomic             Coordinates (Angstroms)
 Number     Number       Type             X           Y           Z
 ---------------------------------------------------------------------
      1          8           0        0.079852    2.347635    0.000000
      2          1           0        0.079362    1.365034    0.000000
      3          1           0       -0.849482    2.666765   -0.000000
      4          8           0        0.079852   -2.188573    0.000000
      5          1           0        0.395235   -3.119187    0.000000
      6          1           0       -0.902744   -2.185104   -0.000000
 ---------------------------------------------------------------------

 SCF Done:  E(RHF) =  -152.108805431     A.U. after   10 cycles
 E2 =    -0.5259856352D+00 EUMP2 =    -0.15263479106652D+03
 CCSD(T)
 CCSD(T)= -0.15266195876D+03

 The electronic state is 1-A'.
 Alpha  occ. eigenvalues --  -20.56595 -20.54812  -1.33884  -1.32122  -0.71301
 Alpha  occ. eigenvalues --   -0.69507  -0.57381  -0.55588  -0.51001  -0.49244
 Alpha virt. eigenvalues --    0.12106   0.15641   0.19391   0.22523   0.53770
 Alpha virt. eigenvalues --    0.55032   0.56378   0.58307   0.67675   0.69227
 Alpha virt. eigenvalues --    0.77900   0.78664   0.79609   0.80635   0.82843

 Mulliken charges:
               1
     1  O   -0.513787
     2  H    0.261964
     3  H    0.249957
     4  O   -0.511372
     5  H    0.259909
     6  H    0.253329
 Sum of Mulliken charges =  -0.00000

 Dipole moment (field-independent basis, Debye):
    X=             -2.7227    Y=             -2.8506    Z=             -0.0000  Tot=              3.9420
 Quadrupole moment (field-independent basis, Debye-Ang):
   XX=            -10.1022   YY=             -7.9683   ZZ=            -14.7159
   XY=             -3.2023   XZ=             -0.0000   YZ=             -0.0000

 Normal termination of Gaussian 16 at Fri Aug 26 19:56:09 2022.
