 Gaussian 16, Revision A.03,
 Gaussian 16:  ES64L-G16RevA.03 25-Dec-2016

 ------------------
 #p CCSD(T)/cc-pVTZ
 ------------------

 ------------
 H2O_H2O_1215
 ------------
 Symbolic Z-matrix:
 Charge =  0 Multiplicity = 1

                         Standard orientation:
 ---------------------------------------------------------------------
 Center     Atomic      Atomic             Coordinates (Angstroms)
 Number     Number       Type             X           Y           Z
 ---------------------------------------------------------------------
      1          8           0        0.044942    1.591351   -0.000000
      2          1           0        0.042223    0.608754   -0.000000
      3          1           0       -0.883666    1.912589   -0.000000
      4          8           0        0.044942   -1.411035    0.000000
      5          1           0        0.860432   -1.959198    0.000000
      6          1           0       -0.738064   -2.004674    0.000000
 ---------------------------------------------------------------------

 SCF Done:  E(RHF) =  -152.114199066     A.U. after   10 cycles
 E2 =    -0.5278586572D+00 EUMP2 =    -0.15264205772303D+03
 CCSD(T)
 CCSD(T)= -0.15266898412D+03

 The electronic state is 1-A'.
 Alpha  occ. eigenvalues --  -20.58418 -20.52225  -1.35787  -1.29785  -0.73060
 Alpha  occ. eigenvalues --   -0.67905  -0.59528  -0.52972  -0.52891  -0.46920
 Alpha virt. eigenvalues --    0.11953   0.17966   0.18874   0.30786   0.49065
 Alpha virt. eigenvalues --    0.54740   0.56100   0.60467   0.68988   0.71606
 Alpha virt. eigenvalues --    0.73281   0.77123   0.82149   0.82716   0.84961

 Mulliken charges:
               1
     1  O   -0.555405
     2  H    0.288454
     3  H    0.243489
     4  O   -0.501532
     5  H    0.266282
     6  H    0.258712
 Sum of Mulliken charges =   0.00000

 Dipole moment (field-independent basis, Debye):
    X=             -1.4950    Y=             -3.6674    Z=              0.0000  Tot=              3.9604
 Quadrupole moment (field-independent basis, Debye-Ang):
   XX=             -9.1583   YY=             -8.5371   ZZ=            -14.7334
   XY=             -3.5855   XZ=              0.0000   YZ=             -0.0000

 Normal termination of Gaussian 16 at Fri Aug 26 23:10:41 2022.
