 Gaussian 16, Revision A.03,
 Gaussian 16:  ES64L-G16RevA.03 25-Dec-2016

 ------------------
 #p CCSD(T)/cc-pVTZ
 ------------------

 ------------
 H2O_H2O_2126
 ------------
 Symbolic Z-matrix:
 Charge =  0 Multiplicity = 1

                         Standard orientation:
 ---------------------------------------------------------------------
 Center     Atomic      Atomic             Coordinates (Angstroms)
 Number     Number       Type             X           Y           Z
 ---------------------------------------------------------------------
      1          8           0        0.090686   -1.937700    0.000000
      2          1           0        0.090583   -0.955099    0.000000
      3          1           0       -0.838774   -2.256464    0.000000
      4          8           0        0.090686    1.798995    0.000000
      5          1           0        0.154849    2.779500    0.000000
      6          1           0       -0.857632    1.541704    0.000000
 ---------------------------------------------------------------------

 SCF Done:  E(RHF) =  -152.109081339     A.U. after   10 cycles
 E2 =    -0.5265750320D+00 EUMP2 =    -0.15263565637144D+03
 CCSD(T)
 CCSD(T)= -0.15266278997D+03

 The electronic state is 1-A'.
 Alpha  occ. eigenvalues --  -20.57200 -20.54775  -1.34492  -1.32086  -0.71992
 Alpha  occ. eigenvalues --   -0.69420  -0.57993  -0.55519  -0.51591  -0.49200
 Alpha virt. eigenvalues --    0.11516   0.16090   0.20023   0.25119   0.52462
 Alpha virt. eigenvalues --    0.55733   0.56818   0.57465   0.68268   0.73140
 Alpha virt. eigenvalues --    0.76489   0.79085   0.79857   0.81167   0.83132

 Mulliken charges:
               1
     1  O   -0.515149
     2  H    0.265083
     3  H    0.245243
     4  O   -0.500815
     5  H    0.258647
     6  H    0.246991
 Sum of Mulliken charges =  -0.00000

 Dipole moment (field-independent basis, Debye):
    X=             -3.0623    Y=              2.5734    Z=              0.0000  Tot=              4.0000
 Quadrupole moment (field-independent basis, Debye-Ang):
   XX=            -10.7324   YY=             -8.9504   ZZ=            -14.7152
   XY=              2.3274   XZ=              0.0000   YZ=              0.0000

 Normal termination of Gaussian 16 at Sun Aug 28 04:34:06 2022.
