 Gaussian 16, Revision A.03,
 Gaussian 16:  ES64L-G16RevA.03 25-Dec-2016

 ------------------
 #p CCSD(T)/cc-pVTZ
 ------------------

 ------------
 H2O_H2O_1182
 ------------
 Symbolic Z-matrix:
 Charge =  0 Multiplicity = 1

                         Standard orientation:
 ---------------------------------------------------------------------
 Center     Atomic      Atomic             Coordinates (Angstroms)
 Number     Number       Type             X           Y           Z
 ---------------------------------------------------------------------
      1          8           0        0.073568    1.574077    0.000000
      2          1           0        0.072462    0.591476    0.000000
      3          1           0       -0.855566    1.893789   -0.000000
      4          8           0        0.073568   -1.407192    0.000000
      5          1           0        0.507170   -2.288949    0.000000
      6          1           0       -0.901152   -1.531397   -0.000000
 ---------------------------------------------------------------------

 SCF Done:  E(RHF) =  -152.112109234     A.U. after   10 cycles
 E2 =    -0.5282082279D+00 EUMP2 =    -0.15264031746239D+03
 CCSD(T)
 CCSD(T)= -0.15266726292D+03

 The electronic state is 1-A'.
 Alpha  occ. eigenvalues --  -20.58438 -20.52732  -1.35859  -1.30254  -0.73342
 Alpha  occ. eigenvalues --   -0.68126  -0.59439  -0.53456  -0.52919  -0.47364
 Alpha virt. eigenvalues --    0.11710   0.17046   0.19604   0.30434   0.48647
 Alpha virt. eigenvalues --    0.54771   0.58198   0.58910   0.69705   0.73060
 Alpha virt. eigenvalues --    0.74199   0.76531   0.81846   0.82204   0.84217

 Mulliken charges:
               1
     1  O   -0.545531
     2  H    0.286495
     3  H    0.237266
     4  O   -0.479513
     5  H    0.250514
     6  H    0.250769
 Sum of Mulliken charges =  -0.00000

 Dipole moment (field-independent basis, Debye):
    X=             -2.4391    Y=             -3.4020    Z=             -0.0000  Tot=              4.1860
 Quadrupole moment (field-independent basis, Debye-Ang):
   XX=             -9.8442   YY=             -8.6586   ZZ=            -14.7215
   XY=             -3.0324   XZ=              0.0000   YZ=              0.0000

 Normal termination of Gaussian 16 at Fri Aug 26 22:57:13 2022.
