 Gaussian 16, Revision A.03,
 Gaussian 16:  ES64L-G16RevA.03 25-Dec-2016

 ------------------
 #p CCSD(T)/cc-pVTZ
 ------------------

 ------------
 H2O_H2O_4006
 ------------
 Symbolic Z-matrix:
 Charge =  0 Multiplicity = 1

                         Standard orientation:
 ---------------------------------------------------------------------
 Center     Atomic      Atomic             Coordinates (Angstroms)
 Number     Number       Type             X           Y           Z
 ---------------------------------------------------------------------
      1          8           0        0.076751    2.698912   -0.000000
      2          1           0        0.076226    1.716311   -0.000000
      3          1           0       -0.852571    3.018075   -0.000000
      4          8           0        0.076751   -2.535691    0.000000
      5          1           0        0.452292   -3.443697    0.000000
      6          1           0       -0.903970   -2.596459    0.000000
 ---------------------------------------------------------------------

 SCF Done:  E(RHF) =  -152.108263217     A.U. after   10 cycles
 E2 =    -0.5258609486D+00 EUMP2 =    -0.15263412416531D+03
 CCSD(T)
 CCSD(T)= -0.15266132001D+03

 The electronic state is 1-A'.
 Alpha  occ. eigenvalues --  -20.56302 -20.55000  -1.33601  -1.32307  -0.71012
 Alpha  occ. eigenvalues --   -0.69701  -0.57085  -0.55771  -0.50717  -0.49426
 Alpha virt. eigenvalues --    0.12804   0.15087   0.19367   0.21482   0.53276
 Alpha virt. eigenvalues --    0.54997   0.56528   0.57867   0.66707   0.68955
 Alpha virt. eigenvalues --    0.78179   0.79042   0.79432   0.80648   0.82674

 Mulliken charges:
               1
     1  O   -0.512358
     2  H    0.260213
     3  H    0.251782
     4  O   -0.513234
     5  H    0.259277
     6  H    0.254321
 Sum of Mulliken charges =  -0.00000

 Dipole moment (field-independent basis, Debye):
    X=             -2.6278    Y=             -2.8798    Z=              0.0000  Tot=              3.8986
 Quadrupole moment (field-independent basis, Debye-Ang):
   XX=             -9.9496   YY=             -7.4441   ZZ=            -14.7142
   XY=             -3.5942   XZ=              0.0000   YZ=             -0.0000

 CCSD(T)=-152.66132\RMSD=7.193e-09\PG=CS [SG(H4O2)]\\@
 Normal termination of Gaussian 16 at Sat Aug 27 00:57:23 2022.
