 Gaussian 16, Revision A.03,
 Gaussian 16:  ES64L-G16RevA.03 25-Dec-2016

 ------------------
 #p CCSD(T)/cc-pVTZ
 ------------------

 ------------
 H2O_H2O_3530
 ------------
 Symbolic Z-matrix:
 Charge =  0 Multiplicity = 1

                         Standard orientation:
 ---------------------------------------------------------------------
 Center     Atomic      Atomic             Coordinates (Angstroms)
 Number     Number       Type             X           Y           Z
 ---------------------------------------------------------------------
      1          8           0        0.079849    2.507188    0.000000
      2          1           0        0.079391    1.524587    0.000000
      3          1           0       -0.849495    2.826288   -0.000000
      4          8           0        0.079849   -2.348121    0.000000
      5          1           0        0.395262   -3.278724    0.000000
      6          1           0       -0.902746   -2.344685   -0.000000
 ---------------------------------------------------------------------

 SCF Done:  E(RHF) =  -152.108460273     A.U. after   10 cycles
 E2 =    -0.5259140334D+00 EUMP2 =    -0.15263437430602D+03
 CCSD(T)
 CCSD(T)= -0.15266155845D+03

 The electronic state is 1-A'.
 Alpha  occ. eigenvalues --  -20.56441 -20.54931  -1.33736  -1.32239  -0.71151
 Alpha  occ. eigenvalues --   -0.69629  -0.57224  -0.55704  -0.50852  -0.49359
 Alpha virt. eigenvalues --    0.12352   0.15367   0.19315   0.21992   0.53355
 Alpha virt. eigenvalues --    0.55063   0.56439   0.58064   0.66936   0.69151
 Alpha virt. eigenvalues --    0.78052   0.78682   0.79496   0.80733   0.82743

 Mulliken charges:
               1
     1  O   -0.512652
     2  H    0.260820
     3  H    0.250901
     4  O   -0.512545
     5  H    0.259787
     6  H    0.253690
 Sum of Mulliken charges =  -0.00000

 Dipole moment (field-independent basis, Debye):
    X=             -2.7284    Y=             -2.8266    Z=              0.0000  Tot=              3.9286
 Quadrupole moment (field-independent basis, Debye-Ang):
   XX=            -10.0986   YY=             -7.8357   ZZ=            -14.7148
   XY=             -3.2761   XZ=              0.0000   YZ=              0.0000

 Normal termination of Gaussian 16 at Fri Aug 26 22:13:42 2022.
