 Gaussian 16, Revision A.03,
 Gaussian 16:  ES64L-G16RevA.03 25-Dec-2016

 ------------------
 #p CCSD(T)/cc-pVTZ
 ------------------

 -----------
 H2O_H2O_600
 -----------
 Symbolic Z-matrix:
 Charge =  0 Multiplicity = 1

                         Standard orientation:
 ---------------------------------------------------------------------
 Center     Atomic      Atomic             Coordinates (Angstroms)
 Number     Number       Type             X           Y           Z
 ---------------------------------------------------------------------
      1          8           0        0.092949   -1.326198    0.000000
      2          1           0        0.092949   -0.343596    0.000000
      3          1           0       -0.836544   -1.644864    0.000000
      4          8           0        0.092949    1.193411    0.000000
      5          1           0        0.092950    2.176013    0.000000
      6          1           0       -0.836544    0.874744    0.000000
 ---------------------------------------------------------------------

 SCF Done:  E(RHF) =  -152.093363124     A.U. after   11 cycles
 E2 =    -0.5326834681D+00 EUMP2 =    -0.15262604659237D+03
 CCSD(T)
 CCSD(T)= -0.15265269520D+03

 The electronic state is 1-A'.
 Alpha  occ. eigenvalues --  -20.59672 -20.52035  -1.38270  -1.29941  -0.77491
 Alpha  occ. eigenvalues --   -0.67734  -0.59791  -0.54627  -0.52783  -0.46926
 Alpha virt. eigenvalues --    0.11314   0.16354   0.21111   0.32036   0.48327
 Alpha virt. eigenvalues --    0.51861   0.58878   0.64605   0.69815   0.71026
 Alpha virt. eigenvalues --    0.73758   0.77985   0.78678   0.82519   0.83146

 Mulliken charges:
               1
     1  O   -0.552962
     2  H    0.284744
     3  H    0.217333
     4  O   -0.408102
     5  H    0.232415
     6  H    0.226572
 Sum of Mulliken charges =  -0.00000

 Dipole moment (field-independent basis, Debye):
    X=             -3.0068    Y=              3.1297    Z=              0.0000  Tot=              4.3400
 Quadrupole moment (field-independent basis, Debye-Ang):
   XX=            -10.8862   YY=             -9.4317   ZZ=            -14.6431
   XY=              2.0269   XZ=              0.0000   YZ=              0.0000

 Normal termination of Gaussian 16 at Fri Aug 26 19:19:19 2022.
