 Gaussian 16, Revision A.03,
 Gaussian 16:  ES64L-G16RevA.03 25-Dec-2016

 ------------------
 #p CCSD(T)/cc-pVTZ
 ------------------

 ------------
 H2O_H2O_2629
 ------------
 Symbolic Z-matrix:
 Charge =  0 Multiplicity = 1

                         Standard orientation:
 ---------------------------------------------------------------------
 Center     Atomic      Atomic             Coordinates (Angstroms)
 Number     Number       Type             X           Y           Z
 ---------------------------------------------------------------------
      1          8           0        0.082806   -2.145725    0.000000
      2          1           0        0.082390   -1.163124    0.000000
      3          1           0       -0.846551   -2.464785    0.000000
      4          8           0        0.082806    1.991213    0.000000
      5          1           0        0.336721    2.940442    0.000000
      6          1           0       -0.897463    1.923560    0.000000
 ---------------------------------------------------------------------

 SCF Done:  E(RHF) =  -152.109236848     A.U. after   10 cycles
 E2 =    -0.5261640254D+00 EUMP2 =    -0.15263540087369D+03
 CCSD(T)
 CCSD(T)= -0.15266254548D+03

 The electronic state is 1-A'.
 Alpha  occ. eigenvalues --  -20.56852 -20.54693  -1.34134  -1.32005  -0.71564
 Alpha  occ. eigenvalues --   -0.69380  -0.57645  -0.55466  -0.51251  -0.49128
 Alpha virt. eigenvalues --    0.11837   0.15955   0.19544   0.23598   0.53870
 Alpha virt. eigenvalues --    0.55273   0.56387   0.58277   0.68687   0.70041
 Alpha virt. eigenvalues --    0.77526   0.79052   0.79754   0.80625   0.83014

 Mulliken charges:
               1
     1  O   -0.515390
     2  H    0.263646
     3  H    0.248142
     4  O   -0.507734
     5  H    0.259461
     6  H    0.251874
 Sum of Mulliken charges =  -0.00000

 Dipole moment (field-independent basis, Debye):
    X=             -2.8131    Y=              2.8096    Z=              0.0000  Tot=              3.9759
 Quadrupole moment (field-independent basis, Debye-Ang):
   XX=            -10.2608   YY=             -8.3037   ZZ=            -14.7169
   XY=              2.9301   XZ=              0.0000   YZ=              0.0000

 CCSD(T)=-152.6625455\RMSD=7.003e-09\PG=CS [SG(H4O2)]\\@
 Normal termination of Gaussian 16 at Fri Aug 26 16:09:09 2022.
