 Gaussian 16, Revision A.03,
 Gaussian 16:  ES64L-G16RevA.03 25-Dec-2016

 ------------------
 #p CCSD(T)/cc-pVTZ
 ------------------

 ----------
 H2O_H2O_64
 ----------
 Symbolic Z-matrix:
 Charge =  0 Multiplicity = 1

                         Standard orientation:
 ---------------------------------------------------------------------
 Center     Atomic      Atomic             Coordinates (Angstroms)
 Number     Number       Type             X           Y           Z
 ---------------------------------------------------------------------
      1          8           0        0.048761    1.132583    0.000000
      2          1           0        0.045149    0.149988    0.000000
      3          1           0       -0.879554    1.454664    0.000000
      4          8           0        0.048761   -0.952387   -0.000000
      5          1           0        0.826107   -1.553420   -0.000000
      6          1           0       -0.771886   -1.492798   -0.000000
 ---------------------------------------------------------------------

 SCF Done:  E(RHF) =  -152.041239722     A.U. after   11 cycles
 E2 =    -0.5357502592D+00 EUMP2 =    -0.15257698998150D+03
 CCSD(T)
 CCSD(T)= -0.15260254034D+03

 The electronic state is 1-A'.
 Alpha  occ. eigenvalues --  -20.62094 -20.43982  -1.43817  -1.24364  -0.79158
 Alpha  occ. eigenvalues --   -0.78119  -0.58682  -0.54500  -0.44180  -0.40818
 Alpha virt. eigenvalues --    0.10310   0.16366   0.21232   0.32878   0.46993
 Alpha virt. eigenvalues --    0.51904   0.63328   0.64377   0.70586   0.70753
 Alpha virt. eigenvalues --    0.78914   0.79540   0.81528   0.82307   0.88422

 Mulliken charges:
               1
     1  O   -0.674128
     2  H    0.287211
     3  H    0.201068
     4  O   -0.308080
     5  H    0.251613
     6  H    0.242317
 Sum of Mulliken charges =   0.00000

 Dipole moment (field-independent basis, Debye):
    X=             -1.4693    Y=             -5.0986    Z=             -0.0000  Tot=              5.3060
 Quadrupole moment (field-independent basis, Debye-Ang):
   XX=             -9.1285   YY=            -10.2494   ZZ=            -14.5562
   XY=             -2.6633   XZ=             -0.0000   YZ=             -0.0000

 Normal termination of Gaussian 16 at Fri Aug 26 15:37:13 2022.
