 Gaussian 16, Revision A.03,
 Gaussian 16:  ES64L-G16RevA.03 25-Dec-2016

 ------------------
 #p CCSD(T)/cc-pVTZ
 ------------------

 ------------
 H2O_H2O_1727
 ------------
 Symbolic Z-matrix:
 Charge =  0 Multiplicity = 1

                         Standard orientation:
 ---------------------------------------------------------------------
 Center     Atomic      Atomic             Coordinates (Angstroms)
 Number     Number       Type             X           Y           Z
 ---------------------------------------------------------------------
      1          8           0        0.088236   -1.781194    0.000000
      2          1           0        0.088001   -0.798593    0.000000
      3          1           0       -0.841181   -2.100082    0.000000
      4          8           0        0.088236    1.636885    0.000000
      5          1           0        0.216258    2.611110    0.000000
      6          1           0       -0.874854    1.442037    0.000000
 ---------------------------------------------------------------------

 SCF Done:  E(RHF) =  -152.109906990     A.U. after   10 cycles
 E2 =    -0.5270626693D+00 EUMP2 =    -0.15263696965898D+03
 CCSD(T)
 CCSD(T)= -0.15266406424D+03

 The electronic state is 1-A'.
 Alpha  occ. eigenvalues --  -20.57596 -20.54360  -1.34907  -1.31700  -0.72475
 Alpha  occ. eigenvalues --   -0.69018  -0.58453  -0.55100  -0.51995  -0.48814
 Alpha virt. eigenvalues --    0.11589   0.16357   0.20091   0.26788   0.50791
 Alpha virt. eigenvalues --    0.55193   0.57363   0.57642   0.68390   0.74476
 Alpha virt. eigenvalues --    0.75004   0.77935   0.80399   0.82628   0.83434

 Mulliken charges:
               1
     1  O   -0.520690
     2  H    0.269785
     3  H    0.242278
     4  O   -0.493789
     5  H    0.255487
     6  H    0.246930
 Sum of Mulliken charges =  -0.00000

 Dipole moment (field-independent basis, Debye):
    X=             -2.9622    Y=              2.7541    Z=              0.0000  Tot=              4.0448
 Quadrupole moment (field-independent basis, Debye-Ang):
   XX=            -10.5924   YY=             -8.8200   ZZ=            -14.7172
   XY=              2.4758   XZ=              0.0000   YZ=              0.0000

 Normal termination of Gaussian 16 at Sun Aug 28 00:59:13 2022.
