 Gaussian 16, Revision A.03,
 Gaussian 16:  ES64L-G16RevA.03 25-Dec-2016

 ------------------
 #p CCSD(T)/cc-pVTZ
 ------------------

 ------------
 H2O_H2O_1866
 ------------
 Symbolic Z-matrix:
 Charge =  0 Multiplicity = 1

                         Standard orientation:
 ---------------------------------------------------------------------
 Center     Atomic      Atomic             Coordinates (Angstroms)
 Number     Number       Type             X           Y           Z
 ---------------------------------------------------------------------
      1          8           0        0.041192    1.850382    0.000000
      2          1           0        0.038693    0.867783    0.000000
      3          1           0       -0.887488    2.171410    0.000000
      4          8           0        0.041192   -1.670504   -0.000000
      5          1           0        0.890898   -2.163967   -0.000000
      6          1           0       -0.701167   -2.314250   -0.000000
 ---------------------------------------------------------------------

 SCF Done:  E(RHF) =  -152.112870231     A.U. after   10 cycles
 E2 =    -0.5265472963D+00 EUMP2 =    -0.15263941752760D+03
 CCSD(T)
 CCSD(T)= -0.15266646503D+03

 The electronic state is 1-A'.
 Alpha  occ. eigenvalues --  -20.57496 -20.53495  -1.34749  -1.30872  -0.72122
 Alpha  occ. eigenvalues --   -0.68336  -0.58488  -0.54312  -0.51889  -0.48027
 Alpha virt. eigenvalues --    0.12202   0.17197   0.19094   0.26968   0.51319
 Alpha virt. eigenvalues --    0.54746   0.56367   0.59097   0.69080   0.72416
 Alpha virt. eigenvalues --    0.75775   0.77262   0.80927   0.83347   0.84531

 Mulliken charges:
               1
     1  O   -0.532997
     2  H    0.270888
     3  H    0.249082
     4  O   -0.508127
     5  H    0.262911
     6  H    0.258243
 Sum of Mulliken charges =  -0.00000

 Dipole moment (field-independent basis, Debye):
    X=             -1.3908    Y=             -3.4172    Z=             -0.0000  Tot=              3.6894
 Quadrupole moment (field-independent basis, Debye-Ang):
   XX=             -9.1521   YY=             -7.9774   ZZ=            -14.7314
   XY=             -4.1185   XZ=             -0.0000   YZ=             -0.0000

 Normal termination of Gaussian 16 at Sun Aug 28 02:18:30 2022.
