 Gaussian 16, Revision A.03,
 Gaussian 16:  ES64L-G16RevA.03 25-Dec-2016

 ------------------
 #p CCSD(T)/cc-pVTZ
 ------------------

 ------------
 H2O_H2O_1701
 ------------
 Symbolic Z-matrix:
 Charge =  0 Multiplicity = 1

                         Standard orientation:
 ---------------------------------------------------------------------
 Center     Atomic      Atomic             Coordinates (Angstroms)
 Number     Number       Type             X           Y           Z
 ---------------------------------------------------------------------
      1          8           0        0.090687   -1.768177    0.000000
      2          1           0        0.090573   -0.785575    0.000000
      3          1           0       -0.838770   -2.086950    0.000000
      4          8           0        0.090687    1.629473    0.000000
      5          1           0        0.154839    2.609979    0.000000
      6          1           0       -0.857629    1.372172    0.000000
 ---------------------------------------------------------------------

 SCF Done:  E(RHF) =  -152.109446095     A.U. after   10 cycles
 E2 =    -0.5271623876D+00 EUMP2 =    -0.15263660848235D+03
 CCSD(T)
 CCSD(T)= -0.15266371252D+03

 The electronic state is 1-A'.
 Alpha  occ. eigenvalues --  -20.57617 -20.54493  -1.34938  -1.31828  -0.72554
 Alpha  occ. eigenvalues --   -0.69111  -0.58457  -0.55224  -0.52016  -0.48936
 Alpha virt. eigenvalues --    0.11522   0.16287   0.20257   0.26839   0.50740
 Alpha virt. eigenvalues --    0.54967   0.57504   0.57595   0.68085   0.74427
 Alpha virt. eigenvalues --    0.74809   0.77948   0.80322   0.82411   0.83392

 Mulliken charges:
               1
     1  O   -0.519316
     2  H    0.269657
     3  H    0.241866
     4  O   -0.491564
     5  H    0.254662
     6  H    0.244694
 Sum of Mulliken charges =  -0.00000

 Dipole moment (field-independent basis, Debye):
    X=             -3.0419    Y=              2.6508    Z=              0.0000  Tot=              4.0348
 Quadrupole moment (field-independent basis, Debye-Ang):
   XX=            -10.7450   YY=             -8.9747   ZZ=            -14.7147
   XY=              2.3031   XZ=              0.0000   YZ=              0.0000

 Normal termination of Gaussian 16 at Sun Aug 28 00:48:49 2022.
