 Gaussian 16, Revision A.03,
 Gaussian 16:  ES64L-G16RevA.03 25-Dec-2016

 ------------------
 #p CCSD(T)/cc-pVTZ
 ------------------

 ------------
 H2O_H2O_3069
 ------------
 Symbolic Z-matrix:
 Charge =  0 Multiplicity = 1

                         Standard orientation:
 ---------------------------------------------------------------------
 Center     Atomic      Atomic             Coordinates (Angstroms)
 Number     Number       Type             X           Y           Z
 ---------------------------------------------------------------------
      1          8           0        0.030191    2.326713   -0.000000
      2          1           0        0.027812    1.344114   -0.000000
      3          1           0       -0.898528    2.647629    0.000000
      4          8           0        0.030191   -2.151107   -0.000000
      5          1           0        0.959879   -2.469206   -0.000000
      6          1           0       -0.572222   -2.927384    0.000000
 ---------------------------------------------------------------------

 SCF Done:  E(RHF) =  -152.109855588     A.U. after   10 cycles
 E2 =    -0.5259090120D+00 EUMP2 =    -0.15263576460042D+03
 CCSD(T)
 CCSD(T)= -0.15266290934D+03

 The electronic state is 1-A'.
 Alpha  occ. eigenvalues --  -20.56608 -20.54507  -1.33890  -1.31827  -0.71291
 Alpha  occ. eigenvalues --   -0.69227  -0.57434  -0.55317  -0.51019  -0.48964
 Alpha virt. eigenvalues --    0.12499   0.15896   0.19408   0.22653   0.53342
 Alpha virt. eigenvalues --    0.55473   0.56441   0.58369   0.68029   0.69346
 Alpha virt. eigenvalues --    0.77876   0.78913   0.79831   0.79866   0.83198

 Mulliken charges:
               1
     1  O   -0.519690
     2  H    0.263836
     3  H    0.253235
     4  O   -0.515163
     5  H    0.259582
     6  H    0.258199
 Sum of Mulliken charges =  -0.00000

 Dipole moment (field-independent basis, Debye):
    X=             -1.0310    Y=             -3.1560    Z=             -0.0000  Tot=              3.3201
 Quadrupole moment (field-independent basis, Debye-Ang):
   XX=             -9.2294   YY=             -7.3123   ZZ=            -14.7198
   XY=             -5.4327   XZ=             -0.0000   YZ=              0.0000

 Normal termination of Gaussian 16 at Fri Aug 26 19:35:58 2022.
