 Gaussian 16, Revision A.03,
 Gaussian 16:  ES64L-G16RevA.03 25-Dec-2016

 ------------------
 #p CCSD(T)/cc-pVTZ
 ------------------

 ------------
 H2O_H2O_1278
 ------------
 Symbolic Z-matrix:
 Charge =  0 Multiplicity = 1

                         Standard orientation:
 ---------------------------------------------------------------------
 Center     Atomic      Atomic             Coordinates (Angstroms)
 Number     Number       Type             X           Y           Z
 ---------------------------------------------------------------------
      1          8           0        0.085611   -1.604559    0.000000
      2          1           0        0.085203   -0.621958    0.000000
      3          1           0       -0.843750   -1.923611    0.000000
      4          8           0        0.085611    1.454986    0.000000
      5          1           0        0.276908    2.418786    0.000000
      6          1           0       -0.888136    1.323373    0.000000
 ---------------------------------------------------------------------

 SCF Done:  E(RHF) =  -152.110242134     A.U. after   10 cycles
 E2 =    -0.5281212810D+00 EUMP2 =    -0.15263836341475D+03
 CCSD(T)
 CCSD(T)= -0.15266537970D+03

 The electronic state is 1-A'.
 Alpha  occ. eigenvalues --  -20.58220 -20.53587  -1.35638  -1.31024  -0.73353
 Alpha  occ. eigenvalues --   -0.68448  -0.59165  -0.54308  -0.52677  -0.48123
 Alpha virt. eigenvalues --    0.11587   0.16590   0.20108   0.29353   0.49072
 Alpha virt. eigenvalues --    0.54445   0.58089   0.58666   0.68716   0.73098
 Alpha virt. eigenvalues --    0.74642   0.77389   0.81237   0.81795   0.83607

 Mulliken charges:
               1
     1  O   -0.532591
     2  H    0.279436
     3  H    0.237036
     4  O   -0.472066
     5  H    0.243786
     6  H    0.244399
 Sum of Mulliken charges =  -0.00000

 Dipole moment (field-independent basis, Debye):
    X=             -2.8444    Y=              3.0024    Z=              0.0000  Tot=              4.1359
 Quadrupole moment (field-independent basis, Debye-Ang):
   XX=            -10.4484   YY=             -8.8330   ZZ=            -14.7132
   XY=              2.5759   XZ=              0.0000   YZ=              0.0000

 Normal termination of Gaussian 16 at Fri Aug 26 23:33:48 2022.
