 Gaussian 16, Revision A.03,
 Gaussian 16:  ES64L-G16RevA.03 25-Dec-2016

 ------------------
 #p CCSD(T)/cc-pVTZ
 ------------------

 ------------
 H2O_H2O_2623
 ------------
 Symbolic Z-matrix:
 Charge =  0 Multiplicity = 1

                         Standard orientation:
 ---------------------------------------------------------------------
 Center     Atomic      Atomic             Coordinates (Angstroms)
 Number     Number       Type             X           Y           Z
 ---------------------------------------------------------------------
      1          8           0       -0.016650    2.140581    0.000000
      2          1           0       -0.013505    1.157985    0.000000
      3          1           0        0.911818    2.462221    0.000000
      4          8           0       -0.016650   -1.977200    0.000000
      5          1           0       -0.996937   -2.044605    0.000000
      6          1           0        0.365027   -2.882645    0.000000
 ---------------------------------------------------------------------

 SCF Done:  E(RHF) =  -152.110461934     A.U. after   10 cycles
 E2 =    -0.5260291320D+00 EUMP2 =    -0.15263649106580D+03
 CCSD(T)
 CCSD(T)= -0.15266361397D+03

 The electronic state is 1-A'.
 Alpha  occ. eigenvalues --  -20.56827 -20.54438  -1.34106  -1.31764  -0.71517
 Alpha  occ. eigenvalues --   -0.69173  -0.57676  -0.55255  -0.51236  -0.48907
 Alpha virt. eigenvalues --    0.12220   0.16253   0.19262   0.24025   0.53870
 Alpha virt. eigenvalues --    0.55520   0.56259   0.58490   0.68758   0.70191
 Alpha virt. eigenvalues --    0.77528   0.79168   0.79947   0.80712   0.83473

 Mulliken charges:
               1
     1  O   -0.523237
     2  H    0.264428
     3  H    0.254398
     4  O   -0.513137
     5  H    0.259176
     6  H    0.258371
 Sum of Mulliken charges =  -0.00000

 Dipole moment (field-independent basis, Debye):
    X=              0.5717    Y=             -2.9745    Z=              0.0000  Tot=              3.0289
 Quadrupole moment (field-independent basis, Debye-Ang):
   XX=             -9.5435   YY=             -7.9719   ZZ=            -14.7214
   XY=              5.6162   XZ=              0.0000   YZ=              0.0000

 Normal termination of Gaussian 16 at Fri Aug 26 16:06:41 2022.
