 Gaussian 16, Revision A.03,
 Gaussian 16:  ES64L-G16RevA.03 25-Dec-2016

 ------------------
 #p CCSD(T)/cc-pVTZ
 ------------------

 ------------
 H2O_H2O_1498
 ------------
 Symbolic Z-matrix:
 Charge =  0 Multiplicity = 1

                         Standard orientation:
 ---------------------------------------------------------------------
 Center     Atomic      Atomic             Coordinates (Angstroms)
 Number     Number       Type             X           Y           Z
 ---------------------------------------------------------------------
      1          8           0       -0.016723    1.691832    0.000000
      2          1           0       -0.012701    0.709239    0.000000
      3          1           0        0.911458    2.014301    0.000000
      4          8           0       -0.016723   -1.528482    0.000000
      5          1           0       -0.996950   -1.596760    0.000000
      6          1           0        0.365761   -2.433585    0.000000
 ---------------------------------------------------------------------

 SCF Done:  E(RHF) =  -152.113178429     A.U. after   10 cycles
 E2 =    -0.5270992308D+00 EUMP2 =    -0.15264027765991D+03
 CCSD(T)
 CCSD(T)= -0.15266729069D+03

 The electronic state is 1-A'.
 Alpha  occ. eigenvalues --  -20.57875 -20.53287  -1.35202  -1.30721  -0.72678
 Alpha  occ. eigenvalues --   -0.68261  -0.59005  -0.54062  -0.52313  -0.47874
 Alpha virt. eigenvalues --    0.12155   0.17536   0.19131   0.28949   0.50803
 Alpha virt. eigenvalues --    0.54399   0.55735   0.60651   0.68840   0.73994
 Alpha virt. eigenvalues --    0.74175   0.77206   0.81297   0.82778   0.84286

 Mulliken charges:
               1
     1  O   -0.544197
     2  H    0.274793
     3  H    0.253011
     4  O   -0.499848
     5  H    0.263202
     6  H    0.253041
 Sum of Mulliken charges =   0.00000

 Dipole moment (field-independent basis, Debye):
    X=              0.5714    Y=             -3.2035    Z=              0.0000  Tot=              3.2540
 Quadrupole moment (field-independent basis, Debye-Ang):
   XX=             -9.5431   YY=             -8.5019   ZZ=            -14.7300
   XY=              4.4298   XZ=              0.0000   YZ=              0.0000

 Normal termination of Gaussian 16 at Sat Aug 27 00:57:02 2022.
