 Gaussian 16, Revision A.03,
 Gaussian 16:  ES64L-G16RevA.03 25-Dec-2016

 ------------------
 #p CCSD(T)/cc-pVTZ
 ------------------

 ------------
 H2O_H2O_3167
 ------------
 Symbolic Z-matrix:
 Charge =  0 Multiplicity = 1

                         Standard orientation:
 ---------------------------------------------------------------------
 Center     Atomic      Atomic             Coordinates (Angstroms)
 Number     Number       Type             X           Y           Z
 ---------------------------------------------------------------------
      1          8           0        0.037445    2.368423   -0.000000
      2          1           0        0.035378    1.385824   -0.000000
      3          1           0       -0.891376    2.689045   -0.000000
      4          8           0        0.037445   -2.189458    0.000000
      5          1           0        0.917797   -2.625905    0.000000
      6          1           0       -0.660919   -2.880685    0.000000
 ---------------------------------------------------------------------

 SCF Done:  E(RHF) =  -152.109707334     A.U. after   10 cycles
 E2 =    -0.5258958174D+00 EUMP2 =    -0.15263560315089D+03
 CCSD(T)
 CCSD(T)= -0.15266275280D+03

 The electronic state is 1-A'.
 Alpha  occ. eigenvalues --  -20.56569 -20.54517  -1.33852  -1.31835  -0.71252
 Alpha  occ. eigenvalues --   -0.69234  -0.57391  -0.55324  -0.50981  -0.48971
 Alpha virt. eigenvalues --    0.12583   0.15816   0.19471   0.22387   0.53288
 Alpha virt. eigenvalues --    0.55371   0.56435   0.58319   0.67763   0.69352
 Alpha virt. eigenvalues --    0.77922   0.78958   0.79553   0.79859   0.83179

 Mulliken charges:
               1
     1  O   -0.518842
     2  H    0.263810
     3  H    0.252717
     4  O   -0.515265
     5  H    0.259765
     6  H    0.257814
 Sum of Mulliken charges =   0.00000

 Dipole moment (field-independent basis, Debye):
    X=             -1.2783    Y=             -3.2091    Z=              0.0000  Tot=              3.4543
 Quadrupole moment (field-independent basis, Debye-Ang):
   XX=             -9.1589   YY=             -7.1279   ZZ=            -14.7193
   XY=             -5.2064   XZ=              0.0000   YZ=             -0.0000

 Normal termination of Gaussian 16 at Fri Aug 26 20:10:49 2022.
