 Gaussian 16, Revision A.03,
 Gaussian 16:  ES64L-G16RevA.03 25-Dec-2016

 ------------------
 #p CCSD(T)/cc-pVTZ
 ------------------

 ------------
 H2O_H2O_3465
 ------------
 Symbolic Z-matrix:
 Charge =  0 Multiplicity = 1

                         Standard orientation:
 ---------------------------------------------------------------------
 Center     Atomic      Atomic             Coordinates (Angstroms)
 Number     Number       Type             X           Y           Z
 ---------------------------------------------------------------------
      1          8           0        0.044849    2.488869   -0.000000
      2          1           0        0.043147    1.506269   -0.000000
      3          1           0       -0.884091    2.809145   -0.000000
      4          8           0        0.044849   -2.308460    0.000000
      5          1           0        0.860905   -2.855779    0.000000
      6          1           0       -0.737543   -2.902910    0.000000
 ---------------------------------------------------------------------

 SCF Done:  E(RHF) =  -152.109268212     A.U. after   10 cycles
 E2 =    -0.5258605684D+00 EUMP2 =    -0.15263512878017D+03
 CCSD(T)
 CCSD(T)= -0.15266229386D+03

 The electronic state is 1-A'.
 Alpha  occ. eigenvalues --  -20.56454 -20.54633  -1.33743  -1.31948  -0.71145
 Alpha  occ. eigenvalues --   -0.69345  -0.57266  -0.55431  -0.50868  -0.49079
 Alpha virt. eigenvalues --    0.12753   0.15568   0.19553   0.21859   0.53397
 Alpha virt. eigenvalues --    0.55122   0.56482   0.58055   0.67092   0.69340
 Alpha virt. eigenvalues --    0.78036   0.79087   0.79449   0.79758   0.83065

 Mulliken charges:
               1
     1  O   -0.516987
     2  H    0.263031
     3  H    0.252551
     4  O   -0.515601
     5  H    0.259667
     6  H    0.257339
 Sum of Mulliken charges =   0.00000

 Dipole moment (field-independent basis, Debye):
    X=             -1.5327    Y=             -3.2133    Z=              0.0000  Tot=              3.5602
 Quadrupole moment (field-independent basis, Debye-Ang):
   XX=             -9.1569   YY=             -6.8835   ZZ=            -14.7179
   XY=             -5.1003   XZ=              0.0000   YZ=             -0.0000

 Normal termination of Gaussian 16 at Fri Aug 26 21:50:53 2022.
