 Gaussian 16, Revision A.03,
 Gaussian 16:  ES64L-G16RevA.03 25-Dec-2016

 ------------------
 #p CCSD(T)/cc-pVTZ
 ------------------

 ------------
 H2O_H2O_4863
 ------------
 Symbolic Z-matrix:
 Charge =  0 Multiplicity = 1

                         Standard orientation:
 ---------------------------------------------------------------------
 Center     Atomic      Atomic             Coordinates (Angstroms)
 Number     Number       Type             X           Y           Z
 ---------------------------------------------------------------------
      1          8           0        0.052266    3.047034   -0.000000
      2          1           0        0.051099    2.064433   -0.000000
      3          1           0       -0.876848    3.366804   -0.000000
      4          8           0        0.052266   -2.867105    0.000000
      5          1           0        0.790255   -3.515856    0.000000
      6          1           0       -0.800758   -3.354811    0.000000
 ---------------------------------------------------------------------

 SCF Done:  E(RHF) =  -152.108234977     A.U. after   10 cycles
 E2 =    -0.5258108541D+00 EUMP2 =    -0.15263404583073D+03
 CCSD(T)
 CCSD(T)= -0.15266124835D+03

 The electronic state is 1-A'.
 Alpha  occ. eigenvalues --  -20.56128 -20.55021  -1.33430  -1.32327  -0.70835
 Alpha  occ. eigenvalues --   -0.69728  -0.56916  -0.55794  -0.50548  -0.49448
 Alpha virt. eigenvalues --    0.13505   0.14787   0.19731   0.20910   0.53713
 Alpha virt. eigenvalues --    0.54808   0.56706   0.57766   0.67029   0.68546
 Alpha virt. eigenvalues --    0.78336   0.79412   0.79739   0.80457   0.82304

 Mulliken charges:
               1
     1  O   -0.513050
     2  H    0.259679
     3  H    0.253326
     4  O   -0.513746
     5  H    0.257848
     6  H    0.255943
 Sum of Mulliken charges =   0.00000

 Dipole moment (field-independent basis, Debye):
    X=             -1.7939    Y=             -3.1498    Z=              0.0000  Tot=              3.6248
 Quadrupole moment (field-independent basis, Debye-Ang):
   XX=             -9.2249   YY=             -6.0101   ZZ=            -14.7142
   XY=             -5.5503   XZ=              0.0000   YZ=             -0.0000

 Normal termination of Gaussian 16 at Sun Aug 28 06:27:13 2022.
