 Gaussian 16, Revision A.03,
 Gaussian 16:  ES64L-G16RevA.03 25-Dec-2016

 ------------------
 #p CCSD(T)/cc-pVTZ
 ------------------

 -----------
 H2O_H2O_426
 -----------
 Symbolic Z-matrix:
 Charge =  0 Multiplicity = 1

                         Standard orientation:
 ---------------------------------------------------------------------
 Center     Atomic      Atomic             Coordinates (Angstroms)
 Number     Number       Type             X           Y           Z
 ---------------------------------------------------------------------
      1          8           0        0.090690   -1.259604    0.000000
      2          1           0        0.090529   -0.277002    0.000000
      3          1           0       -0.838751   -1.578423    0.000000
      4          8           0        0.090690    1.120909    0.000000
      5          1           0        0.154795    2.101418    0.000000
      6          1           0       -0.857612    0.863561    0.000000
 ---------------------------------------------------------------------

 SCF Done:  E(RHF) =  -152.083202606     A.U. after   11 cycles
 E2 =    -0.5343178510D+00 EUMP2 =    -0.15261752045734D+03
 CCSD(T)
 CCSD(T)= -0.15264389119D+03

 The electronic state is 1-A'.
 Alpha  occ. eigenvalues --  -20.60260 -20.50625  -1.39586  -1.28889  -0.78927
 Alpha  occ. eigenvalues --   -0.68368  -0.59175  -0.55543  -0.51379  -0.45828
 Alpha virt. eigenvalues --    0.11144   0.16303   0.21166   0.32327   0.48791
 Alpha virt. eigenvalues --    0.51606   0.59192   0.65739   0.71332   0.71878
 Alpha virt. eigenvalues --    0.74215   0.77026   0.78914   0.82664   0.84208

 Mulliken charges:
               1
     1  O   -0.569943
     2  H    0.281106
     3  H    0.209687
     4  O   -0.378994
     5  H    0.228638
     6  H    0.229507
 Sum of Mulliken charges =  -0.00000

 Dipole moment (field-independent basis, Debye):
    X=             -2.8977    Y=              3.4680    Z=              0.0000  Tot=              4.5193
 Quadrupole moment (field-independent basis, Debye-Ang):
   XX=            -10.7221   YY=             -9.5228   ZZ=            -14.6149
   XY=              2.1340   XZ=              0.0000   YZ=              0.0000

 Normal termination of Gaussian 16 at Fri Aug 26 18:11:07 2022.
