 Gaussian 16, Revision A.03,
 Gaussian 16:  ES64L-G16RevA.03 25-Dec-2016

 ------------------
 #p CCSD(T)/cc-pVTZ
 ------------------

 -----------
 H2O_H2O_378
 -----------
 Symbolic Z-matrix:
 Charge =  0 Multiplicity = 1

                         Standard orientation:
 ---------------------------------------------------------------------
 Center     Atomic      Atomic             Coordinates (Angstroms)
 Number     Number       Type             X           Y           Z
 ---------------------------------------------------------------------
      1          8           0        0.085621   -1.245559    0.000000
      2          1           0        0.085088   -0.262958    0.000000
      3          1           0       -0.843700   -1.564729    0.000000
      4          8           0        0.085621    1.096007    0.000000
      5          1           0        0.276794    2.059832    0.000000
      6          1           0       -0.888111    0.964271    0.000000
 ---------------------------------------------------------------------

 SCF Done:  E(RHF) =  -152.082702609     A.U. after   11 cycles
 E2 =    -0.5343974492D+00 EUMP2 =    -0.15261710005773D+03
 CCSD(T)
 CCSD(T)= -0.15264335518D+03

 The electronic state is 1-A'.
 Alpha  occ. eigenvalues --  -20.60504 -20.49662  -1.39923  -1.28129  -0.78793
 Alpha  occ. eigenvalues --   -0.69430  -0.58550  -0.55887  -0.50364  -0.45038
 Alpha virt. eigenvalues --    0.11026   0.16351   0.20986   0.32538   0.48928
 Alpha virt. eigenvalues --    0.52015   0.59343   0.65216   0.71672   0.72652
 Alpha virt. eigenvalues --    0.74750   0.77175   0.79154   0.83303   0.84803

 Mulliken charges:
               1
     1  O   -0.585434
     2  H    0.285030
     3  H    0.208994
     4  O   -0.370011
     5  H    0.228847
     6  H    0.232573
 Sum of Mulliken charges =  -0.00000

 Dipole moment (field-independent basis, Debye):
    X=             -2.7155    Y=              3.7752    Z=              0.0000  Tot=              4.6504
 Quadrupole moment (field-independent basis, Debye-Ang):
   XX=            -10.4133   YY=             -9.5171   ZZ=            -14.6141
   XY=              2.3698   XZ=              0.0000   YZ=              0.0000

 Normal termination of Gaussian 16 at Fri Aug 26 17:48:53 2022.
