 Gaussian 16, Revision A.03,
 Gaussian 16:  ES64L-G16RevA.03 25-Dec-2016

 ------------------
 #p CCSD(T)/cc-pVTZ
 ------------------

 -----------
 H2O_H2O_684
 -----------
 Symbolic Z-matrix:
 Charge =  0 Multiplicity = 1

                         Standard orientation:
 ---------------------------------------------------------------------
 Center     Atomic      Atomic             Coordinates (Angstroms)
 Number     Number       Type             X           Y           Z
 ---------------------------------------------------------------------
      1          8           0        0.066825    1.377965    0.000000
      2          1           0        0.065104    0.395365    0.000000
      3          1           0       -0.862108    1.698259    0.000000
      4          8           0        0.066825   -1.204961   -0.000000
      5          1           0        0.611298   -2.022920   -0.000000
      6          1           0       -0.883500   -1.454735   -0.000000
 ---------------------------------------------------------------------

 SCF Done:  E(RHF) =  -152.106498740     A.U. after   11 cycles
 E2 =    -0.5306761163D+00 EUMP2 =    -0.15263717485615D+03
 CCSD(T)
 CCSD(T)= -0.15266378807D+03

 The electronic state is 1-A'.
 Alpha  occ. eigenvalues --  -20.59625 -20.50458  -1.37622  -1.28491  -0.74910
 Alpha  occ. eigenvalues --   -0.69245  -0.59332  -0.54444  -0.51106  -0.45508
 Alpha virt. eigenvalues --    0.11403   0.17200   0.19854   0.32929   0.48049
 Alpha virt. eigenvalues --    0.53910   0.59923   0.61360   0.70592   0.72284
 Alpha virt. eigenvalues --    0.73466   0.77735   0.80785   0.83396   0.84210

 Mulliken charges:
               1
     1  O   -0.584600
     2  H    0.306323
     3  H    0.227105
     4  O   -0.445749
     5  H    0.249669
     6  H    0.247253
 Sum of Mulliken charges =  -0.00000

 Dipole moment (field-independent basis, Debye):
    X=             -2.1611    Y=             -3.9154    Z=             -0.0000  Tot=              4.4722
 Quadrupole moment (field-independent basis, Debye-Ang):
   XX=             -9.5767   YY=             -9.1332   ZZ=            -14.6908
   XY=             -2.9832   XZ=             -0.0000   YZ=              0.0000

 Normal termination of Gaussian 16 at Fri Aug 26 19:50:02 2022.
