 Gaussian 16, Revision A.03,
 Gaussian 16:  ES64L-G16RevA.03 25-Dec-2016

 ------------------
 #p CCSD(T)/cc-pVTZ
 ------------------

 ------------
 H2O_H2O_3076
 ------------
 Symbolic Z-matrix:
 Charge =  0 Multiplicity = 1

                         Standard orientation:
 ---------------------------------------------------------------------
 Center     Atomic      Atomic             Coordinates (Angstroms)
 Number     Number       Type             X           Y           Z
 ---------------------------------------------------------------------
      1          8           0        0.090685   -2.316635    0.000000
      2          1           0        0.090599   -1.334034    0.000000
      3          1           0       -0.838780   -2.635383    0.000000
      4          8           0        0.090685    2.177927    0.000000
      5          1           0        0.154864    3.158431    0.000000
      6          1           0       -0.857638    1.920652    0.000000
 ---------------------------------------------------------------------

 SCF Done:  E(RHF) =  -152.108196814     A.U. after   10 cycles
 E2 =    -0.5260474804D+00 EUMP2 =    -0.15263424429453D+03
 CCSD(T)
 CCSD(T)= -0.15266142695D+03

 The electronic state is 1-A'.
 Alpha  occ. eigenvalues --  -20.56618 -20.55087  -1.33912  -1.32390  -0.71343
 Alpha  occ. eigenvalues --   -0.69771  -0.57384  -0.55843  -0.51022  -0.49504
 Alpha virt. eigenvalues --    0.11649   0.15547   0.19337   0.23061   0.54253
 Alpha virt. eigenvalues --    0.54620   0.56453   0.58120   0.67805   0.68959
 Alpha virt. eigenvalues --    0.77873   0.78482   0.79370   0.81088   0.82625

 Mulliken charges:
               1
     1  O   -0.511080
     2  H    0.260254
     3  H    0.249496
     4  O   -0.508934
     5  H    0.259740
     6  H    0.250524
 Sum of Mulliken charges =   0.00000

 Dipole moment (field-independent basis, Debye):
    X=             -3.0897    Y=              2.4848    Z=              0.0000  Tot=              3.9649
 Quadrupole moment (field-independent basis, Debye-Ang):
   XX=            -10.7118   YY=             -8.9248   ZZ=            -14.7133
   XY=              2.3673   XZ=              0.0000   YZ=              0.0000

 Normal termination of Gaussian 16 at Fri Aug 26 19:38:16 2022.
