 Gaussian 16, Revision A.03,
 Gaussian 16:  ES64L-G16RevA.03 25-Dec-2016

 ------------------
 #p CCSD(T)/cc-pVTZ
 ------------------

 -----------
 H2O_H2O_776
 -----------
 Symbolic Z-matrix:
 Charge =  0 Multiplicity = 1

                         Standard orientation:
 ---------------------------------------------------------------------
 Center     Atomic      Atomic             Coordinates (Angstroms)
 Number     Number       Type             X           Y           Z
 ---------------------------------------------------------------------
      1          8           0        0.090689   -1.399212    0.000000
      2          1           0        0.090544   -0.416611    0.000000
      3          1           0       -0.838757   -1.718015    0.000000
      4          8           0        0.090689    1.260515    0.000000
      5          1           0        0.154810    2.241022    0.000000
      6          1           0       -0.857619    1.003183    0.000000
 ---------------------------------------------------------------------

 SCF Done:  E(RHF) =  -152.102183817     A.U. after   10 cycles
 E2 =    -0.5309679047D+00 EUMP2 =    -0.15263315172170D+03
 CCSD(T)
 CCSD(T)= -0.15265996570D+03

 The electronic state is 1-A'.
 Alpha  occ. eigenvalues --  -20.59219 -20.52595  -1.37244  -1.30308  -0.75844
 Alpha  occ. eigenvalues --   -0.67948  -0.59778  -0.53947  -0.53314  -0.47331
 Alpha virt. eigenvalues --    0.11388   0.16450   0.20756   0.31677   0.48222
 Alpha virt. eigenvalues --    0.52594   0.58606   0.62599   0.68861   0.71376
 Alpha virt. eigenvalues --    0.73929   0.78287   0.79172   0.82580   0.82923

 Mulliken charges:
               1
     1  O   -0.547676
     2  H    0.287816
     3  H    0.224606
     4  O   -0.428400
     5  H    0.234299
     6  H    0.229355
 Sum of Mulliken charges =  -0.00000

 Dipole moment (field-independent basis, Debye):
    X=             -2.9570    Y=              3.0873    Z=              0.0000  Tot=              4.2749
 Quadrupole moment (field-independent basis, Debye-Ang):
   XX=            -10.7529   YY=             -9.2394   ZZ=            -14.6725
   XY=              2.2074   XZ=              0.0000   YZ=              0.0000

 Normal termination of Gaussian 16 at Fri Aug 26 20:26:28 2022.
