 Gaussian 16, Revision A.03,
 Gaussian 16:  ES64L-G16RevA.03 25-Dec-2016

 ------------------
 #p CCSD(T)/cc-pVTZ
 ------------------

 -----------
 H2O_H2O_807
 -----------
 Symbolic Z-matrix:
 Charge =  0 Multiplicity = 1

                         Standard orientation:
 ---------------------------------------------------------------------
 Center     Atomic      Atomic             Coordinates (Angstroms)
 Number     Number       Type             X           Y           Z
 ---------------------------------------------------------------------
      1          8           0        0.073578    1.424489    0.000000
      2          1           0        0.072350    0.441888    0.000000
      3          1           0       -0.855515    1.744318    0.000000
      4          8           0        0.073578   -1.257622   -0.000000
      5          1           0        0.507069   -2.139434   -0.000000
      6          1           0       -0.901158   -1.381705   -0.000000
 ---------------------------------------------------------------------

 SCF Done:  E(RHF) =  -152.108496588     A.U. after   10 cycles
 E2 =    -0.5300264038D+00 EUMP2 =    -0.15263852299191D+03
 CCSD(T)
 CCSD(T)= -0.15266526815D+03

 The electronic state is 1-A'.
 Alpha  occ. eigenvalues --  -20.59256 -20.51419  -1.37049  -1.29236  -0.74603
 Alpha  occ. eigenvalues --   -0.68496  -0.59633  -0.53947  -0.52094  -0.46287
 Alpha virt. eigenvalues --    0.11480   0.17024   0.19889   0.32355   0.48145
 Alpha virt. eigenvalues --    0.54038   0.59190   0.60872   0.69911   0.72281
 Alpha virt. eigenvalues --    0.74114   0.77289   0.80827   0.83054   0.84059

 Mulliken charges:
               1
     1  O   -0.568342
     2  H    0.299123
     3  H    0.229242
     4  O   -0.448781
     5  H    0.243864
     6  H    0.244894
 Sum of Mulliken charges =  -0.00000

 Dipole moment (field-independent basis, Debye):
    X=             -2.3983    Y=             -3.6602    Z=             -0.0000  Tot=              4.3759
 Quadrupole moment (field-independent basis, Debye-Ang):
   XX=             -9.8416   YY=             -8.9930   ZZ=            -14.6982
   XY=             -2.9022   XZ=             -0.0000   YZ=             -0.0000

 Normal termination of Gaussian 16 at Fri Aug 26 20:38:01 2022.
