 Gaussian 16, Revision A.03,
 Gaussian 16:  ES64L-G16RevA.03 25-Dec-2016

 ------------------
 #p CCSD(T)/cc-pVTZ
 ------------------

 ------------
 H2O_H2O_4063
 ------------
 Symbolic Z-matrix:
 Charge =  0 Multiplicity = 1

                         Standard orientation:
 ---------------------------------------------------------------------
 Center     Atomic      Atomic             Coordinates (Angstroms)
 Number     Number       Type             X           Y           Z
 ---------------------------------------------------------------------
      1          8           0        0.052279    2.727925   -0.000000
      2          1           0        0.050970    1.745324   -0.000000
      3          1           0       -0.876789    3.047829   -0.000000
      4          8           0        0.052279   -2.548011    0.000000
      5          1           0        0.790174   -3.196868    0.000000
      6          1           0       -0.800815   -3.035594    0.000000
 ---------------------------------------------------------------------

 SCF Done:  E(RHF) =  -152.108648268     A.U. after   10 cycles
 E2 =    -0.5258227143D+00 EUMP2 =    -0.15263447098210D+03
 CCSD(T)
 CCSD(T)= -0.15266165905D+03

 The electronic state is 1-A'.
 Alpha  occ. eigenvalues --  -20.56278 -20.54840  -1.33577  -1.32149  -0.70981
 Alpha  occ. eigenvalues --   -0.69548  -0.57078  -0.55623  -0.50697  -0.49274
 Alpha virt. eigenvalues --    0.13114   0.15152   0.19642   0.21268   0.53562
 Alpha virt. eigenvalues --    0.54901   0.56590   0.57828   0.66681   0.69055
 Alpha virt. eigenvalues --    0.78196   0.79457   0.79576   0.79760   0.82856

 Mulliken charges:
               1
     1  O   -0.514629
     2  H    0.261463
     3  H    0.252767
     4  O   -0.515198
     5  H    0.259051
     6  H    0.256547
 Sum of Mulliken charges =  -0.00000

 Dipole moment (field-independent basis, Debye):
    X=             -1.7905    Y=             -3.1733    Z=              0.0000  Tot=              3.6436
 Quadrupole moment (field-independent basis, Debye-Ang):
   XX=             -9.2251   YY=             -6.5268   ZZ=            -14.7156
   XY=             -5.1007   XZ=              0.0000   YZ=             -0.0000

 Normal termination of Gaussian 16 at Sat Aug 27 23:05:20 2022.
