 Gaussian 16, Revision A.03,
 Gaussian 16:  ES64L-G16RevA.03 25-Dec-2016

 ------------------
 #p CCSD(T)/cc-pVTZ
 ------------------

 ------------
 H2O_H2O_1541
 ------------
 Symbolic Z-matrix:
 Charge =  0 Multiplicity = 1

                         Standard orientation:
 ---------------------------------------------------------------------
 Center     Atomic      Atomic             Coordinates (Angstroms)
 Number     Number       Type             X           Y           Z
 ---------------------------------------------------------------------
      1          8           0        0.041210    1.720739   -0.000000
      2          1           0        0.038513    0.738141   -0.000000
      3          1           0       -0.887405    2.041954   -0.000000
      4          8           0        0.041210   -1.540877    0.000000
      5          1           0        0.890817   -2.034511    0.000000
      6          1           0       -0.701279   -2.184474    0.000000
 ---------------------------------------------------------------------

 SCF Done:  E(RHF) =  -152.113867768     A.U. after   10 cycles
 E2 =    -0.5270377557D+00 EUMP2 =    -0.15264090552410D+03
 CCSD(T)
 CCSD(T)= -0.15266790855D+03

 The electronic state is 1-A'.
 Alpha  occ. eigenvalues --  -20.57895 -20.52985  -1.35173  -1.30422  -0.72518
 Alpha  occ. eigenvalues --   -0.68044  -0.58994  -0.53779  -0.52307  -0.47575
 Alpha virt. eigenvalues --    0.12106   0.17617   0.18954   0.28802   0.50257
 Alpha virt. eigenvalues --    0.54486   0.56101   0.59708   0.68934   0.72096
 Alpha virt. eigenvalues --    0.74483   0.76902   0.81462   0.83077   0.84796

 Mulliken charges:
               1
     1  O   -0.541635
     2  H    0.276896
     3  H    0.247323
     4  O   -0.506807
     5  H    0.265066
     6  H    0.259157
 Sum of Mulliken charges =  -0.00000

 Dipole moment (field-independent basis, Debye):
    X=             -1.3835    Y=             -3.5139    Z=              0.0000  Tot=              3.7764
 Quadrupole moment (field-independent basis, Debye-Ang):
   XX=             -9.1520   YY=             -8.2393   ZZ=            -14.7352
   XY=             -3.8806   XZ=              0.0000   YZ=             -0.0000

 Normal termination of Gaussian 16 at Sat Aug 27 22:59:46 2022.
