 Gaussian 16, Revision A.03,
 Gaussian 16:  ES64L-G16RevA.03 25-Dec-2016

 ------------------
 #p CCSD(T)/cc-pVTZ
 ------------------

 -----------
 H2O_H2O_361
 -----------
 Symbolic Z-matrix:
 Charge =  0 Multiplicity = 1

                         Standard orientation:
 ---------------------------------------------------------------------
 Center     Atomic      Atomic             Coordinates (Angstroms)
 Number     Number       Type             X           Y           Z
 ---------------------------------------------------------------------
      1          8           0        0.059748    1.250668   -0.000000
      2          1           0        0.057315    0.268070   -0.000000
      3          1           0       -0.868954    1.571635   -0.000000
      4          8           0        0.059748   -1.073367    0.000000
      5          1           0        0.705792   -1.813727    0.000000
      6          1           0       -0.850115   -1.444386    0.000000
 ---------------------------------------------------------------------

 SCF Done:  E(RHF) =  -152.088773214     A.U. after   11 cycles
 E2 =    -0.5331994487D+00 EUMP2 =    -0.15262197266228D+03
 CCSD(T)
 CCSD(T)= -0.15264811259D+03

 The electronic state is 1-A'.
 Alpha  occ. eigenvalues --  -20.60767 -20.47740  -1.39909  -1.26615  -0.76535
 Alpha  occ. eigenvalues --   -0.72743  -0.57463  -0.56187  -0.48277  -0.43452
 Alpha virt. eigenvalues --    0.10960   0.16965   0.20404   0.33283   0.47826
 Alpha virt. eigenvalues --    0.53032   0.61649   0.63452   0.71606   0.72037
 Alpha virt. eigenvalues --    0.76108   0.79549   0.79977   0.82962   0.84022

 Mulliken charges:
               1
     1  O   -0.623027
     2  H    0.307464
     3  H    0.215785
     4  O   -0.395543
     5  H    0.249470
     6  H    0.245850
 Sum of Mulliken charges =  -0.00000

 Dipole moment (field-independent basis, Debye):
    X=             -1.8769    Y=             -4.4476    Z=              0.0000  Tot=              4.8274
 Quadrupole moment (field-independent basis, Debye-Ang):
   XX=             -9.3483   YY=             -9.6380   ZZ=            -14.6405
   XY=             -2.8710   XZ=              0.0000   YZ=             -0.0000

 Normal termination of Gaussian 16 at Fri Aug 26 17:41:55 2022.
