 Gaussian 16, Revision A.03,
 Gaussian 16:  ES64L-G16RevA.03 25-Dec-2016

 ------------------
 #p CCSD(T)/cc-pVTZ
 ------------------

 -----------
 H2O_H2O_388
 -----------
 Symbolic Z-matrix:
 Charge =  0 Multiplicity = 1

                         Standard orientation:
 ---------------------------------------------------------------------
 Center     Atomic      Atomic             Coordinates (Angstroms)
 Number     Number       Type             X           Y           Z
 ---------------------------------------------------------------------
      1          8           0        0.052428    1.261966   -0.000000
      2          1           0        0.049484    0.279369   -0.000000
      3          1           0       -0.876106    1.583416    0.000000
      4          8           0        0.052428   -1.082227   -0.000000
      5          1           0        0.789243   -1.732312   -0.000000
      6          1           0       -0.801476   -1.568389    0.000000
 ---------------------------------------------------------------------

 SCF Done:  E(RHF) =  -152.091741068     A.U. after   11 cycles
 E2 =    -0.5327610355D+00 EUMP2 =    -0.15262450210332D+03
 CCSD(T)
 CCSD(T)= -0.15265068161D+03

 The electronic state is 1-A'.
 Alpha  occ. eigenvalues --  -20.60675 -20.47771  -1.39656  -1.26607  -0.75964
 Alpha  occ. eigenvalues --   -0.72828  -0.57616  -0.56033  -0.48299  -0.43461
 Alpha virt. eigenvalues --    0.11026   0.17205   0.20233   0.33461   0.47427
 Alpha virt. eigenvalues --    0.53191   0.62152   0.63555   0.70935   0.72101
 Alpha virt. eigenvalues --    0.75838   0.79338   0.80722   0.82354   0.83929

 Mulliken charges:
               1
     1  O   -0.625736
     2  H    0.311330
     3  H    0.219386
     4  O   -0.408240
     5  H    0.255491
     6  H    0.247768
 Sum of Mulliken charges =  -0.00000

 Dipole moment (field-independent basis, Debye):
    X=             -1.6524    Y=             -4.4688    Z=             -0.0000  Tot=              4.7646
 Quadrupole moment (field-independent basis, Debye-Ang):
   XX=             -9.2029   YY=             -9.6212   ZZ=            -14.6502
   XY=             -2.9283   XZ=             -0.0000   YZ=             -0.0000

 Normal termination of Gaussian 16 at Fri Aug 26 17:53:01 2022.
