 Gaussian 16, Revision A.03,
 Gaussian 16:  ES64L-G16RevA.03 25-Dec-2016

 ------------------
 #p CCSD(T)/cc-pVTZ
 ------------------

 ------------
 H2O_H2O_1109
 ------------
 Symbolic Z-matrix:
 Charge =  0 Multiplicity = 1

                         Standard orientation:
 ---------------------------------------------------------------------
 Center     Atomic      Atomic             Coordinates (Angstroms)
 Number     Number       Type             X           Y           Z
 ---------------------------------------------------------------------
      1          8           0        0.066808    1.547501   -0.000000
      2          1           0        0.065286    0.564901   -0.000000
      3          1           0       -0.862191    1.867606   -0.000000
      4          8           0        0.066808   -1.374470    0.000000
      5          1           0        0.611447   -2.192319    0.000000
      6          1           0       -0.883467   -1.624436    0.000000
 ---------------------------------------------------------------------

 SCF Done:  E(RHF) =  -152.112672938     A.U. after   10 cycles
 E2 =    -0.5283893108D+00 EUMP2 =    -0.15264106224846D+03
 CCSD(T)
 CCSD(T)= -0.15266796694D+03

 The electronic state is 1-A'.
 Alpha  occ. eigenvalues --  -20.58599 -20.52274  -1.36045  -1.29859  -0.73422
 Alpha  occ. eigenvalues --   -0.68065  -0.59574  -0.53105  -0.52994  -0.46968
 Alpha virt. eigenvalues --    0.11739   0.17312   0.19423   0.31076   0.48464
 Alpha virt. eigenvalues --    0.54737   0.58012   0.59352   0.69805   0.72922
 Alpha virt. eigenvalues --    0.73252   0.76679   0.82096   0.82351   0.84488

 Mulliken charges:
               1
     1  O   -0.553313
     2  H    0.291265
     3  H    0.237241
     4  O   -0.484201
     5  H    0.255889
     6  H    0.253119
 Sum of Mulliken charges =  -0.00000

 Dipole moment (field-independent basis, Debye):
    X=             -2.2100    Y=             -3.5713    Z=              0.0000  Tot=              4.1998
 Quadrupole moment (field-independent basis, Debye-Ang):
   XX=             -9.5849   YY=             -8.6740   ZZ=            -14.7236
   XY=             -3.1757   XZ=              0.0000   YZ=             -0.0000

 Normal termination of Gaussian 16 at Fri Aug 26 22:31:10 2022.
