 Gaussian 16, Revision A.03,
 Gaussian 16:  ES64L-G16RevA.03 25-Dec-2016

 ------------------
 #p CCSD(T)/cc-pVTZ
 ------------------

 ------------
 H2O_H2O_4737
 ------------
 Symbolic Z-matrix:
 Charge =  0 Multiplicity = 1

                         Standard orientation:
 ---------------------------------------------------------------------
 Center     Atomic      Atomic             Coordinates (Angstroms)
 Number     Number       Type             X           Y           Z
 ---------------------------------------------------------------------
      1          8           0        0.055962    2.996639   -0.000000
      2          1           0        0.054883    2.014038   -0.000000
      3          1           0       -0.873181    3.316326   -0.000000
      4          8           0        0.055962   -2.817696    0.000000
      5          1           0        0.750002   -3.513262    0.000000
      6          1           0       -0.827095   -3.248646    0.000000
 ---------------------------------------------------------------------

 SCF Done:  E(RHF) =  -152.108253311     A.U. after   10 cycles
 E2 =    -0.5258136263D+00 EUMP2 =    -0.15263406693709D+03
 CCSD(T)
 CCSD(T)= -0.15266126859D+03

 The electronic state is 1-A'.
 Alpha  occ. eigenvalues --  -20.56148 -20.55006  -1.33450  -1.32312  -0.70855
 Alpha  occ. eigenvalues --   -0.69713  -0.56936  -0.55780  -0.50568  -0.49434
 Alpha virt. eigenvalues --    0.13451   0.14823   0.19706   0.20950   0.53682
 Alpha virt. eigenvalues --    0.54822   0.56686   0.57772   0.66967   0.68607
 Alpha virt. eigenvalues --    0.78317   0.79426   0.79698   0.80387   0.82438

 Mulliken charges:
               1
     1  O   -0.513066
     2  H    0.259871
     3  H    0.253130
     4  O   -0.513830
     5  H    0.258073
     6  H    0.255822
 Sum of Mulliken charges =  -0.00000

 Dipole moment (field-independent basis, Debye):
    X=             -1.9202    Y=             -3.1353    Z=              0.0000  Tot=              3.6766
 Quadrupole moment (field-independent basis, Debye-Ang):
   XX=             -9.2850   YY=             -6.1524   ZZ=            -14.7143
   XY=             -5.2441   XZ=              0.0000   YZ=             -0.0000

 7353\MP4DQ=-152.6431899\MP4SDQ=-152.6462379\CCSD=-152.6456532\CCSD(T)=
 Normal termination of Gaussian 16 at Sun Aug 28 05:29:24 2022.
