 Gaussian 16, Revision A.03,
 Gaussian 16:  ES64L-G16RevA.03 25-Dec-2016

 ------------------
 #p CCSD(T)/cc-pVTZ
 ------------------

 ------------
 H2O_H2O_3699
 ------------
 Symbolic Z-matrix:
 Charge =  0 Multiplicity = 1

                         Standard orientation:
 ---------------------------------------------------------------------
 Center     Atomic      Atomic             Coordinates (Angstroms)
 Number     Number       Type             X           Y           Z
 ---------------------------------------------------------------------
      1          8           0       -0.013497    2.567139    0.000000
      2          1           0       -0.010788    1.584541    0.000000
      3          1           0        0.915113    2.888367    0.000000
      4          8           0       -0.013497   -2.407870    0.000000
      5          1           0       -0.996096   -2.410579    0.000000
      6          1           0        0.307731   -3.336481    0.000000
 ---------------------------------------------------------------------

 SCF Done:  E(RHF) =  -152.108919496     A.U. after   10 cycles
 E2 =    -0.5258282647D+00 EUMP2 =    -0.15263474776033D+03
 CCSD(T)
 CCSD(T)= -0.15266192743D+03

 The electronic state is 1-A'.
 Alpha  occ. eigenvalues --  -20.56361 -20.54916  -1.33660  -1.32227  -0.71068
 Alpha  occ. eigenvalues --   -0.69635  -0.57169  -0.55709  -0.50782  -0.49356
 Alpha virt. eigenvalues --    0.12589   0.15358   0.19195   0.22103   0.53226
 Alpha virt. eigenvalues --    0.55280   0.56582   0.57889   0.66781   0.69135
 Alpha virt. eigenvalues --    0.78115   0.78808   0.79492   0.80831   0.82819

 Mulliken charges:
               1
     1  O   -0.516343
     2  H    0.260571
     3  H    0.255067
     4  O   -0.515885
     5  H    0.257555
     6  H    0.259036
 Sum of Mulliken charges =  -0.00000

 Dipole moment (field-independent basis, Debye):
    X=              0.4648    Y=             -2.8205    Z=              0.0000  Tot=              2.8585
 Quadrupole moment (field-independent basis, Debye-Ang):
   XX=             -9.6478   YY=             -7.7479   ZZ=            -14.7164
   XY=              6.9483   XZ=              0.0000   YZ=              0.0000

 Normal termination of Gaussian 16 at Fri Aug 26 23:11:01 2022.
