 Gaussian 16, Revision A.03,
 Gaussian 16:  ES64L-G16RevA.03 25-Dec-2016

 ------------------
 #p CCSD(T)/cc-pVTZ
 ------------------

 ------------
 H2O_H2O_1332
 ------------
 Symbolic Z-matrix:
 Charge =  0 Multiplicity = 1

                         Standard orientation:
 ---------------------------------------------------------------------
 Center     Atomic      Atomic             Coordinates (Angstroms)
 Number     Number       Type             X           Y           Z
 ---------------------------------------------------------------------
      1          8           0        0.073564    1.633912   -0.000000
      2          1           0        0.072502    0.651311   -0.000000
      3          1           0       -0.855584    1.953584   -0.000000
      4          8           0        0.073564   -1.467021    0.000000
      5          1           0        0.507205   -2.348759    0.000000
      6          1           0       -0.901151   -1.591267   -0.000000
 ---------------------------------------------------------------------

 SCF Done:  E(RHF) =  -152.112324192     A.U. after   10 cycles
 E2 =    -0.5277224628D+00 EUMP2 =    -0.15264004665444D+03
 CCSD(T)
 CCSD(T)= -0.15266703496D+03

 The electronic state is 1-A'.
 Alpha  occ. eigenvalues --  -20.58180 -20.53083  -1.35536  -1.30543  -0.73001
 Alpha  occ. eigenvalues --   -0.68200  -0.59205  -0.53825  -0.52623  -0.47664
 Alpha virt. eigenvalues --    0.11771   0.17004   0.19548   0.29524   0.49051
 Alpha virt. eigenvalues --    0.54966   0.57582   0.58757   0.69717   0.73576
 Alpha virt. eigenvalues --    0.74065   0.76577   0.81548   0.82493   0.84220

 Mulliken charges:
               1
     1  O   -0.539046
     2  H    0.281408
     3  H    0.239488
     4  O   -0.488299
     5  H    0.254181
     6  H    0.252267
 Sum of Mulliken charges =  -0.00000

 Dipole moment (field-independent basis, Debye):
    X=             -2.4508    Y=             -3.3305    Z=              0.0000  Tot=              4.1350
 Quadrupole moment (field-independent basis, Debye-Ang):
   XX=             -9.8427   YY=             -8.5490   ZZ=            -14.7253
   XY=             -3.0796   XZ=              0.0000   YZ=             -0.0000

 CCSD(T)=-152.667035\RMSD=7.117e-09\PG=CS [SG(H4O2)]\\@
 Normal termination of Gaussian 16 at Fri Aug 26 23:54:46 2022.
