 Gaussian 16, Revision A.03,
 Gaussian 16:  ES64L-G16RevA.03 25-Dec-2016

 ------------------
 #p CCSD(T)/cc-pVTZ
 ------------------

 -----------
 H2O_H2O_865
 -----------
 Symbolic Z-matrix:
 Charge =  0 Multiplicity = 1

                         Standard orientation:
 ---------------------------------------------------------------------
 Center     Atomic      Atomic             Coordinates (Angstroms)
 Number     Number       Type             X           Y           Z
 ---------------------------------------------------------------------
      1          8           0        0.044968    1.451732    0.000000
      2          1           0        0.041970    0.469135    0.000000
      3          1           0       -0.883549    1.773233    0.000000
      4          8           0        0.044968   -1.271441   -0.000000
      5          1           0        0.860302   -1.819835   -0.000000
      6          1           0       -0.738207   -1.864858   -0.000000
 ---------------------------------------------------------------------

 SCF Done:  E(RHF) =  -152.111951456     A.U. after   10 cycles
 E2 =    -0.5292783057D+00 EUMP2 =    -0.15264122976158D+03
 CCSD(T)
 CCSD(T)= -0.15266797945D+03

 The electronic state is 1-A'.
 Alpha  occ. eigenvalues --  -20.59165 -20.50923  -1.36819  -1.28772  -0.73908
 Alpha  occ. eigenvalues --   -0.68548  -0.59683  -0.53816  -0.51592  -0.45854
 Alpha virt. eigenvalues --    0.11710   0.18064   0.19084   0.32653   0.48085
 Alpha virt. eigenvalues --    0.54456   0.57804   0.61831   0.69318   0.71778
 Alpha virt. eigenvalues --    0.72537   0.77773   0.82139   0.82868   0.84662

 Mulliken charges:
               1
     1  O   -0.580362
     2  H    0.304921
     3  H    0.237716
     4  O   -0.483555
     5  H    0.265200
     6  H    0.256081
 Sum of Mulliken charges =  -0.00000

 Dipole moment (field-independent basis, Debye):
    X=             -1.4738    Y=             -3.9109    Z=             -0.0000  Tot=              4.1794
 Quadrupole moment (field-independent basis, Debye-Ang):
   XX=             -9.1496   YY=             -8.9310   ZZ=            -14.7176
   XY=             -3.3323   XZ=             -0.0000   YZ=             -0.0000

 Normal termination of Gaussian 16 at Fri Aug 26 20:59:19 2022.
