 Gaussian 16, Revision A.03,
 Gaussian 16:  ES64L-G16RevA.03 25-Dec-2016

 ------------------
 #p CCSD(T)/cc-pVTZ
 ------------------

 ------------
 H2O_H2O_1308
 ------------
 Symbolic Z-matrix:
 Charge =  0 Multiplicity = 1

                         Standard orientation:
 ---------------------------------------------------------------------
 Center     Atomic      Atomic             Coordinates (Angstroms)
 Number     Number       Type             X           Y           Z
 ---------------------------------------------------------------------
      1          8           0        0.070233    1.625731   -0.000000
      2          1           0        0.068980    0.643130   -0.000000
      3          1           0       -0.858853    1.945583   -0.000000
      4          8           0        0.070233   -1.455543    0.000000
      5          1           0        0.560448   -2.307127    0.000000
      6          1           0       -0.894305   -1.643087    0.000000
 ---------------------------------------------------------------------

 SCF Done:  E(RHF) =  -152.112700958     A.U. after   10 cycles
 E2 =    -0.5277537817D+00 EUMP2 =    -0.15264045473955D+03
 CCSD(T)
 CCSD(T)= -0.15266743043D+03

 The electronic state is 1-A'.
 Alpha  occ. eigenvalues --  -20.58229 -20.52911  -1.35585  -1.30389  -0.73012
 Alpha  occ. eigenvalues --   -0.68125  -0.59271  -0.53655  -0.52676  -0.47513
 Alpha virt. eigenvalues --    0.11799   0.17129   0.19447   0.29780   0.48959
 Alpha virt. eigenvalues --    0.54953   0.57445   0.58941   0.69790   0.73520
 Alpha virt. eigenvalues --    0.73648   0.76512   0.81673   0.82545   0.84372

 Mulliken charges:
               1
     1  O   -0.541684
     2  H    0.282854
     3  H    0.239684
     4  O   -0.490615
     5  H    0.256355
     6  H    0.253407
 Sum of Mulliken charges =  -0.00000

 Dipole moment (field-independent basis, Debye):
    X=             -2.3387    Y=             -3.4083    Z=              0.0000  Tot=              4.1336
 Quadrupole moment (field-independent basis, Debye-Ang):
   XX=             -9.7082   YY=             -8.5291   ZZ=            -14.7270
   XY=             -3.1694   XZ=              0.0000   YZ=             -0.0000

 Normal termination of Gaussian 16 at Fri Aug 26 23:44:59 2022.
