 Gaussian 16, Revision A.03,
 Gaussian 16:  ES64L-G16RevA.03 25-Dec-2016

 ------------------
 #p CCSD(T)/cc-pVTZ
 ------------------

 -----------
 H2O_H2O_497
 -----------
 Symbolic Z-matrix:
 Charge =  0 Multiplicity = 1

                         Standard orientation:
 ---------------------------------------------------------------------
 Center     Atomic      Atomic             Coordinates (Angstroms)
 Number     Number       Type             X           Y           Z
 ---------------------------------------------------------------------
      1          8           0       -0.020063    1.294946    0.000000
      2          1           0       -0.014944    0.312358    0.000000
      3          1           0        0.907757    1.618452    0.000000
      4          8           0       -0.020063   -1.127940    0.000000
      5          1           0       -0.993577   -1.261269    0.000000
      6          1           0        0.421779   -2.005596    0.000000
 ---------------------------------------------------------------------

 SCF Done:  E(RHF) =  -152.097617969     A.U. after   11 cycles
 E2 =    -0.5319458479D+00 EUMP2 =    -0.15262956381733D+03
 CCSD(T)
 CCSD(T)= -0.15265592414D+03

 The electronic state is 1-A'.
 Alpha  occ. eigenvalues --  -20.60127 -20.49063  -1.38800  -1.27523  -0.76538
 Alpha  occ. eigenvalues --   -0.69767  -0.59104  -0.55301  -0.49533  -0.44494
 Alpha virt. eigenvalues --    0.11452   0.17951   0.19632   0.33991   0.47622
 Alpha virt. eigenvalues --    0.53367   0.58694   0.68306   0.69889   0.72149
 Alpha virt. eigenvalues --    0.74492   0.76925   0.79185   0.83853   0.84283

 Mulliken charges:
               1
     1  O   -0.619469
     2  H    0.298626
     3  H    0.238625
     4  O   -0.413044
     5  H    0.259774
     6  H    0.235488
 Sum of Mulliken charges =  -0.00000

 Dipole moment (field-independent basis, Debye):
    X=              0.6510    Y=             -4.0403    Z=              0.0000  Tot=              4.0924
 Quadrupole moment (field-independent basis, Debye-Ang):
   XX=             -9.3950   YY=             -9.4026   ZZ=            -14.6618
   XY=              3.2736   XZ=              0.0000   YZ=              0.0000

 Normal termination of Gaussian 16 at Fri Aug 26 18:39:29 2022.
