 Gaussian 16, Revision A.03,
 Gaussian 16:  ES64L-G16RevA.03 25-Dec-2016

 ------------------
 #p CCSD(T)/cc-pVTZ
 ------------------

 ------------
 H2O_H2O_1176
 ------------
 Symbolic Z-matrix:
 Charge =  0 Multiplicity = 1

                         Standard orientation:
 ---------------------------------------------------------------------
 Center     Atomic      Atomic             Coordinates (Angstroms)
 Number     Number       Type             X           Y           Z
 ---------------------------------------------------------------------
      1          8           0        0.090688   -1.558764    0.000000
      2          1           0        0.090559   -0.576163    0.000000
      3          1           0       -0.838763   -1.877553    0.000000
      4          8           0        0.090688    1.420064    0.000000
      5          1           0        0.154824    2.400571    0.000000
      6          1           0       -0.857623    1.162748    0.000000
 ---------------------------------------------------------------------

 SCF Done:  E(RHF) =  -152.108352036     A.U. after   10 cycles
 E2 =    -0.5286896627D+00 EUMP2 =    -0.15263704169856D+03
 CCSD(T)
 CCSD(T)= -0.15266406264D+03

 The electronic state is 1-A'.
 Alpha  occ. eigenvalues --  -20.58367 -20.53778  -1.35871  -1.31226  -0.73864
 Alpha  occ. eigenvalues --   -0.68469  -0.59260  -0.54490  -0.52853  -0.48304
 Alpha virt. eigenvalues --    0.11495   0.16431   0.20499   0.29675   0.48748
 Alpha virt. eigenvalues --    0.53663   0.58034   0.59528   0.68139   0.72394
 Alpha virt. eigenvalues --    0.74190   0.77967   0.80814   0.81429   0.83248

 Mulliken charges:
               1
     1  O   -0.530125
     2  H    0.279649
     3  H    0.234613
     4  O   -0.461024
     5  H    0.239895
     6  H    0.236993
 Sum of Mulliken charges =  -0.00000

 Dipole moment (field-independent basis, Debye):
    X=             -3.0028    Y=              2.8284    Z=              0.0000  Tot=              4.1251
 Quadrupole moment (field-independent basis, Debye-Ang):
   XX=            -10.7575   YY=             -9.0661   ZZ=            -14.7027
   XY=              2.2604   XZ=              0.0000   YZ=              0.0000

 Normal termination of Gaussian 16 at Fri Aug 26 22:55:07 2022.
