 Gaussian 16, Revision A.03,
 Gaussian 16:  ES64L-G16RevA.03 25-Dec-2016

 ------------------
 #p CCSD(T)/cc-pVTZ
 ------------------

 ------------
 H2O_H2O_4517
 ------------
 Symbolic Z-matrix:
 Charge =  0 Multiplicity = 1

                         Standard orientation:
 ---------------------------------------------------------------------
 Center     Atomic      Atomic             Coordinates (Angstroms)
 Number     Number       Type             X           Y           Z
 ---------------------------------------------------------------------
      1          8           0        0.037409    2.906922   -0.000000
      2          1           0        0.035737    1.924322   -0.000000
      3          1           0       -0.891540    3.227170   -0.000000
      4          8           0        0.037409   -2.727927    0.000000
      5          1           0        0.917937   -3.164019    0.000000
      6          1           0       -0.660677   -3.419434    0.000000
 ---------------------------------------------------------------------

 SCF Done:  E(RHF) =  -152.108464340     A.U. after   10 cycles
 E2 =    -0.5258023459D+00 EUMP2 =    -0.15263426668594D+03
 CCSD(T)
 CCSD(T)= -0.15266146310D+03

 The electronic state is 1-A'.
 Alpha  occ. eigenvalues --  -20.56180 -20.54950  -1.33481  -1.32258  -0.70885
 Alpha  occ. eigenvalues --   -0.69660  -0.56977  -0.55730  -0.50600  -0.49382
 Alpha virt. eigenvalues --    0.13372   0.14935   0.19692   0.21055   0.53645
 Alpha virt. eigenvalues --    0.54859   0.56673   0.57801   0.66840   0.68744
 Alpha virt. eigenvalues --    0.78285   0.79474   0.79636   0.80208   0.82661

 Mulliken charges:
               1
     1  O   -0.514233
     2  H    0.260373
     3  H    0.253735
     4  O   -0.514887
     5  H    0.257996
     6  H    0.257016
 Sum of Mulliken charges =  -0.00000

 Dipole moment (field-independent basis, Debye):
    X=             -1.2833    Y=             -3.1415    Z=              0.0000  Tot=              3.3935
 Quadrupole moment (field-independent basis, Debye-Ang):
   XX=             -9.1596   YY=             -6.2839   ZZ=            -14.7150
   XY=             -6.2400   XZ=              0.0000   YZ=             -0.0000

 Normal termination of Gaussian 16 at Sun Aug 28 03:31:39 2022.
