 Gaussian 16, Revision A.03,
 Gaussian 16:  ES64L-G16RevA.03 25-Dec-2016

 ------------------
 #p CCSD(T)/cc-pVTZ
 ------------------

 ------------
 H2O_H2O_1874
 ------------
 Symbolic Z-matrix:
 Charge =  0 Multiplicity = 1

                         Standard orientation:
 ---------------------------------------------------------------------
 Center     Atomic      Atomic             Coordinates (Angstroms)
 Number     Number       Type             X           Y           Z
 ---------------------------------------------------------------------
      1          8           0       -0.013588    1.839177    0.000000
      2          1           0       -0.009758    0.856583    0.000000
      3          1           0        0.914655    2.161464    0.000000
      4          8           0       -0.013588   -1.679939    0.000000
      5          1           0       -0.996182   -1.683769    0.000000
      6          1           0        0.308700   -2.608183    0.000000
 ---------------------------------------------------------------------

 SCF Done:  E(RHF) =  -152.112114637     A.U. after   10 cycles
 E2 =    -0.5265284299D+00 EUMP2 =    -0.15263864306727D+03
 CCSD(T)
 CCSD(T)= -0.15266571036D+03

 The electronic state is 1-A'.
 Alpha  occ. eigenvalues --  -20.57413 -20.53920  -1.34699  -1.31285  -0.72152
 Alpha  occ. eigenvalues --   -0.68716  -0.58391  -0.54726  -0.51824  -0.48439
 Alpha virt. eigenvalues --    0.12173   0.17016   0.19265   0.26918   0.52363
 Alpha virt. eigenvalues --    0.54475   0.55876   0.59440   0.68749   0.73583
 Alpha virt. eigenvalues --    0.75697   0.78299   0.80613   0.83242   0.84105

 Mulliken charges:
               1
     1  O   -0.533073
     2  H    0.267868
     3  H    0.254517
     4  O   -0.507946
     5  H    0.261141
     6  H    0.257491
 Sum of Mulliken charges =  -0.00000

 Dipole moment (field-independent basis, Debye):
    X=              0.4695    Y=             -3.0155    Z=              0.0000  Tot=              3.0518
 Quadrupole moment (field-independent basis, Debye-Ang):
   XX=             -9.6503   YY=             -8.3976   ZZ=            -14.7273
   XY=              4.9556   XZ=              0.0000   YZ=              0.0000

 Normal termination of Gaussian 16 at Sun Aug 28 02:21:35 2022.
