 Gaussian 16, Revision A.03,
 Gaussian 16:  ES64L-G16RevA.03 25-Dec-2016

 ------------------
 #p CCSD(T)/cc-pVTZ
 ------------------

 ------------
 H2O_H2O_1326
 ------------
 Symbolic Z-matrix:
 Charge =  0 Multiplicity = 1

                         Standard orientation:
 ---------------------------------------------------------------------
 Center     Atomic      Atomic             Coordinates (Angstroms)
 Number     Number       Type             X           Y           Z
 ---------------------------------------------------------------------
      1          8           0        0.090687   -1.618597    0.000000
      2          1           0        0.090563   -0.635995    0.000000
      3          1           0       -0.838765   -1.937381    0.000000
      4          8           0        0.090687    1.479896    0.000000
      5          1           0        0.154829    2.460402    0.000000
      6          1           0       -0.857625    1.222583    0.000000
 ---------------------------------------------------------------------

 SCF Done:  E(RHF) =  -152.109054296     A.U. after   10 cycles
 E2 =    -0.5281226803D+00 EUMP2 =    -0.15263717697634D+03
 CCSD(T)
 CCSD(T)= -0.15266423358D+03

 The electronic state is 1-A'.
 Alpha  occ. eigenvalues --  -20.58118 -20.54048  -1.35538  -1.31448  -0.73383
 Alpha  occ. eigenvalues --   -0.68683  -0.59009  -0.54764  -0.52563  -0.48538
 Alpha virt. eigenvalues --    0.11510   0.16401   0.20428   0.28818   0.49226
 Alpha virt. eigenvalues --    0.54059   0.57848   0.58784   0.68066   0.73023
 Alpha virt. eigenvalues --    0.74332   0.77879   0.80873   0.81527   0.83337

 Mulliken charges:
               1
     1  O   -0.525959
     2  H    0.276318
     3  H    0.237187
     4  O   -0.472055
     5  H    0.244512
     6  H    0.239997
 Sum of Mulliken charges =   0.00000

 Dipole moment (field-independent basis, Debye):
    X=             -3.0159    Y=              2.7638    Z=              0.0000  Tot=              4.0908
 Quadrupole moment (field-independent basis, Debye-Ang):
   XX=            -10.7550   YY=             -9.0284   ZZ=            -14.7083
   XY=              2.2748   XZ=              0.0000   YZ=              0.0000

 Normal termination of Gaussian 16 at Fri Aug 26 23:52:29 2022.
