 Gaussian 16, Revision A.03,
 Gaussian 16:  ES64L-G16RevA.03 25-Dec-2016

 ------------------
 #p CCSD(T)/cc-pVTZ
 ------------------

 ------------
 H2O_H2O_1570
 ------------
 Symbolic Z-matrix:
 Charge =  0 Multiplicity = 1

                         Standard orientation:
 ---------------------------------------------------------------------
 Center     Atomic      Atomic             Coordinates (Angstroms)
 Number     Number       Type             X           Y           Z
 ---------------------------------------------------------------------
      1          8           0        0.026740    1.727081    0.000000
      2          1           0        0.023310    0.744486    0.000000
      3          1           0       -0.901635    2.048990    0.000000
      4          8           0        0.026740   -1.553907   -0.000000
      5          1           0        0.974967   -1.811534   -0.000000
      6          1           0       -0.524482   -2.367333   -0.000000
 ---------------------------------------------------------------------

 SCF Done:  E(RHF) =  -152.113594392     A.U. after   10 cycles
 E2 =    -0.5269532802D+00 EUMP2 =    -0.15264054767182D+03
 CCSD(T)
 CCSD(T)= -0.15266755976D+03

 The electronic state is 1-A'.
 Alpha  occ. eigenvalues --  -20.57820 -20.53173  -1.35110  -1.30599  -0.72502
 Alpha  occ. eigenvalues --   -0.68169  -0.58924  -0.53967  -0.52239  -0.47756
 Alpha virt. eigenvalues --    0.12161   0.17577   0.19004   0.28576   0.50810
 Alpha virt. eigenvalues --    0.54281   0.55964   0.60091   0.68930   0.73006
 Alpha virt. eigenvalues --    0.74554   0.77205   0.81320   0.83051   0.84499

 Mulliken charges:
               1
     1  O   -0.541815
     2  H    0.274787
     3  H    0.250636
     4  O   -0.505403
     5  H    0.264075
     6  H    0.257719
 Sum of Mulliken charges =  -0.00000

 Dipole moment (field-independent basis, Debye):
    X=             -0.9027    Y=             -3.3727    Z=             -0.0000  Tot=              3.4915
 Quadrupole moment (field-independent basis, Debye-Ang):
   XX=             -9.2888   YY=             -8.3044   ZZ=            -14.7334
   XY=             -4.2105   XZ=             -0.0000   YZ=             -0.0000

 568987\MP4DQ=-152.6492785\MP4SDQ=-152.65238\CCSD=-152.6517612\CCSD(T)=
 Normal termination of Gaussian 16 at Sat Aug 27 23:23:06 2022.
