 Gaussian 16, Revision A.03,
 Gaussian 16:  ES64L-G16RevA.03 25-Dec-2016

 ------------------
 #p CCSD(T)/cc-pVTZ
 ------------------

 -----------
 H2O_H2O_240
 -----------
 Symbolic Z-matrix:
 Charge =  0 Multiplicity = 1

                         Standard orientation:
 ---------------------------------------------------------------------
 Center     Atomic      Atomic             Coordinates (Angstroms)
 Number     Number       Type             X           Y           Z
 ---------------------------------------------------------------------
      1          8           0        0.045029    1.202404    0.000000
      2          1           0        0.041359    0.219810    0.000000
      3          1           0       -0.883267    1.524540    0.000000
      4          8           0        0.045029   -1.022175   -0.000000
      5          1           0        0.859988   -1.571127   -0.000000
      6          1           0       -0.738551   -1.615056   -0.000000
 ---------------------------------------------------------------------

 SCF Done:  E(RHF) =  -152.075176195     A.U. after   11 cycles
 E2 =    -0.5340245809D+00 EUMP2 =    -0.15260920077598D+03
 CCSD(T)
 CCSD(T)= -0.15263510144D+03

 The electronic state is 1-A'.
 Alpha  occ. eigenvalues --  -20.61288 -20.46125  -1.41219  -1.25574  -0.76852
 Alpha  occ. eigenvalues --   -0.75354  -0.57105  -0.56367  -0.46528  -0.42284
 Alpha virt. eigenvalues --    0.10751   0.16988   0.20601   0.33438   0.46963
 Alpha virt. eigenvalues --    0.52684   0.62522   0.65343   0.70483   0.71678
 Alpha virt. eigenvalues --    0.78449   0.80108   0.80306   0.82103   0.84483

 Mulliken charges:
               1
     1  O   -0.648513
     2  H    0.304423
     3  H    0.214295
     4  O   -0.371701
     5  H    0.256841
     6  H    0.244655
 Sum of Mulliken charges =  -0.00000

 Dipole moment (field-independent basis, Debye):
    X=             -1.3948    Y=             -4.7465    Z=             -0.0000  Tot=              4.9472
 Quadrupole moment (field-independent basis, Debye-Ang):
   XX=             -9.1130   YY=             -9.9010   ZZ=            -14.6148
   XY=             -2.8260   XZ=             -0.0000   YZ=             -0.0000

 Normal termination of Gaussian 16 at Fri Aug 26 16:50:35 2022.
