 Gaussian 16, Revision A.03,
 Gaussian 16:  ES64L-G16RevA.03 25-Dec-2016

 ------------------
 #p CCSD(T)/cc-pVTZ
 ------------------

 ------------
 H2O_H2O_3132
 ------------
 Symbolic Z-matrix:
 Charge =  0 Multiplicity = 1

                         Standard orientation:
 ---------------------------------------------------------------------
 Center     Atomic      Atomic             Coordinates (Angstroms)
 Number     Number       Type             X           Y           Z
 ---------------------------------------------------------------------
      1          8           0        0.073536    2.351916   -0.000000
      2          1           0        0.072809    1.369315   -0.000000
      3          1           0       -0.855722    2.671269    0.000000
      4          8           0        0.073536   -2.184974   -0.000000
      5          1           0        0.507478   -3.066563   -0.000000
      6          1           0       -0.901136   -2.309555    0.000000
 ---------------------------------------------------------------------

 SCF Done:  E(RHF) =  -152.109070033     A.U. after   10 cycles
 E2 =    -0.5259651957D+00 EUMP2 =    -0.15263503522913D+03
 CCSD(T)
 CCSD(T)= -0.15266219672D+03

 The electronic state is 1-A'.
 Alpha  occ. eigenvalues --  -20.56594 -20.54700  -1.33881  -1.32013  -0.71293
 Alpha  occ. eigenvalues --   -0.69400  -0.57389  -0.55485  -0.51001  -0.49139
 Alpha virt. eigenvalues --    0.12273   0.15697   0.19425   0.22423   0.53591
 Alpha virt. eigenvalues --    0.55156   0.56348   0.58372   0.67709   0.69295
 Alpha virt. eigenvalues --    0.77901   0.78753   0.79706   0.80260   0.82963

 Mulliken charges:
               1
     1  O   -0.515046
     2  H    0.262715
     3  H    0.250243
     4  O   -0.512323
     5  H    0.260021
     6  H    0.254391
 Sum of Mulliken charges =   0.00000

 Dipole moment (field-independent basis, Debye):
    X=             -2.5078    Y=             -2.9936    Z=              0.0000  Tot=              3.9052
 Quadrupole moment (field-independent basis, Debye-Ang):
   XX=             -9.8156   YY=             -7.6312   ZZ=            -14.7169
   XY=             -3.5823   XZ=              0.0000   YZ=              0.0000

 Normal termination of Gaussian 16 at Fri Aug 26 19:56:50 2022.
