 Gaussian 16, Revision A.03,
 Gaussian 16:  ES64L-G16RevA.03 25-Dec-2016

 ------------------
 #p CCSD(T)/cc-pVTZ
 ------------------

 ------------
 H2O_H2O_4838
 ------------
 Symbolic Z-matrix:
 Charge =  0 Multiplicity = 1

                         Standard orientation:
 ---------------------------------------------------------------------
 Center     Atomic      Atomic             Coordinates (Angstroms)
 Number     Number       Type             X           Y           Z
 ---------------------------------------------------------------------
      1          8           0        0.052266    3.037062    0.000000
      2          1           0        0.051095    2.054461    0.000000
      3          1           0       -0.876846    3.356835    0.000000
      4          8           0        0.052266   -2.857133   -0.000000
      5          1           0        0.790253   -3.505888   -0.000000
      6          1           0       -0.800759   -3.344836   -0.000000
 ---------------------------------------------------------------------

 SCF Done:  E(RHF) =  -152.108244297     A.U. after   10 cycles
 E2 =    -0.5258107866D+00 EUMP2 =    -0.15263405508318D+03
 CCSD(T)
 CCSD(T)= -0.15266125733D+03

 The electronic state is 1-A'.
 Alpha  occ. eigenvalues --  -20.56132 -20.55016  -1.33434  -1.32322  -0.70839
 Alpha  occ. eigenvalues --   -0.69724  -0.56920  -0.55790  -0.50551  -0.49444
 Alpha virt. eigenvalues --    0.13497   0.14796   0.19728   0.20918   0.53709
 Alpha virt. eigenvalues --    0.54811   0.56703   0.57769   0.67017   0.68559
 Alpha virt. eigenvalues --    0.78333   0.79416   0.79735   0.80438   0.82334

 Mulliken charges:
               1
     1  O   -0.513089
     2  H    0.259729
     3  H    0.253312
     4  O   -0.513794
     5  H    0.257882
     6  H    0.255961
 Sum of Mulliken charges =  -0.00000

 Dipole moment (field-independent basis, Debye):
    X=             -1.7938    Y=             -3.1503    Z=             -0.0000  Tot=              3.6253
 Quadrupole moment (field-independent basis, Debye-Ang):
   XX=             -9.2249   YY=             -6.0264   ZZ=            -14.7143
   XY=             -5.5363   XZ=             -0.0000   YZ=              0.0000

 Normal termination of Gaussian 16 at Sun Aug 28 06:17:18 2022.
