 Gaussian 16, Revision A.03,
 Gaussian 16:  ES64L-G16RevA.03 25-Dec-2016

 ------------------
 #p CCSD(T)/cc-pVTZ
 ------------------

 ------------
 H2O_H2O_4924
 ------------
 Symbolic Z-matrix:
 Charge =  0 Multiplicity = 1

                         Standard orientation:
 ---------------------------------------------------------------------
 Center     Atomic      Atomic             Coordinates (Angstroms)
 Number     Number       Type             X           Y           Z
 ---------------------------------------------------------------------
      1          8           0       -0.013461    3.055768    0.000000
      2          1           0       -0.011197    2.073170    0.000000
      3          1           0        0.915295    3.376576    0.000000
      4          8           0       -0.013461   -2.896487    0.000000
      5          1           0       -0.996061   -2.898751    0.000000
      6          1           0        0.307346   -3.825243    0.000000
 ---------------------------------------------------------------------

 SCF Done:  E(RHF) =  -152.108239242     A.U. after   10 cycles
 E2 =    -0.5258015716D+00 EUMP2 =    -0.15263404081333D+03
 CCSD(T)
 CCSD(T)= -0.15266124438D+03

 The electronic state is 1-A'.
 Alpha  occ. eigenvalues --  -20.56114 -20.55160  -1.33418  -1.32466  -0.70824
 Alpha  occ. eigenvalues --   -0.69873  -0.56902  -0.55936  -0.50535  -0.49588
 Alpha virt. eigenvalues --    0.13425   0.14709   0.19494   0.21046   0.53589
 Alpha virt. eigenvalues --    0.54773   0.56714   0.57691   0.67062   0.68398
 Alpha virt. eigenvalues --    0.78348   0.79275   0.79736   0.80765   0.81887

 Mulliken charges:
               1
     1  O   -0.513449
     2  H    0.258449
     3  H    0.254971
     4  O   -0.513864
     5  H    0.256437
     6  H    0.257457
 Sum of Mulliken charges =   0.00000

 Dipole moment (field-independent basis, Debye):
    X=              0.4637    Y=             -2.7855    Z=              0.0000  Tot=              2.8238
 Quadrupole moment (field-independent basis, Debye-Ang):
   XX=             -9.6491   YY=             -7.3190   ZZ=            -14.7142
   XY=              8.2853   XZ=              0.0000   YZ=              0.0000

 Normal termination of Gaussian 16 at Sun Aug 28 06:56:51 2022.
