 Gaussian 16, Revision A.03,
 Gaussian 16:  ES64L-G16RevA.03 25-Dec-2016

 ------------------
 #p CCSD(T)/cc-pVTZ
 ------------------

 ------------
 H2O_H2O_1437
 ------------
 Symbolic Z-matrix:
 Charge =  0 Multiplicity = 1

                         Standard orientation:
 ---------------------------------------------------------------------
 Center     Atomic      Atomic             Coordinates (Angstroms)
 Number     Number       Type             X           Y           Z
 ---------------------------------------------------------------------
      1          8           0        0.056043    1.680294   -0.000000
      2          1           0        0.054071    0.697695   -0.000000
      3          1           0       -0.872808    2.000825   -0.000000
      4          8           0        0.056043   -1.501453    0.000000
      5          1           0        0.749452   -2.197650    0.000000
      6          1           0       -0.827405   -1.931600    0.000000
 ---------------------------------------------------------------------

 SCF Done:  E(RHF) =  -152.113687532     A.U. after   10 cycles
 E2 =    -0.5273159560D+00 EUMP2 =    -0.15264100348750D+03
 CCSD(T)
 CCSD(T)= -0.15266799256D+03

 The electronic state is 1-A'.
 Alpha  occ. eigenvalues --  -20.58051 -20.52864  -1.35350  -1.30322  -0.72692
 Alpha  occ. eigenvalues --   -0.68020  -0.59139  -0.53639  -0.52472  -0.47465
 Alpha virt. eigenvalues --    0.11979   0.17481   0.19090   0.29318   0.49495
 Alpha virt. eigenvalues --    0.54883   0.56361   0.59381   0.69387   0.72091
 Alpha virt. eigenvalues --    0.74068   0.76716   0.81608   0.82935   0.84778

 Mulliken charges:
               1
     1  O   -0.541988
     2  H    0.279959
     3  H    0.243626
     4  O   -0.503625
     5  H    0.264369
     6  H    0.257657
 Sum of Mulliken charges =  -0.00000

 Dipole moment (field-independent basis, Debye):
    X=             -1.8744    Y=             -3.5304    Z=             -0.0000  Tot=              3.9972
 Quadrupole moment (field-independent basis, Debye-Ang):
   XX=             -9.2972   YY=             -8.3370   ZZ=            -14.7339
   XY=             -3.5448   XZ=              0.0000   YZ=             -0.0000

 Normal termination of Gaussian 16 at Sat Aug 27 00:34:47 2022.
