 Gaussian 16, Revision A.03,
 Gaussian 16:  ES64L-G16RevA.03 25-Dec-2016

 ------------------
 #p CCSD(T)/cc-pVTZ
 ------------------

 ------------
 H2O_H2O_2125
 ------------
 Symbolic Z-matrix:
 Charge =  0 Multiplicity = 1

                         Standard orientation:
 ---------------------------------------------------------------------
 Center     Atomic      Atomic             Coordinates (Angstroms)
 Number     Number       Type             X           Y           Z
 ---------------------------------------------------------------------
      1          8           0        0.092949   -1.934486    0.000000
      2          1           0        0.092949   -0.951884    0.000000
      3          1           0       -0.836544   -2.253152    0.000000
      4          8           0        0.092949    1.801699    0.000000
      5          1           0        0.092951    2.784301    0.000000
      6          1           0       -0.836543    1.483032    0.000000
 ---------------------------------------------------------------------

 SCF Done:  E(RHF) =  -152.108716718     A.U. after   10 cycles
 E2 =    -0.5266106230D+00 EUMP2 =    -0.15263532734100D+03
 CCSD(T)
 CCSD(T)= -0.15266247080D+03

 The electronic state is 1-A'.
 Alpha  occ. eigenvalues --  -20.57196 -20.54908  -1.34492  -1.32213  -0.72012
 Alpha  occ. eigenvalues --   -0.69535  -0.57976  -0.55643  -0.51587  -0.49324
 Alpha virt. eigenvalues --    0.11427   0.16026   0.20142   0.25141   0.52517
 Alpha virt. eigenvalues --    0.55661   0.56870   0.57397   0.68065   0.73127
 Alpha virt. eigenvalues --    0.76451   0.78976   0.79758   0.80988   0.83014

 Mulliken charges:
               1
     1  O   -0.513909
     2  H    0.264698
     3  H    0.245174
     4  O   -0.499962
     5  H    0.258620
     6  H    0.245378
 Sum of Mulliken charges =  -0.00000

 Dipole moment (field-independent basis, Debye):
    X=             -3.1377    Y=              2.4613    Z=              0.0000  Tot=              3.9879
 Quadrupole moment (field-independent basis, Debye-Ang):
   XX=            -10.8784   YY=             -9.1598   ZZ=            -14.7134
   XY=              2.1378   XZ=              0.0000   YZ=              0.0000

 Normal termination of Gaussian 16 at Sun Aug 28 04:33:46 2022.
