 Gaussian 16, Revision A.03,
 Gaussian 16:  ES64L-G16RevA.03 25-Dec-2016

 ------------------
 #p CCSD(T)/cc-pVTZ
 ------------------

 ------------
 H2O_H2O_3158
 ------------
 Symbolic Z-matrix:
 Charge =  0 Multiplicity = 1

                         Standard orientation:
 ---------------------------------------------------------------------
 Center     Atomic      Atomic             Coordinates (Angstroms)
 Number     Number       Type             X           Y           Z
 ---------------------------------------------------------------------
      1          8           0        0.070198    2.363683   -0.000000
      2          1           0        0.069350    1.381082   -0.000000
      3          1           0       -0.859020    2.683151   -0.000000
      4          8           0        0.070198   -2.193437    0.000000
      5          1           0        0.560765   -3.044819    0.000000
      6          1           0       -0.894263   -2.381378    0.000000
 ---------------------------------------------------------------------

 SCF Done:  E(RHF) =  -152.109156378     A.U. after   10 cycles
 E2 =    -0.5259506732D+00 EUMP2 =    -0.15263510705147D+03
 CCSD(T)
 CCSD(T)= -0.15266226722D+03

 The electronic state is 1-A'.
 Alpha  occ. eigenvalues --  -20.56583 -20.54663  -1.33869  -1.31977  -0.71278
 Alpha  occ. eigenvalues --   -0.69365  -0.57381  -0.55451  -0.50991  -0.49104
 Alpha virt. eigenvalues --    0.12355   0.15703   0.19441   0.22351   0.53503
 Alpha virt. eigenvalues --    0.55191   0.56347   0.58370   0.67665   0.69315
 Alpha virt. eigenvalues --    0.77913   0.78785   0.79738   0.80083   0.83007

 Mulliken charges:
               1
     1  O   -0.515515
     2  H    0.262945
     3  H    0.250478
     4  O   -0.512847
     5  H    0.260066
     6  H    0.254873
 Sum of Mulliken charges =  -0.00000

 Dipole moment (field-independent basis, Debye):
    X=             -2.3945    Y=             -3.0516    Z=              0.0000  Tot=              3.8789
 Quadrupole moment (field-independent basis, Debye-Ang):
   XX=             -9.6845   YY=             -7.4828   ZZ=            -14.7173
   XY=             -3.7703   XZ=              0.0000   YZ=             -0.0000

 Normal termination of Gaussian 16 at Fri Aug 26 20:07:53 2022.
