 Gaussian 16, Revision A.03,
 Gaussian 16:  ES64L-G16RevA.03 25-Dec-2016

 ------------------
 #p CCSD(T)/cc-pVTZ
 ------------------

 ------------
 H2O_H2O_2740
 ------------
 Symbolic Z-matrix:
 Charge =  0 Multiplicity = 1

                         Standard orientation:
 ---------------------------------------------------------------------
 Center     Atomic      Atomic             Coordinates (Angstroms)
 Number     Number       Type             X           Y           Z
 ---------------------------------------------------------------------
      1          8           0        0.044870    2.199673   -0.000000
      2          1           0        0.042935    1.217074   -0.000000
      3          1           0       -0.883993    2.520170   -0.000000
      4          8           0        0.044870   -2.019286    0.000000
      5          1           0        0.860798   -2.566797    0.000000
      6          1           0       -0.737662   -2.613549    0.000000
 ---------------------------------------------------------------------

 SCF Done:  E(RHF) =  -152.110414359     A.U. after   10 cycles
 E2 =    -0.5260034279D+00 EUMP2 =    -0.15263641778646D+03
 CCSD(T)
 CCSD(T)= -0.15266354162D+03

 The electronic state is 1-A'.
 Alpha  occ. eigenvalues --  -20.56792 -20.54277  -1.34061  -1.31603  -0.71458
 Alpha  occ. eigenvalues --   -0.68998  -0.57631  -0.55093  -0.51195  -0.48744
 Alpha virt. eigenvalues --    0.12420   0.16204   0.19389   0.23374   0.52951
 Alpha virt. eigenvalues --    0.55589   0.56318   0.58850   0.69044   0.69607
 Alpha virt. eigenvalues --    0.77645   0.78991   0.79808   0.80085   0.83455

 Mulliken charges:
               1
     1  O   -0.521331
     2  H    0.265586
     3  H    0.251311
     4  O   -0.512967
     5  H    0.260333
     6  H    0.257068
 Sum of Mulliken charges =  -0.00000

 Dipole moment (field-independent basis, Debye):
    X=             -1.5274    Y=             -3.2772    Z=              0.0000  Tot=              3.6157
 Quadrupole moment (field-independent basis, Debye-Ang):
   XX=             -9.1574   YY=             -7.3532   ZZ=            -14.7215
   XY=             -4.6182   XZ=              0.0000   YZ=             -0.0000

 CCSD(T)=-152.6635416\RMSD=6.744e-09\PG=CS [SG(H4O2)]\\@
 Normal termination of Gaussian 16 at Fri Aug 26 16:57:01 2022.
