 Gaussian 16, Revision A.03,
 Gaussian 16:  ES64L-G16RevA.03 25-Dec-2016

 ------------------
 #p CCSD(T)/cc-pVTZ
 ------------------

 ------------
 H2O_H2O_1162
 ------------
 Symbolic Z-matrix:
 Charge =  0 Multiplicity = 1

                         Standard orientation:
 ---------------------------------------------------------------------
 Center     Atomic      Atomic             Coordinates (Angstroms)
 Number     Number       Type             X           Y           Z
 ---------------------------------------------------------------------
      1          8           0        0.056056    1.570595    0.000000
      2          1           0        0.053938    0.587995    0.000000
      3          1           0       -0.872748    1.891264    0.000000
      4          8           0        0.056056   -1.391770    0.000000
      5          1           0        0.749362   -2.088070    0.000000
      6          1           0       -0.827455   -1.821786    0.000000
 ---------------------------------------------------------------------

 SCF Done:  E(RHF) =  -152.113702558     A.U. after   10 cycles
 E2 =    -0.5280947035D+00 EUMP2 =    -0.15264179726165D+03
 CCSD(T)
 CCSD(T)= -0.15266871040D+03

 The electronic state is 1-A'.
 Alpha  occ. eigenvalues --  -20.58517 -20.52175  -1.35915  -1.29752  -0.73197
 Alpha  occ. eigenvalues --   -0.67971  -0.59561  -0.53003  -0.52910  -0.46877
 Alpha virt. eigenvalues --    0.11853   0.17677   0.19117   0.30994   0.48683
 Alpha virt. eigenvalues --    0.54804   0.56878   0.59878   0.69652   0.71801
 Alpha virt. eigenvalues --    0.73117   0.76970   0.82213   0.82580   0.84847

 Mulliken charges:
               1
     1  O   -0.555088
     2  H    0.290708
     3  H    0.240262
     4  O   -0.496714
     5  H    0.263683
     6  H    0.257148
 Sum of Mulliken charges =  -0.00000

 Dipole moment (field-independent basis, Debye):
    X=             -1.8593    Y=             -3.6631    Z=             -0.0000  Tot=              4.1079
 Quadrupole moment (field-independent basis, Debye-Ang):
   XX=             -9.2958   YY=             -8.5944   ZZ=            -14.7302
   XY=             -3.3940   XZ=             -0.0000   YZ=             -0.0000

 CCSD(T)=-152.6687104\RMSD=7.123e-09\PG=CS [SG(H4O2)]\\@
 Normal termination of Gaussian 16 at Fri Aug 26 22:50:12 2022.
