 Gaussian 16, Revision A.03,
 Gaussian 16:  ES64L-G16RevA.03 25-Dec-2016

 ------------------
 #p CCSD(T)/cc-pVTZ
 ------------------

 ------------
 H2O_H2O_4359
 ------------
 Symbolic Z-matrix:
 Charge =  0 Multiplicity = 1

                         Standard orientation:
 ---------------------------------------------------------------------
 Center     Atomic      Atomic             Coordinates (Angstroms)
 Number     Number       Type             X           Y           Z
 ---------------------------------------------------------------------
      1          8           0        0.066745    2.843900   -0.000000
      2          1           0        0.065939    1.861299   -0.000000
      3          1           0       -0.862486    3.163329    0.000000
      4          8           0        0.066745   -2.670772   -0.000000
      5          1           0        0.611978   -3.488223   -0.000000
      6          1           0       -0.883348   -2.921430    0.000000
 ---------------------------------------------------------------------

 SCF Done:  E(RHF) =  -152.108288415     A.U. after   10 cycles
 E2 =    -0.5258296308D+00 EUMP2 =    -0.15263411804535D+03
 CCSD(T)
 CCSD(T)= -0.15266131671D+03

 The electronic state is 1-A'.
 Alpha  occ. eigenvalues --  -20.56219 -20.54981  -1.33520  -1.32288  -0.70927
 Alpha  occ. eigenvalues --   -0.69686  -0.57006  -0.55755  -0.50637  -0.49409
 Alpha virt. eigenvalues --    0.13202   0.14945   0.19578   0.21132   0.53514
 Alpha virt. eigenvalues --    0.54889   0.56614   0.57792   0.66785   0.68803
 Alpha virt. eigenvalues --    0.78253   0.79412   0.79449   0.80364   0.82664

 Mulliken charges:
               1
     1  O   -0.512927
     2  H    0.260267
     3  H    0.252486
     4  O   -0.513844
     5  H    0.258747
     6  H    0.255272
 Sum of Mulliken charges =  -0.00000

 Dipole moment (field-independent basis, Debye):
    X=             -2.2879    Y=             -3.0431    Z=              0.0000  Tot=              3.8072
 Quadrupole moment (field-independent basis, Debye-Ang):
   XX=             -9.5603   YY=             -6.7200   ZZ=            -14.7143
   XY=             -4.3822   XZ=             -0.0000   YZ=              0.0000

 Normal termination of Gaussian 16 at Sun Aug 28 02:14:26 2022.
