 Gaussian 16, Revision A.03,
 Gaussian 16:  ES64L-G16RevA.03 25-Dec-2016

 ------------------
 #p CCSD(T)/cc-pVTZ
 ------------------

 -----------
 H2O_H2O_621
 -----------
 Symbolic Z-matrix:
 Charge =  0 Multiplicity = 1

                         Standard orientation:
 ---------------------------------------------------------------------
 Center     Atomic      Atomic             Coordinates (Angstroms)
 Number     Number       Type             X           Y           Z
 ---------------------------------------------------------------------
      1          8           0       -0.023389    1.346587    0.000000
      2          1           0       -0.018698    0.363997    0.000000
      3          1           0        0.904572    1.669688    0.000000
      4          8           0       -0.023389   -1.176299    0.000000
      5          1           0       -0.986184   -1.372593    0.000000
      6          1           0        0.474540   -2.023395    0.000000
 ---------------------------------------------------------------------

 SCF Done:  E(RHF) =  -152.104608737     A.U. after   11 cycles
 E2 =    -0.5308665495D+00 EUMP2 =    -0.15263547528667D+03
 CCSD(T)
 CCSD(T)= -0.15266200149D+03

 The electronic state is 1-A'.
 Alpha  occ. eigenvalues --  -20.59752 -20.49832  -1.37965  -1.28034  -0.75437
 Alpha  occ. eigenvalues --   -0.69214  -0.59487  -0.54702  -0.50373  -0.45055
 Alpha virt. eigenvalues --    0.11588   0.18124   0.19340   0.33699   0.47744
 Alpha virt. eigenvalues --    0.53856   0.58213   0.67522   0.68239   0.72254
 Alpha virt. eigenvalues --    0.73722   0.77214   0.80166   0.83832   0.83961

 Mulliken charges:
               1
     1  O   -0.606325
     2  H    0.302145
     3  H    0.240222
     4  O   -0.437467
     5  H    0.260967
     6  H    0.240457
 Sum of Mulliken charges =  -0.00000

 Dipole moment (field-independent basis, Debye):
    X=              0.7643    Y=             -3.9533    Z=              0.0000  Tot=              4.0265
 Quadrupole moment (field-independent basis, Debye-Ang):
   XX=             -9.3263   YY=             -9.2395   ZZ=            -14.6843
   XY=              3.3500   XZ=              0.0000   YZ=              0.0000

 Normal termination of Gaussian 16 at Fri Aug 26 19:27:12 2022.
