 Gaussian 16, Revision A.03,
 Gaussian 16:  ES64L-G16RevA.03 25-Dec-2016

 ------------------
 #p CCSD(T)/cc-pVTZ
 ------------------

 ------------
 H2O_H2O_4220
 ------------
 Symbolic Z-matrix:
 Charge =  0 Multiplicity = 1

                         Standard orientation:
 ---------------------------------------------------------------------
 Center     Atomic      Atomic             Coordinates (Angstroms)
 Number     Number       Type             X           Y           Z
 ---------------------------------------------------------------------
      1          8           0        0.026622    2.784139   -0.000000
      2          1           0        0.024536    1.801539   -0.000000
      3          1           0       -0.902193    3.104777    0.000000
      4          8           0        0.026622   -2.610892   -0.000000
      5          1           0        0.975200   -2.867221   -0.000000
      6          1           0       -0.523487   -3.425071    0.000000
 ---------------------------------------------------------------------

 SCF Done:  E(RHF) =  -152.108639565     A.U. after   10 cycles
 E2 =    -0.5258029715D+00 EUMP2 =    -0.15263444253681D+03
 CCSD(T)
 CCSD(T)= -0.15266163335D+03

 The electronic state is 1-A'.
 Alpha  occ. eigenvalues --  -20.56235 -20.54923  -1.33536  -1.32232  -0.70940
 Alpha  occ. eigenvalues --   -0.69636  -0.57037  -0.55709  -0.50656  -0.49358
 Alpha virt. eigenvalues --    0.13159   0.15071   0.19557   0.21289   0.53472
 Alpha virt. eigenvalues --    0.54962   0.56638   0.57818   0.66714   0.68905
 Alpha virt. eigenvalues --    0.78233   0.79314   0.79494   0.80323   0.82757

 Mulliken charges:
               1
     1  O   -0.515088
     2  H    0.260640
     3  H    0.254192
     4  O   -0.515579
     5  H    0.257957
     6  H    0.257878
 Sum of Mulliken charges =  -0.00000

 Dipole moment (field-independent basis, Debye):
    X=             -0.9132    Y=             -3.0488    Z=              0.0000  Tot=              3.1826
 Quadrupole moment (field-independent basis, Debye-Ang):
   XX=             -9.2890   YY=             -6.7779   ZZ=            -14.7156
   XY=             -6.6396   XZ=             -0.0000   YZ=              0.0000

 Normal termination of Gaussian 16 at Sun Aug 28 00:54:31 2022.
