 Gaussian 16, Revision A.03,
 Gaussian 16:  ES64L-G16RevA.03 25-Dec-2016

 ------------------
 #p CCSD(T)/cc-pVTZ
 ------------------

 ------------
 H2O_H2O_1644
 ------------
 Symbolic Z-matrix:
 Charge =  0 Multiplicity = 1

                         Standard orientation:
 ---------------------------------------------------------------------
 Center     Atomic      Atomic             Coordinates (Angstroms)
 Number     Number       Type             X           Y           Z
 ---------------------------------------------------------------------
      1          8           0        0.030263    1.758290   -0.000000
      2          1           0        0.027075    0.775694   -0.000000
      3          1           0       -0.898191    2.079971   -0.000000
      4          8           0        0.030263   -1.582734    0.000000
      5          1           0        0.959688   -1.901598    0.000000
      6          1           0       -0.572788   -2.358514    0.000000
 ---------------------------------------------------------------------

 SCF Done:  E(RHF) =  -152.113499234     A.U. after   10 cycles
 E2 =    -0.5268307966D+00 EUMP2 =    -0.15264033003066D+03
 CCSD(T)
 CCSD(T)= -0.15266735117D+03

 The electronic state is 1-A'.
 Alpha  occ. eigenvalues --  -20.57735 -20.53246  -1.35010  -1.30658  -0.72389
 Alpha  occ. eigenvalues --   -0.68198  -0.58810  -0.54049  -0.52144  -0.47815
 Alpha virt. eigenvalues --    0.12173   0.17495   0.19013   0.28166   0.50970
 Alpha virt. eigenvalues --    0.54321   0.56063   0.59741   0.68982   0.72738
 Alpha virt. eigenvalues --    0.74876   0.77206   0.81223   0.83153   0.84560

 Mulliken charges:
               1
     1  O   -0.539358
     2  H    0.273613
     3  H    0.250166
     4  O   -0.506993
     5  H    0.263909
     6  H    0.258662
 Sum of Mulliken charges =  -0.00000

 Dipole moment (field-independent basis, Debye):
    X=             -1.0210    Y=             -3.3953    Z=              0.0000  Tot=              3.5455
 Quadrupole moment (field-independent basis, Debye-Ang):
   XX=             -9.2306   YY=             -8.2148   ZZ=            -14.7336
   XY=             -4.1917   XZ=              0.0000   YZ=             -0.0000

 Normal termination of Gaussian 16 at Sun Aug 28 00:17:17 2022.
