 Gaussian 16, Revision A.03,
 Gaussian 16:  ES64L-G16RevA.03 25-Dec-2016

 ------------------
 #p CCSD(T)/cc-pVTZ
 ------------------

 ------------
 H2O_H2O_1689
 ------------
 Symbolic Z-matrix:
 Charge =  0 Multiplicity = 1

                         Standard orientation:
 ---------------------------------------------------------------------
 Center     Atomic      Atomic             Coordinates (Angstroms)
 Number     Number       Type             X           Y           Z
 ---------------------------------------------------------------------
      1          8           0        0.048634    1.780824    0.000000
      2          1           0        0.046407    0.798225    0.000000
      3          1           0       -0.880134    2.101597   -0.000000
      4          8           0        0.048634   -1.600491    0.000000
      5          1           0        0.826827   -2.200427    0.000000
      6          1           0       -0.771249   -2.142059   -0.000000
 ---------------------------------------------------------------------

 SCF Done:  E(RHF) =  -152.113322501     A.U. after   10 cycles
 E2 =    -0.5268062958D+00 EUMP2 =    -0.15264012879631D+03
 CCSD(T)
 CCSD(T)= -0.15266715576D+03

 The electronic state is 1-A'.
 Alpha  occ. eigenvalues --  -20.57707 -20.53252  -1.34968  -1.30654  -0.72328
 Alpha  occ. eigenvalues --   -0.68177  -0.58745  -0.54056  -0.52105  -0.47807
 Alpha virt. eigenvalues --    0.12116   0.17352   0.19059   0.27906   0.50538
 Alpha virt. eigenvalues --    0.54742   0.56284   0.59235   0.69064   0.72242
 Alpha virt. eigenvalues --    0.75095   0.76915   0.81192   0.83200   0.84648

 Mulliken charges:
               1
     1  O   -0.535925
     2  H    0.273741
     3  H    0.246929
     4  O   -0.507038
     5  H    0.264103
     6  H    0.258190
 Sum of Mulliken charges =  -0.00000

 Dipole moment (field-independent basis, Debye):
    X=             -1.6362    Y=             -3.4736    Z=             -0.0000  Tot=              3.8397
 Quadrupole moment (field-independent basis, Debye-Ang):
   XX=             -9.1885   YY=             -8.1090   ZZ=            -14.7334
   XY=             -3.8372   XZ=              0.0000   YZ=             -0.0000

 Normal termination of Gaussian 16 at Sun Aug 28 00:42:27 2022.
