 Gaussian 16, Revision A.03,
 Gaussian 16:  ES64L-G16RevA.03 25-Dec-2016

 ------------------
 #p CCSD(T)/cc-pVTZ
 ------------------

 ------------
 H2O_H2O_3187
 ------------
 Symbolic Z-matrix:
 Charge =  0 Multiplicity = 1

                         Standard orientation:
 ---------------------------------------------------------------------
 Center     Atomic      Atomic             Coordinates (Angstroms)
 Number     Number       Type             X           Y           Z
 ---------------------------------------------------------------------
      1          8           0        0.055988    2.378363   -0.000000
      2          1           0        0.054618    1.395762   -0.000000
      3          1           0       -0.873059    2.698325   -0.000000
      4          8           0        0.055988   -2.199453    0.000000
      5          1           0        0.749824   -2.895225    0.000000
      6          1           0       -0.827195   -2.630141    0.000000
 ---------------------------------------------------------------------

 SCF Done:  E(RHF) =  -152.109478428     A.U. after   10 cycles
 E2 =    -0.5259152944D+00 EUMP2 =    -0.15263539372270D+03
 CCSD(T)
 CCSD(T)= -0.15266254788D+03

 The electronic state is 1-A'.
 Alpha  occ. eigenvalues --  -20.56568 -20.54547  -1.33851  -1.31864  -0.71254
 Alpha  occ. eigenvalues --   -0.69256  -0.57380  -0.55346  -0.50978  -0.48995
 Alpha virt. eigenvalues --    0.12554   0.15760   0.19493   0.22276   0.53315
 Alpha virt. eigenvalues --    0.55269   0.56375   0.58359   0.67679   0.69351
 Alpha virt. eigenvalues --    0.77927   0.78989   0.79476   0.79838   0.83138

 Mulliken charges:
               1
     1  O   -0.517309
     2  H    0.263707
     3  H    0.251384
     4  O   -0.514303
     5  H    0.260102
     6  H    0.256419
 Sum of Mulliken charges =  -0.00000

 Dipole moment (field-independent basis, Debye):
    X=             -1.9105    Y=             -3.2067    Z=              0.0000  Tot=              3.7326
 Quadrupole moment (field-independent basis, Debye-Ang):
   XX=             -9.2870   YY=             -7.1212   ZZ=            -14.7185
   XY=             -4.4510   XZ=              0.0000   YZ=             -0.0000

 CCSD(T)=-152.6625479\RMSD=6.942e-09\PG=CS [SG(H4O2)]\\@
 Normal termination of Gaussian 16 at Fri Aug 26 20:17:21 2022.
