 Gaussian 16, Revision A.03,
 Gaussian 16:  ES64L-G16RevA.03 25-Dec-2016

 ------------------
 #p CCSD(T)/cc-pVTZ
 ------------------

 -----------
 H2O_H2O_345
 -----------
 Symbolic Z-matrix:
 Charge =  0 Multiplicity = 1

                         Standard orientation:
 ---------------------------------------------------------------------
 Center     Atomic      Atomic             Coordinates (Angstroms)
 Number     Number       Type             X           Y           Z
 ---------------------------------------------------------------------
      1          8           0        0.026868    1.238421    0.000000
      2          1           0        0.021984    0.255832    0.000000
      3          1           0       -0.901029    1.561704    0.000000
      4          8           0        0.026868   -1.065327    0.000000
      5          1           0        0.974713   -1.324357    0.000000
      6          1           0       -0.525558   -1.877935    0.000000
 ---------------------------------------------------------------------

 SCF Done:  E(RHF) =  -152.086291659     A.U. after   11 cycles
 E2 =    -0.5331849449D+00 EUMP2 =    -0.15261947660389D+03
 CCSD(T)
 CCSD(T)= -0.15264557329D+03

 The electronic state is 1-A'.
 Alpha  occ. eigenvalues --  -20.60749 -20.47450  -1.40100  -1.26423  -0.77343
 Alpha  occ. eigenvalues --   -0.72018  -0.57786  -0.56273  -0.47853  -0.43275
 Alpha virt. eigenvalues --    0.11115   0.17555   0.20104   0.33920   0.47178
 Alpha virt. eigenvalues --    0.53015   0.60114   0.68345   0.70201   0.72009
 Alpha virt. eigenvalues --    0.76502   0.77901   0.79094   0.83947   0.83958

 Mulliken charges:
               1
     1  O   -0.638416
     2  H    0.299521
     3  H    0.229011
     4  O   -0.389306
     5  H    0.261230
     6  H    0.237960
 Sum of Mulliken charges =  -0.00000

 Dipole moment (field-independent basis, Debye):
    X=             -0.8500    Y=             -4.4075    Z=             -0.0000  Tot=              4.4887
 Quadrupole moment (field-independent basis, Debye-Ang):
   XX=             -9.2269   YY=             -9.6618   ZZ=            -14.6353
   XY=             -3.0158   XZ=             -0.0000   YZ=             -0.0000

 Normal termination of Gaussian 16 at Fri Aug 26 17:35:13 2022.
