 Gaussian 16, Revision A.03,
 Gaussian 16:  ES64L-G16RevA.03 25-Dec-2016

 ------------------
 #p CCSD(T)/cc-pVTZ
 ------------------

 ------------
 H2O_H2O_3199
 ------------
 Symbolic Z-matrix:
 Charge =  0 Multiplicity = 1

                         Standard orientation:
 ---------------------------------------------------------------------
 Center     Atomic      Atomic             Coordinates (Angstroms)
 Number     Number       Type             X           Y           Z
 ---------------------------------------------------------------------
      1          8           0       -0.013517    2.367698    0.000000
      2          1           0       -0.010571    1.385101    0.000000
      3          1           0        0.915017    2.689149    0.000000
      4          8           0       -0.013517   -2.208435    0.000000
      5          1           0       -0.996114   -2.211381    0.000000
      6          1           0        0.307935   -3.136970    0.000000
 ---------------------------------------------------------------------

 SCF Done:  E(RHF) =  -152.109443050     A.U. after   10 cycles
 E2 =    -0.5258856547D+00 EUMP2 =    -0.15263532870507D+03
 CCSD(T)
 CCSD(T)= -0.15266248798D+03

 The electronic state is 1-A'.
 Alpha  occ. eigenvalues --  -20.56534 -20.54759  -1.33827  -1.32074  -0.71236
 Alpha  occ. eigenvalues --   -0.69483  -0.57352  -0.55562  -0.50951  -0.49209
 Alpha virt. eigenvalues --    0.12300   0.15726   0.19202   0.22818   0.53600
 Alpha virt. eigenvalues --    0.55507   0.56462   0.58095   0.67526   0.69310
 Alpha virt. eigenvalues --    0.77946   0.78640   0.79632   0.80766   0.83022

 Mulliken charges:
               1
     1  O   -0.518597
     2  H    0.261808
     3  H    0.255025
     4  O   -0.515451
     5  H    0.258047
     6  H    0.259168
 Sum of Mulliken charges =   0.00000

 Dipole moment (field-independent basis, Debye):
    X=              0.4658    Y=             -2.8481    Z=              0.0000  Tot=              2.8860
 Quadrupole moment (field-independent basis, Debye-Ang):
   XX=             -9.6480   YY=             -7.9178   ZZ=            -14.7182
   XY=              6.4023   XZ=              0.0000   YZ=              0.0000

 Normal termination of Gaussian 16 at Fri Aug 26 20:21:20 2022.
