 Gaussian 16, Revision A.03,
 Gaussian 16:  ES64L-G16RevA.03 25-Dec-2016

 ------------------
 #p CCSD(T)/cc-pVTZ
 ------------------

 ------------
 H2O_H2O_1710
 ------------
 Symbolic Z-matrix:
 Charge =  0 Multiplicity = 1

                         Standard orientation:
 ---------------------------------------------------------------------
 Center     Atomic      Atomic             Coordinates (Angstroms)
 Number     Number       Type             X           Y           Z
 ---------------------------------------------------------------------
      1          8           0        0.063269    1.788147    0.000000
      2          1           0        0.061786    0.805546    0.000000
      3          1           0       -0.865742    2.108216    0.000000
      4          8           0        0.063269   -1.612686    0.000000
      5          1           0        0.660262   -2.393139    0.000000
      6          1           0       -0.868611   -1.924305    0.000000
 ---------------------------------------------------------------------

 SCF Done:  E(RHF) =  -152.112630667     A.U. after   10 cycles
 E2 =    -0.5268373320D+00 EUMP2 =    -0.15263946799893D+03
 CCSD(T)
 CCSD(T)= -0.15266650703D+03

 The electronic state is 1-A'.
 Alpha  occ. eigenvalues --  -20.57675 -20.53455  -1.34942  -1.30842  -0.72333
 Alpha  occ. eigenvalues --   -0.68322  -0.58668  -0.54245  -0.52071  -0.47986
 Alpha virt. eigenvalues --    0.12008   0.17070   0.19248   0.27578   0.50363
 Alpha virt. eigenvalues --    0.55166   0.56357   0.58858   0.69279   0.72731
 Alpha virt. eigenvalues --    0.75166   0.77150   0.81040   0.83161   0.84300

 Mulliken charges:
               1
     1  O   -0.531582
     2  H    0.272710
     3  H    0.244840
     4  O   -0.504351
     5  H    0.262558
     6  H    0.255824
 Sum of Mulliken charges =  -0.00000

 Dipole moment (field-independent basis, Debye):
    X=             -2.1280    Y=             -3.3701    Z=              0.0000  Tot=              3.9857
 Quadrupole moment (field-independent basis, Debye-Ang):
   XX=             -9.4708   YY=             -8.1650   ZZ=            -14.7304
   XY=             -3.5119   XZ=              0.0000   YZ=              0.0000

 Normal termination of Gaussian 16 at Sun Aug 28 00:52:37 2022.
