 Gaussian 16, Revision A.03,
 Gaussian 16:  ES64L-G16RevA.03 25-Dec-2016

 ------------------
 #p CCSD(T)/cc-pVTZ
 ------------------

 ------------
 H2O_H2O_4223
 ------------
 Symbolic Z-matrix:
 Charge =  0 Multiplicity = 1

                         Standard orientation:
 ---------------------------------------------------------------------
 Center     Atomic      Atomic             Coordinates (Angstroms)
 Number     Number       Type             X           Y           Z
 ---------------------------------------------------------------------
      1          8           0       -0.016588    2.778795    0.000000
      2          1           0       -0.014187    1.796196    0.000000
      3          1           0        0.912123    3.099732    0.000000
      4          8           0       -0.016588   -2.615389    0.000000
      5          1           0       -0.996926   -2.682051    0.000000
      6          1           0        0.364403   -3.521123    0.000000
 ---------------------------------------------------------------------

 SCF Done:  E(RHF) =  -152.108581636     A.U. after   10 cycles
 E2 =    -0.5258031487D+00 EUMP2 =    -0.15263438478507D+03
 CCSD(T)
 CCSD(T)= -0.15266157757D+03

 The electronic state is 1-A'.
 Alpha  occ. eigenvalues --  -20.56232 -20.55004  -1.33534  -1.32313  -0.70940
 Alpha  occ. eigenvalues --   -0.69720  -0.57032  -0.55789  -0.50654  -0.49439
 Alpha virt. eigenvalues --    0.13043   0.15044   0.19364   0.21476   0.53329
 Alpha virt. eigenvalues --    0.55021   0.56642   0.57812   0.66726   0.68837
 Alpha virt. eigenvalues --    0.78235   0.79275   0.79416   0.80705   0.82648

 Mulliken charges:
               1
     1  O   -0.514961
     2  H    0.259911
     3  H    0.254823
     4  O   -0.515392
     5  H    0.257308
     6  H    0.258310
 Sum of Mulliken charges =  -0.00000

 Dipole moment (field-independent basis, Debye):
    X=              0.5703    Y=             -2.8744    Z=              0.0000  Tot=              2.9304
 Quadrupole moment (field-independent basis, Debye-Ang):
   XX=             -9.5432   YY=             -7.3271   ZZ=            -14.7153
   XY=              7.2957   XZ=              0.0000   YZ=              0.0000

 Normal termination of Gaussian 16 at Sun Aug 28 00:55:38 2022.
