 Gaussian 16, Revision A.03,
 Gaussian 16:  ES64L-G16RevA.03 25-Dec-2016

 ------------------
 #p CCSD(T)/cc-pVTZ
 ------------------

 ------------
 H2O_H2O_2090
 ------------
 Symbolic Z-matrix:
 Charge =  0 Multiplicity = 1

                         Standard orientation:
 ---------------------------------------------------------------------
 Center     Atomic      Atomic             Coordinates (Angstroms)
 Number     Number       Type             X           Y           Z
 ---------------------------------------------------------------------
      1          8           0        0.044895    1.940391   -0.000000
      2          1           0        0.042689    0.957792   -0.000000
      3          1           0       -0.883880    2.261144   -0.000000
      4          8           0        0.044895   -1.760028    0.000000
      5          1           0        0.860671   -2.307765    0.000000
      6          1           0       -0.737801   -2.354076    0.000000
 ---------------------------------------------------------------------

 SCF Done:  E(RHF) =  -152.112105862     A.U. after   10 cycles
 E2 =    -0.5263378895D+00 EUMP2 =    -0.15263844375105D+03
 CCSD(T)
 CCSD(T)= -0.15266551491D+03

 The electronic state is 1-A'.
 Alpha  occ. eigenvalues --  -20.57275 -20.53754  -1.34526  -1.31109  -0.71910
 Alpha  occ. eigenvalues --   -0.68530  -0.58203  -0.54576  -0.51667  -0.48260
 Alpha virt. eigenvalues --    0.12248   0.16910   0.19187   0.25842   0.51844
 Alpha virt. eigenvalues --    0.55130   0.56432   0.58968   0.69065   0.72212
 Alpha virt. eigenvalues --    0.76510   0.77748   0.80640   0.83489   0.84079

 Mulliken charges:
               1
     1  O   -0.528585
     2  H    0.268884
     3  H    0.249417
     4  O   -0.508670
     5  H    0.261712
     6  H    0.257242
 Sum of Mulliken charges =  -0.00000

 Dipole moment (field-independent basis, Debye):
    X=             -1.5196    Y=             -3.3766    Z=              0.0000  Tot=              3.7028
 Quadrupole moment (field-independent basis, Debye-Ang):
   XX=             -9.1597   YY=             -7.8013   ZZ=            -14.7279
   XY=             -4.1842   XZ=              0.0000   YZ=             -0.0000

 Normal termination of Gaussian 16 at Sun Aug 28 04:14:51 2022.
