 Gaussian 16, Revision A.03,
 Gaussian 16:  ES64L-G16RevA.03 25-Dec-2016

 ------------------
 #p CCSD(T)/cc-pVTZ
 ------------------

 ------------
 H2O_H2O_4303
 ------------
 Symbolic Z-matrix:
 Charge =  0 Multiplicity = 1

                         Standard orientation:
 ---------------------------------------------------------------------
 Center     Atomic      Atomic             Coordinates (Angstroms)
 Number     Number       Type             X           Y           Z
 ---------------------------------------------------------------------
      1          8           0        0.085597   -2.811179    0.000000
      2          1           0        0.085369   -1.828577    0.000000
      3          1           0       -0.843822   -3.130061    0.000000
      4          8           0        0.085597    2.661574    0.000000
      5          1           0        0.277070    3.625339    0.000000
      6          1           0       -0.888174    2.530139    0.000000
 ---------------------------------------------------------------------

 SCF Done:  E(RHF) =  -152.107899871     A.U. after   10 cycles
 E2 =    -0.5258654117D+00 EUMP2 =    -0.15263376528230D+03
 CCSD(T)
 CCSD(T)= -0.15266097243D+03

 The electronic state is 1-A'.
 Alpha  occ. eigenvalues --  -20.56242 -20.55184  -1.33543  -1.32488  -0.70956
 Alpha  occ. eigenvalues --   -0.69884  -0.57012  -0.55945  -0.50656  -0.49603
 Alpha virt. eigenvalues --    0.12820   0.14874   0.19147   0.21524   0.53242
 Alpha virt. eigenvalues --    0.54913   0.56549   0.57774   0.66811   0.68664
 Alpha virt. eigenvalues --    0.78237   0.79264   0.79396   0.81093   0.82246

 Mulliken charges:
               1
     1  O   -0.510759
     2  H    0.258645
     3  H    0.251975
     4  O   -0.511823
     5  H    0.258690
     6  H    0.253272
 Sum of Mulliken charges =  -0.00000

 Dipole moment (field-independent basis, Debye):
    X=             -2.9336    Y=              2.6300    Z=              0.0000  Tot=              3.9399
 Quadrupole moment (field-independent basis, Debye-Ang):
   XX=            -10.3978   YY=             -8.1642   ZZ=            -14.7128
   XY=              2.9209   XZ=              0.0000   YZ=              0.0000

 Normal termination of Gaussian 16 at Sun Aug 28 01:43:47 2022.
