 Gaussian 16, Revision A.03,
 Gaussian 16:  ES64L-G16RevA.03 25-Dec-2016

 ------------------
 #p CCSD(T)/cc-pVTZ
 ------------------

 ------------
 H2O_H2O_4728
 ------------
 Symbolic Z-matrix:
 Charge =  0 Multiplicity = 1

                         Standard orientation:
 ---------------------------------------------------------------------
 Center     Atomic      Atomic             Coordinates (Angstroms)
 Number     Number       Type             X           Y           Z
 ---------------------------------------------------------------------
      1          8           0        0.085596   -2.980703    0.000000
      2          1           0        0.085382   -1.998101    0.000000
      3          1           0       -0.843827   -3.299572    0.000000
      4          8           0        0.085596    2.831095    0.000000
      5          1           0        0.277082    3.794858    0.000000
      6          1           0       -0.888177    2.699675    0.000000
 ---------------------------------------------------------------------

 SCF Done:  E(RHF) =  -152.107802348     A.U. after   10 cycles
 E2 =    -0.5258534710D+00 EUMP2 =    -0.15263365581882D+03
 CCSD(T)
 CCSD(T)= -0.15266086720D+03

 The electronic state is 1-A'.
 Alpha  occ. eigenvalues --  -20.56166 -20.55242  -1.33467  -1.32544  -0.70879
 Alpha  occ. eigenvalues --   -0.69942  -0.56933  -0.56000  -0.50580  -0.49659
 Alpha virt. eigenvalues --    0.13158   0.14674   0.19255   0.21193   0.53437
 Alpha virt. eigenvalues --    0.54777   0.56612   0.57657   0.67007   0.68426
 Alpha virt. eigenvalues --    0.78308   0.79211   0.79673   0.80923   0.81816

 Mulliken charges:
               1
     1  O   -0.510515
     2  H    0.258050
     3  H    0.252423
     4  O   -0.511435
     5  H    0.258032
     6  H    0.253446
 Sum of Mulliken charges =  -0.00000

 Dipole moment (field-independent basis, Debye):
    X=             -2.9370    Y=              2.6208    Z=              0.0000  Tot=              3.9363
 Quadrupole moment (field-independent basis, Debye-Ang):
   XX=            -10.3963   YY=             -8.0736   ZZ=            -14.7125
   XY=              2.9660   XZ=              0.0000   YZ=              0.0000

 Normal termination of Gaussian 16 at Sun Aug 28 05:26:04 2022.
