 Gaussian 16, Revision A.03,
 Gaussian 16:  ES64L-G16RevA.03 25-Dec-2016

 ------------------
 #p CCSD(T)/cc-pVTZ
 ------------------

 ------------
 H2O_H2O_1947
 ------------
 Symbolic Z-matrix:
 Charge =  0 Multiplicity = 1

                         Standard orientation:
 ---------------------------------------------------------------------
 Center     Atomic      Atomic             Coordinates (Angstroms)
 Number     Number       Type             X           Y           Z
 ---------------------------------------------------------------------
      1          8           0       -0.019923    1.873347    0.000000
      2          1           0       -0.016457    0.890752    0.000000
      3          1           0        0.908441    2.195289    0.000000
      4          8           0       -0.019923   -1.706273    0.000000
      5          1           0       -0.993660   -1.837963    0.000000
      6          1           0        0.420441   -2.584672    0.000000
 ---------------------------------------------------------------------

 SCF Done:  E(RHF) =  -152.112269422     A.U. after   10 cycles
 E2 =    -0.5264431342D+00 EUMP2 =    -0.15263871255667D+03
 CCSD(T)
 CCSD(T)= -0.15266577752D+03

 The electronic state is 1-A'.
 Alpha  occ. eigenvalues --  -20.57363 -20.53834  -1.34635  -1.31196  -0.72052
 Alpha  occ. eigenvalues --   -0.68634  -0.58329  -0.54650  -0.51768  -0.48352
 Alpha virt. eigenvalues --    0.12211   0.17019   0.19194   0.26541   0.52428
 Alpha virt. eigenvalues --    0.54534   0.56034   0.59154   0.68899   0.72997
 Alpha virt. eigenvalues --    0.76006   0.78278   0.80637   0.83378   0.84120

 Mulliken charges:
               1
     1  O   -0.532035
     2  H    0.268102
     3  H    0.253188
     4  O   -0.509068
     5  H    0.261596
     6  H    0.258216
 Sum of Mulliken charges =  -0.00000

 Dipole moment (field-independent basis, Debye):
    X=              0.6797    Y=             -3.1510    Z=              0.0000  Tot=              3.2235
 Quadrupole moment (field-independent basis, Debye-Ang):
   XX=             -9.4484   YY=             -8.1814   ZZ=            -14.7283
   XY=              4.7830   XZ=              0.0000   YZ=              0.0000

 654\MP4DQ=-152.6475904\MP4SDQ=-152.6506708\CCSD=-152.6500642\CCSD(T)=-
 Normal termination of Gaussian 16 at Sun Aug 28 03:03:56 2022.
