 Gaussian 16, Revision A.03,
 Gaussian 16:  ES64L-G16RevA.03 25-Dec-2016

 ------------------
 #p CCSD(T)/cc-pVTZ
 ------------------

 ------------
 H2O_H2O_2888
 ------------
 Symbolic Z-matrix:
 Charge =  0 Multiplicity = 1

                         Standard orientation:
 ---------------------------------------------------------------------
 Center     Atomic      Atomic             Coordinates (Angstroms)
 Number     Number       Type             X           Y           Z
 ---------------------------------------------------------------------
      1          8           0        0.052305    2.259229   -0.000000
      2          1           0        0.050714    1.276629   -0.000000
      3          1           0       -0.876671    2.579400   -0.000000
      4          8           0        0.052305   -2.079346    0.000000
      5          1           0        0.790014   -2.728415    0.000000
      6          1           0       -0.800929   -2.566684    0.000000
 ---------------------------------------------------------------------

 SCF Done:  E(RHF) =  -152.110020020     A.U. after   10 cycles
 E2 =    -0.5259736067D+00 EUMP2 =    -0.15263599362702D+03
 CCSD(T)
 CCSD(T)= -0.15266312912D+03

 The electronic state is 1-A'.
 Alpha  occ. eigenvalues --  -20.56712 -20.54382  -1.33986  -1.31704  -0.71386
 Alpha  occ. eigenvalues --   -0.69095  -0.57537  -0.55190  -0.51116  -0.48840
 Alpha virt. eigenvalues --    0.12445   0.16038   0.19434   0.22938   0.53106
 Alpha virt. eigenvalues --    0.55508   0.56291   0.58724   0.68677   0.69337
 Alpha virt. eigenvalues --    0.77762   0.79124   0.79436   0.79989   0.83316

 Mulliken charges:
               1
     1  O   -0.519478
     2  H    0.264915
     3  H    0.251008
     4  O   -0.513311
     5  H    0.260255
     6  H    0.256610
 Sum of Mulliken charges =  -0.00000

 Dipole moment (field-independent basis, Debye):
    X=             -1.7818    Y=             -3.2517    Z=              0.0000  Tot=              3.7079
 Quadrupole moment (field-independent basis, Debye-Ang):
   XX=             -9.2268   YY=             -7.2743   ZZ=            -14.7203
   XY=             -4.4397   XZ=              0.0000   YZ=             -0.0000

 Normal termination of Gaussian 16 at Fri Aug 26 18:05:58 2022.
