 Gaussian 16, Revision A.03,
 Gaussian 16:  ES64L-G16RevA.03 25-Dec-2016

 ------------------
 #p CCSD(T)/cc-pVTZ
 ------------------

 ------------
 H2O_H2O_1114
 ------------
 Symbolic Z-matrix:
 Charge =  0 Multiplicity = 1

                         Standard orientation:
 ---------------------------------------------------------------------
 Center     Atomic      Atomic             Coordinates (Angstroms)
 Number     Number       Type             X           Y           Z
 ---------------------------------------------------------------------
      1          8           0        0.048666    1.551453    0.000000
      2          1           0        0.046089    0.568855    0.000000
      3          1           0       -0.879988    1.872557   -0.000000
      4          8           0        0.048666   -1.371155    0.000000
      5          1           0        0.826645   -1.971367    0.000000
      6          1           0       -0.771410   -1.912430   -0.000000
 ---------------------------------------------------------------------

 SCF Done:  E(RHF) =  -152.113893908     A.U. after   10 cycles
 E2 =    -0.5282164647D+00 EUMP2 =    -0.15264211037222D+03
 CCSD(T)
 CCSD(T)= -0.15266900057D+03

 The electronic state is 1-A'.
 Alpha  occ. eigenvalues --  -20.58613 -20.51934  -1.36035  -1.29551  -0.73273
 Alpha  occ. eigenvalues --   -0.67974  -0.59641  -0.53119  -0.52661  -0.46675
 Alpha virt. eigenvalues --    0.11875   0.17939   0.18962   0.31358   0.48687
 Alpha virt. eigenvalues --    0.54756   0.56545   0.60511   0.69297   0.71501
 Alpha virt. eigenvalues --    0.72997   0.77235   0.82374   0.82572   0.84923

 Mulliken charges:
               1
     1  O   -0.560501
     2  H    0.293171
     3  H    0.241227
     4  O   -0.497792
     5  H    0.265762
     6  H    0.258132
 Sum of Mulliken charges =  -0.00000

 Dipole moment (field-independent basis, Debye):
    X=             -1.6123    Y=             -3.7248    Z=              0.0000  Tot=              4.0588
 Quadrupole moment (field-independent basis, Debye-Ang):
   XX=             -9.1847   YY=             -8.6410   ZZ=            -14.7304
   XY=             -3.4670   XZ=             -0.0000   YZ=             -0.0000

 CCSD(T)=-152.6690006\RMSD=7.203e-09\PG=CS [SG(H4O2)]\\@
 Normal termination of Gaussian 16 at Fri Aug 26 22:33:00 2022.
