 Gaussian 16, Revision A.03,
 Gaussian 16:  ES64L-G16RevA.03 25-Dec-2016

 ------------------
 #p CCSD(T)/cc-pVTZ
 ------------------

 ------------
 H2O_H2O_2073
 ------------
 Symbolic Z-matrix:
 Charge =  0 Multiplicity = 1

                         Standard orientation:
 ---------------------------------------------------------------------
 Center     Atomic      Atomic             Coordinates (Angstroms)
 Number     Number       Type             X           Y           Z
 ---------------------------------------------------------------------
      1          8           0       -0.016681    1.921194    0.000000
      2          1           0       -0.013161    0.938599    0.000000
      3          1           0        0.911664    2.243188    0.000000
      4          8           0       -0.016681   -1.757826    0.000000
      5          1           0       -0.996943   -1.825603    0.000000
      6          1           0        0.365341   -2.663124    0.000000
 ---------------------------------------------------------------------

 SCF Done:  E(RHF) =  -152.111772023     A.U. after   10 cycles
 E2 =    -0.5263341355D+00 EUMP2 =    -0.15263810615847D+03
 CCSD(T)
 CCSD(T)= -0.15266518662D+03

 The electronic state is 1-A'.
 Alpha  occ. eigenvalues --  -20.57234 -20.54036  -1.34508  -1.31386  -0.71932
 Alpha  occ. eigenvalues --   -0.68809  -0.58164  -0.54853  -0.51639  -0.48538
 Alpha virt. eigenvalues --    0.12197   0.16833   0.19239   0.25989   0.53002
 Alpha virt. eigenvalues --    0.54680   0.56019   0.58957   0.68767   0.72762
 Alpha virt. eigenvalues --    0.76406   0.78730   0.80426   0.83460   0.83599

 Mulliken charges:
               1
     1  O   -0.529684
     2  H    0.266716
     3  H    0.253998
     4  O   -0.509896
     5  H    0.260674
     6  H    0.258191
 Sum of Mulliken charges =  -0.00000

 Dipole moment (field-independent basis, Debye):
    X=              0.5722    Y=             -3.0543    Z=              0.0000  Tot=              3.1075
 Quadrupole moment (field-independent basis, Debye-Ang):
   XX=             -9.5447   YY=             -8.2090   ZZ=            -14.7262
   XY=              5.0382   XZ=              0.0000   YZ=              0.0000

 Normal termination of Gaussian 16 at Sun Aug 28 04:08:04 2022.
