 Gaussian 16, Revision A.03,
 Gaussian 16:  ES64L-G16RevA.03 25-Dec-2016

 ------------------
 #p CCSD(T)/cc-pVTZ
 ------------------

 ------------
 H2O_H2O_1556
 ------------
 Symbolic Z-matrix:
 Charge =  0 Multiplicity = 1

                         Standard orientation:
 ---------------------------------------------------------------------
 Center     Atomic      Atomic             Coordinates (Angstroms)
 Number     Number       Type             X           Y           Z
 ---------------------------------------------------------------------
      1          8           0        0.076777    1.721638    0.000000
      2          1           0        0.075939    0.739037    0.000000
      3          1           0       -0.852444    2.041097   -0.000000
      4          8           0        0.076777   -1.558466    0.000000
      5          1           0        0.452029   -2.466591    0.000000
      6          1           0       -0.903963   -1.618922   -0.000000
 ---------------------------------------------------------------------

 SCF Done:  E(RHF) =  -152.111777429     A.U. after   10 cycles
 E2 =    -0.5272134878D+00 EUMP2 =    -0.15263899091696D+03
 CCSD(T)
 CCSD(T)= -0.15266602909D+03

 The electronic state is 1-A'.
 Alpha  occ. eigenvalues --  -20.57842 -20.53605  -1.35150  -1.30998  -0.72625
 Alpha  occ. eigenvalues --   -0.68460  -0.58814  -0.54362  -0.52252  -0.48125
 Alpha virt. eigenvalues --    0.11794   0.16801   0.19612   0.28080   0.49840
 Alpha virt. eigenvalues --    0.55205   0.57083   0.58418   0.69436   0.74065
 Alpha virt. eigenvalues --    0.74450   0.77174   0.81040   0.82790   0.83970

 Mulliken charges:
               1
     1  O   -0.530281
     2  H    0.274665
     3  H    0.241700
     4  O   -0.495098
     5  H    0.256776
     6  H    0.252238
 Sum of Mulliken charges =  -0.00000

 Dipole moment (field-independent basis, Debye):
    X=             -2.5720    Y=             -3.1725    Z=             -0.0000  Tot=              4.0841
 Quadrupole moment (field-independent basis, Debye-Ang):
   XX=             -9.9823   YY=             -8.4666   ZZ=            -14.7252
   XY=             -3.0291   XZ=             -0.0000   YZ=             -0.0000

 296\MP4DQ=-152.6476894\MP4SDQ=-152.6508194\CCSD=-152.6501917\CCSD(T)=-
 Normal termination of Gaussian 16 at Sat Aug 27 23:07:21 2022.
