 Gaussian 16, Revision A.03,
 Gaussian 16:  ES64L-G16RevA.03 25-Dec-2016

 ------------------
 #p CCSD(T)/cc-pVTZ
 ------------------

 ------------
 H2O_H2O_2856
 ------------
 Symbolic Z-matrix:
 Charge =  0 Multiplicity = 1

                         Standard orientation:
 ---------------------------------------------------------------------
 Center     Atomic      Atomic             Coordinates (Angstroms)
 Number     Number       Type             X           Y           Z
 ---------------------------------------------------------------------
      1          8           0        0.076761    2.240194    0.000000
      2          1           0        0.076124    1.257593    0.000000
      3          1           0       -0.852526    2.559463    0.000000
      4          8           0        0.076761   -2.076990    0.000000
      5          1           0        0.452199   -2.985040    0.000000
      6          1           0       -0.903967   -2.137648    0.000000
 ---------------------------------------------------------------------

 SCF Done:  E(RHF) =  -152.109283741     A.U. after   10 cycles
 E2 =    -0.5260491122D+00 EUMP2 =    -0.15263533285373D+03
 CCSD(T)
 CCSD(T)= -0.15266248253D+03

 The electronic state is 1-A'.
 Alpha  occ. eigenvalues --  -20.56727 -20.54645  -1.34009  -1.31959  -0.71426
 Alpha  occ. eigenvalues --   -0.69341  -0.57524  -0.55428  -0.51130  -0.49085
 Alpha virt. eigenvalues --    0.12076   0.15876   0.19445   0.23004   0.53807
 Alpha virt. eigenvalues --    0.55194   0.56308   0.58506   0.68480   0.69361
 Alpha virt. eigenvalues --    0.77738   0.78912   0.79767   0.80404   0.83001

 Mulliken charges:
               1
     1  O   -0.515745
     2  H    0.263459
     3  H    0.249271
     4  O   -0.510426
     5  H    0.259834
     6  H    0.253606
 Sum of Mulliken charges =  -0.00000

 Dipole moment (field-independent basis, Debye):
    X=             -2.6130    Y=             -2.9482    Z=              0.0000  Tot=              3.9395
 Quadrupole moment (field-independent basis, Debye-Ang):
   XX=             -9.9584   YY=             -7.8970   ZZ=            -14.7174
   XY=             -3.3332   XZ=              0.0000   YZ=              0.0000

 CCSD(T)=-152.6624825\RMSD=6.986e-09\PG=CS [SG(H4O2)]\\@
 Normal termination of Gaussian 16 at Fri Aug 26 17:48:03 2022.
