 Gaussian 16, Revision A.03,
 Gaussian 16:  ES64L-G16RevA.03 25-Dec-2016

 ------------------
 #p CCSD(T)/cc-pVTZ
 ------------------

 -----------
 H2O_H2O_879
 -----------
 Symbolic Z-matrix:
 Charge =  0 Multiplicity = 1

                         Standard orientation:
 ---------------------------------------------------------------------
 Center     Atomic      Atomic             Coordinates (Angstroms)
 Number     Number       Type             X           Y           Z
 ---------------------------------------------------------------------
      1          8           0        0.082823   -1.447672    0.000000
      2          1           0        0.082195   -0.465071    0.000000
      3          1           0       -0.846466   -1.766933    0.000000
      4          8           0        0.082823    1.293196    0.000000
      5          1           0        0.336533    2.242479    0.000000
      6          1           0       -0.897432    1.225332    0.000000
 ---------------------------------------------------------------------

 SCF Done:  E(RHF) =  -152.107685414     A.U. after   10 cycles
 E2 =    -0.5298754967D+00 EUMP2 =    -0.15263756091095D+03
 CCSD(T)
 CCSD(T)= -0.15266439762D+03

 The electronic state is 1-A'.
 Alpha  occ. eigenvalues --  -20.59026 -20.52297  -1.36771  -1.29978  -0.74691
 Alpha  occ. eigenvalues --   -0.68177  -0.59697  -0.53662  -0.52992  -0.47034
 Alpha virt. eigenvalues --    0.11467   0.16713   0.20192   0.31681   0.48259
 Alpha virt. eigenvalues --    0.53682   0.58617   0.61025   0.69216   0.72086
 Alpha virt. eigenvalues --    0.74367   0.77583   0.80420   0.82575   0.83595

 Mulliken charges:
               1
     1  O   -0.553400
     2  H    0.291257
     3  H    0.229294
     4  O   -0.442377
     5  H    0.236276
     6  H    0.238950
 Sum of Mulliken charges =  -0.00000

 Dipole moment (field-independent basis, Debye):
    X=             -2.7106    Y=              3.3362    Z=              0.0000  Tot=              4.2986
 Quadrupole moment (field-independent basis, Debye-Ang):
   XX=            -10.2932   YY=             -8.9989   ZZ=            -14.6946
   XY=              2.6276   XZ=              0.0000   YZ=              0.0000

 Normal termination of Gaussian 16 at Fri Aug 26 21:05:38 2022.
