 Gaussian 16, Revision A.03,
 Gaussian 16:  ES64L-G16RevA.03 25-Dec-2016

 ------------------
 #p CCSD(T)/cc-pVTZ
 ------------------

 ------------
 H2O_H2O_2671
 ------------
 Symbolic Z-matrix:
 Charge =  0 Multiplicity = 1

                         Standard orientation:
 ---------------------------------------------------------------------
 Center     Atomic      Atomic             Coordinates (Angstroms)
 Number     Number       Type             X           Y           Z
 ---------------------------------------------------------------------
      1          8           0       -0.023229    2.164323    0.000000
      2          1           0       -0.020383    1.181726    0.000000
      3          1           0        0.905337    2.485681    0.000000
      4          8           0       -0.023229   -1.993947    0.000000
      5          1           0       -0.986391   -2.188435    0.000000
      6          1           0        0.473108   -2.841978    0.000000
 ---------------------------------------------------------------------

 SCF Done:  E(RHF) =  -152.110516869     A.U. after   10 cycles
 E2 =    -0.5260102219D+00 EUMP2 =    -0.15263652709072D+03
 CCSD(T)
 CCSD(T)= -0.15266364872D+03

 The electronic state is 1-A'.
 Alpha  occ. eigenvalues --  -20.56810 -20.54362  -1.34085  -1.31689  -0.71488
 Alpha  occ. eigenvalues --   -0.69094  -0.57658  -0.55181  -0.51217  -0.48832
 Alpha virt. eigenvalues --    0.12312   0.16249   0.19298   0.23755   0.53509
 Alpha virt. eigenvalues --    0.55580   0.56375   0.58565   0.68903   0.69926
 Alpha virt. eigenvalues --    0.77582   0.79109   0.80009   0.80494   0.83435

 Mulliken charges:
               1
     1  O   -0.522956
     2  H    0.264947
     3  H    0.253548
     4  O   -0.513377
     5  H    0.259717
     6  H    0.258121
 Sum of Mulliken charges =  -0.00000

 Dipole moment (field-independent basis, Debye):
    X=              0.7934    Y=             -3.0992    Z=              0.0000  Tot=              3.1992
 Quadrupole moment (field-independent basis, Debye-Ang):
   XX=             -9.3614   YY=             -7.7138   ZZ=            -14.7217
   XY=              5.3662   XZ=              0.0000   YZ=              0.0000

 Normal termination of Gaussian 16 at Fri Aug 26 16:27:20 2022.
