 Gaussian 16, Revision A.03,
 Gaussian 16:  ES64L-G16RevA.03 25-Dec-2016

 ------------------
 #p CCSD(T)/cc-pVTZ
 ------------------

 ------------
 H2O_H2O_4286
 ------------
 Symbolic Z-matrix:
 Charge =  0 Multiplicity = 1

                         Standard orientation:
 ---------------------------------------------------------------------
 Center     Atomic      Atomic             Coordinates (Angstroms)
 Number     Number       Type             X           Y           Z
 ---------------------------------------------------------------------
      1          8           0        0.059622    2.816344    0.000000
      2          1           0        0.058585    1.833743    0.000000
      3          1           0       -0.869535    3.135991    0.000000
      4          8           0        0.059622   -2.638873   -0.000000
      5          1           0        0.706716   -3.378315   -0.000000
      6          1           0       -0.849713   -3.011186   -0.000000
 ---------------------------------------------------------------------

 SCF Done:  E(RHF) =  -152.108425219     A.U. after   10 cycles
 E2 =    -0.5258228493D+00 EUMP2 =    -0.15263424806836D+03
 CCSD(T)
 CCSD(T)= -0.15266144320D+03

 The electronic state is 1-A'.
 Alpha  occ. eigenvalues --  -20.56231 -20.54923  -1.33531  -1.32231  -0.70936
 Alpha  occ. eigenvalues --   -0.69630  -0.57024  -0.55701  -0.50649  -0.49354
 Alpha virt. eigenvalues --    0.13213   0.15010   0.19634   0.21144   0.53564
 Alpha virt. eigenvalues --    0.54884   0.56616   0.57805   0.66744   0.68885
 Alpha virt. eigenvalues --    0.78240   0.79454   0.79501   0.80121   0.82749

 Mulliken charges:
               1
     1  O   -0.513633
     2  H    0.260747
     3  H    0.252663
     4  O   -0.514458
     5  H    0.258812
     6  H    0.255869
 Sum of Mulliken charges =   0.00000

 Dipole moment (field-independent basis, Debye):
    X=             -2.0433    Y=             -3.1220    Z=             -0.0000  Tot=              3.7312
 Quadrupole moment (field-independent basis, Debye-Ang):
   XX=             -9.3619   YY=             -6.5182   ZZ=            -14.7148
   XY=             -4.7980   XZ=             -0.0000   YZ=             -0.0000

 Normal termination of Gaussian 16 at Sun Aug 28 01:29:32 2022.
