 Gaussian 16, Revision A.03,
 Gaussian 16:  ES64L-G16RevA.03 25-Dec-2016

 ------------------
 #p CCSD(T)/cc-pVTZ
 ------------------

 ------------
 H2O_H2O_4793
 ------------
 Symbolic Z-matrix:
 Charge =  0 Multiplicity = 1

                         Standard orientation:
 ---------------------------------------------------------------------
 Center     Atomic      Atomic             Coordinates (Angstroms)
 Number     Number       Type             X           Y           Z
 ---------------------------------------------------------------------
      1          8           0        0.033745    3.015832    0.000000
      2          1           0        0.032029    2.033233    0.000000
      3          1           0       -0.895190    3.336121   -0.000000
      4          8           0        0.033745   -2.838275    0.000000
      5          1           0        0.940893   -3.215884    0.000000
      6          1           0       -0.617652   -3.573931   -0.000000
 ---------------------------------------------------------------------

 SCF Done:  E(RHF) =  -152.108343642     A.U. after   10 cycles
 E2 =    -0.5258010025D+00 EUMP2 =    -0.15263414464498D+03
 CCSD(T)
 CCSD(T)= -0.15266134497D+03

 The electronic state is 1-A'.
 Alpha  occ. eigenvalues --  -20.56134 -20.55016  -1.33436  -1.32322  -0.70840
 Alpha  occ. eigenvalues --   -0.69726  -0.56927  -0.55793  -0.50555  -0.49445
 Alpha virt. eigenvalues --    0.13482   0.14821   0.19712   0.20954   0.53686
 Alpha virt. eigenvalues --    0.54821   0.56708   0.57776   0.66988   0.68570
 Alpha virt. eigenvalues --    0.78329   0.79413   0.79705   0.80464   0.82350

 Mulliken charges:
               1
     1  O   -0.513758
     2  H    0.259709
     3  H    0.253994
     4  O   -0.514348
     5  H    0.257518
     6  H    0.256886
 Sum of Mulliken charges =  -0.00000

 Dipole moment (field-independent basis, Debye):
    X=             -1.1585    Y=             -3.1093    Z=             -0.0000  Tot=              3.3181
 Quadrupole moment (field-independent basis, Debye-Ang):
   XX=             -9.1871   YY=             -6.1956   ZZ=            -14.7146
   XY=             -6.6866   XZ=              0.0000   YZ=             -0.0000

 Normal termination of Gaussian 16 at Sun Aug 28 05:55:52 2022.
