 Gaussian 16, Revision A.03,
 Gaussian 16:  ES64L-G16RevA.03 25-Dec-2016

 ------------------
 #p CCSD(T)/cc-pVTZ
 ------------------

 ------------
 H2O_H2O_2277
 ------------
 Symbolic Z-matrix:
 Charge =  0 Multiplicity = 1

                         Standard orientation:
 ---------------------------------------------------------------------
 Center     Atomic      Atomic             Coordinates (Angstroms)
 Number     Number       Type             X           Y           Z
 ---------------------------------------------------------------------
      1          8           0        0.088234   -2.000579    0.000000
      2          1           0        0.088026   -1.017977    0.000000
      3          1           0       -0.841192   -2.319442    0.000000
      4          8           0        0.088234    1.856265    0.000000
      5          1           0        0.216284    2.830488    0.000000
      6          1           0       -0.874861    1.661444    0.000000
 ---------------------------------------------------------------------

 SCF Done:  E(RHF) =  -152.109222587     A.U. after   10 cycles
 E2 =    -0.5264142657D+00 EUMP2 =    -0.15263563685293D+03
 CCSD(T)
 CCSD(T)= -0.15266277144D+03

 The electronic state is 1-A'.
 Alpha  occ. eigenvalues --  -20.57084 -20.54727  -1.34370  -1.32039  -0.71837
 Alpha  occ. eigenvalues --   -0.69393  -0.57878  -0.55483  -0.51477  -0.49158
 Alpha virt. eigenvalues --    0.11608   0.16070   0.19831   0.24623   0.52954
 Alpha virt. eigenvalues --    0.55785   0.56587   0.57685   0.68473   0.72199
 Alpha virt. eigenvalues --    0.76918   0.79492   0.79824   0.80459   0.83374

 Mulliken charges:
               1
     1  O   -0.515329
     2  H    0.264476
     3  H    0.246234
     4  O   -0.503343
     5  H    0.259030
     6  H    0.248932
 Sum of Mulliken charges =   0.00000

 Dipole moment (field-independent basis, Debye):
    X=             -2.9858    Y=              2.6591    Z=              0.0000  Tot=              3.9982
 Quadrupole moment (field-independent basis, Debye-Ang):
   XX=            -10.5769   YY=             -8.7433   ZZ=            -14.7162
   XY=              2.5229   XZ=              0.0000   YZ=              0.0000

 Normal termination of Gaussian 16 at Sun Aug 28 05:56:36 2022.
