 Gaussian 16, Revision A.03,
 Gaussian 16:  ES64L-G16RevA.03 25-Dec-2016

 ------------------
 #p CCSD(T)/cc-pVTZ
 ------------------

 ------------
 H2O_H2O_3753
 ------------
 Symbolic Z-matrix:
 Charge =  0 Multiplicity = 1

                         Standard orientation:
 ---------------------------------------------------------------------
 Center     Atomic      Atomic             Coordinates (Angstroms)
 Number     Number       Type             X           Y           Z
 ---------------------------------------------------------------------
      1          8           0        0.085599   -2.591794    0.000000
      2          1           0        0.085351   -1.609193    0.000000
      3          1           0       -0.843814   -2.910695    0.000000
      4          8           0        0.085599    2.442193    0.000000
      5          1           0        0.277052    3.405962    0.000000
      6          1           0       -0.888170    2.310738    0.000000
 ---------------------------------------------------------------------

 SCF Done:  E(RHF) =  -152.108103312     A.U. after   10 cycles
 E2 =    -0.5259040904D+00 EUMP2 =    -0.15263400740216D+03
 CCSD(T)
 CCSD(T)= -0.15266120401D+03

 The electronic state is 1-A'.
 Alpha  occ. eigenvalues --  -20.56375 -20.55091  -1.33673  -1.32396  -0.71090
 Alpha  occ. eigenvalues --   -0.69787  -0.57148  -0.55854  -0.50786  -0.49512
 Alpha virt. eigenvalues --    0.12329   0.15185   0.19146   0.21999   0.53210
 Alpha virt. eigenvalues --    0.55024   0.56473   0.57952   0.66776   0.68964
 Alpha virt. eigenvalues --    0.78115   0.78849   0.79351   0.81103   0.82568

 Mulliken charges:
               1
     1  O   -0.511205
     2  H    0.259523
     3  H    0.251175
     4  O   -0.511864
     5  H    0.259475
     6  H    0.252896
 Sum of Mulliken charges =   0.00000

 Dipole moment (field-independent basis, Debye):
    X=             -2.9276    Y=              2.6475    Z=              0.0000  Tot=              3.9472
 Quadrupole moment (field-independent basis, Debye-Ang):
   XX=            -10.4009   YY=             -8.2760   ZZ=            -14.7134
   XY=              2.8626   XZ=              0.0000   YZ=              0.0000

 CCSD(T)=-152.661204\RMSD=7.235e-09\PG=CS [SG(H4O2)]\\@
 Normal termination of Gaussian 16 at Fri Aug 26 23:28:59 2022.
