 Gaussian 16, Revision A.03,
 Gaussian 16:  ES64L-G16RevA.03 25-Dec-2016

 ------------------
 #p CCSD(T)/cc-pVTZ
 ------------------

 ------------
 H2O_H2O_3851
 ------------
 Symbolic Z-matrix:
 Charge =  0 Multiplicity = 1

                         Standard orientation:
 ---------------------------------------------------------------------
 Center     Atomic      Atomic             Coordinates (Angstroms)
 Number     Number       Type             X           Y           Z
 ---------------------------------------------------------------------
      1          8           0        0.090684   -2.625766    0.000000
      2          1           0        0.090609   -1.643165    0.000000
      3          1           0       -0.838785   -2.944504    0.000000
      4          8           0        0.090684    2.487056    0.000000
      5          1           0        0.154875    3.467559    0.000000
      6          1           0       -0.857641    2.229791    0.000000
 ---------------------------------------------------------------------

 SCF Done:  E(RHF) =  -152.107839782     A.U. after   10 cycles
 E2 =    -0.5259115654D+00 EUMP2 =    -0.15263375134721D+03
 CCSD(T)
 CCSD(T)= -0.15266095605D+03

 The electronic state is 1-A'.
 Alpha  occ. eigenvalues --  -20.56352 -20.55224  -1.33652  -1.32526  -0.71070
 Alpha  occ. eigenvalues --   -0.69919  -0.57117  -0.55980  -0.50762  -0.49640
 Alpha virt. eigenvalues --    0.12184   0.15092   0.18954   0.22229   0.53161
 Alpha virt. eigenvalues --    0.54965   0.56484   0.57885   0.66775   0.68802
 Alpha virt. eigenvalues --    0.78138   0.79028   0.79230   0.81394   0.82390

 Mulliken charges:
               1
     1  O   -0.510037
     2  H    0.258433
     3  H    0.251279
     4  O   -0.510921
     5  H    0.259217
     6  H    0.252029
 Sum of Mulliken charges =   0.00000

 Dipole moment (field-independent basis, Debye):
    X=             -3.1028    Y=              2.4503    Z=              0.0000  Tot=              3.9536
 Quadrupole moment (field-independent basis, Debye-Ang):
   XX=            -10.7034   YY=             -8.8983   ZZ=            -14.7124
   XY=              2.3956   XZ=              0.0000   YZ=              0.0000

 Normal termination of Gaussian 16 at Sat Aug 27 00:05:06 2022.
