 Gaussian 16, Revision A.03,
 Gaussian 16:  ES64L-G16RevA.03 25-Dec-2016

 ------------------
 #p CCSD(T)/cc-pVTZ
 ------------------

 ------------
 H2O_H2O_1350
 ------------
 Symbolic Z-matrix:
 Charge =  0 Multiplicity = 1

                         Standard orientation:
 ---------------------------------------------------------------------
 Center     Atomic      Atomic             Coordinates (Angstroms)
 Number     Number       Type             X           Y           Z
 ---------------------------------------------------------------------
      1          8           0        0.092949   -1.625356    0.000000
      2          1           0        0.092949   -0.642754    0.000000
      3          1           0       -0.836544   -1.944022    0.000000
      4          8           0        0.092949    1.492569    0.000000
      5          1           0        0.092950    2.475171    0.000000
      6          1           0       -0.836544    1.173902    0.000000
 ---------------------------------------------------------------------

 SCF Done:  E(RHF) =  -152.108397071     A.U. after   10 cycles
 E2 =    -0.5281349961D+00 EUMP2 =    -0.15263653206665D+03
 CCSD(T)
 CCSD(T)= -0.15266360996D+03

 The electronic state is 1-A'.
 Alpha  occ. eigenvalues --  -20.58069 -20.54284  -1.35491  -1.31666  -0.73406
 Alpha  occ. eigenvalues --   -0.68814  -0.58931  -0.54996  -0.52509  -0.48751
 Alpha virt. eigenvalues --    0.11470   0.16316   0.20606   0.28563   0.49224
 Alpha virt. eigenvalues --    0.53861   0.57769   0.58829   0.67833   0.72949
 Alpha virt. eigenvalues --    0.74062   0.78147   0.80676   0.81379   0.83223

 Mulliken charges:
               1
     1  O   -0.522639
     2  H    0.274852
     3  H    0.237330
     4  O   -0.472569
     5  H    0.245611
     6  H    0.237416
 Sum of Mulliken charges =  -0.00000

 Dipole moment (field-independent basis, Debye):
    X=             -3.0926    Y=              2.6363    Z=              0.0000  Tot=              4.0638
 Quadrupole moment (field-independent basis, Debye-Ang):
   XX=            -10.9007   YY=             -9.1588   ZZ=            -14.7056
   XY=              2.1088   XZ=              0.0000   YZ=              0.0000

 Normal termination of Gaussian 16 at Sat Aug 27 00:02:28 2022.
