 Gaussian 16, Revision A.03,
 Gaussian 16:  ES64L-G16RevA.03 25-Dec-2016

 ------------------
 #p CCSD(T)/cc-pVTZ
 ------------------

 ------------
 H2O_H2O_4562
 ------------
 Symbolic Z-matrix:
 Charge =  0 Multiplicity = 1

                         Standard orientation:
 ---------------------------------------------------------------------
 Center     Atomic      Atomic             Coordinates (Angstroms)
 Number     Number       Type             X           Y           Z
 ---------------------------------------------------------------------
      1          8           0        0.055964    2.926834   -0.000000
      2          1           0        0.054858    1.944233   -0.000000
      3          1           0       -0.873169    3.246546   -0.000000
      4          8           0        0.055964   -2.747894    0.000000
      5          1           0        0.749986   -3.443479    0.000000
      6          1           0       -0.827104   -3.178820    0.000000
 ---------------------------------------------------------------------

 SCF Done:  E(RHF) =  -152.108327363     A.U. after   10 cycles
 E2 =    -0.5258144887D+00 EUMP2 =    -0.15263414185161D+03
 CCSD(T)
 CCSD(T)= -0.15266134110D+03

 The electronic state is 1-A'.
 Alpha  occ. eigenvalues --  -20.56177 -20.54971  -1.33478  -1.32278  -0.70883
 Alpha  occ. eigenvalues --   -0.69678  -0.56968  -0.55746  -0.50596  -0.49399
 Alpha virt. eigenvalues --    0.13376   0.14892   0.19687   0.21015   0.53649
 Alpha virt. eigenvalues --    0.54843   0.56663   0.57787   0.66873   0.68713
 Alpha virt. eigenvalues --    0.78290   0.79458   0.79645   0.80245   0.82617

 Mulliken charges:
               1
     1  O   -0.513362
     2  H    0.260241
     3  H    0.253013
     4  O   -0.514167
     5  H    0.258334
     6  H    0.255941
 Sum of Mulliken charges =   0.00000

 Dipole moment (field-independent basis, Debye):
    X=             -1.9195    Y=             -3.1396    Z=              0.0000  Tot=              3.6799
 Quadrupole moment (field-independent basis, Debye-Ang):
   XX=             -9.2850   YY=             -6.2636   ZZ=            -14.7145
   XY=             -5.1546   XZ=              0.0000   YZ=             -0.0000

 Normal termination of Gaussian 16 at Sun Aug 28 03:52:13 2022.
