 Gaussian 16, Revision A.03,
 Gaussian 16:  ES64L-G16RevA.03 25-Dec-2016

 ------------------
 #p CCSD(T)/cc-pVTZ
 ------------------

 -----------
 H2O_H2O_575
 -----------
 Symbolic Z-matrix:
 Charge =  0 Multiplicity = 1

                         Standard orientation:
 ---------------------------------------------------------------------
 Center     Atomic      Atomic             Coordinates (Angstroms)
 Number     Number       Type             X           Y           Z
 ---------------------------------------------------------------------
      1          8           0        0.092949   -1.316226    0.000000
      2          1           0        0.092949   -0.333625    0.000000
      3          1           0       -0.836544   -1.634893    0.000000
      4          8           0        0.092949    1.183439    0.000000
      5          1           0        0.092949    2.166041    0.000000
      6          1           0       -0.836544    0.864772    0.000000
 ---------------------------------------------------------------------

 SCF Done:  E(RHF) =  -152.091943072     A.U. after   11 cycles
 E2 =    -0.5329332647D+00 EUMP2 =    -0.15262487633641D+03
 CCSD(T)
 CCSD(T)= -0.15265149225D+03

 The electronic state is 1-A'.
 Alpha  occ. eigenvalues --  -20.59745 -20.51896  -1.38442  -1.29841  -0.77723
 Alpha  occ. eigenvalues --   -0.67742  -0.59760  -0.54741  -0.52647  -0.46820
 Alpha virt. eigenvalues --    0.11299   0.16346   0.21138   0.32081   0.48373
 Alpha virt. eigenvalues --    0.51789   0.58917   0.64859   0.70033   0.71030
 Alpha virt. eigenvalues --    0.73774   0.77833   0.78712   0.82491   0.83260

 Mulliken charges:
               1
     1  O   -0.554431
     2  H    0.284127
     3  H    0.216228
     4  O   -0.404566
     5  H    0.231928
     6  H    0.226713
 Sum of Mulliken charges =  -0.00000

 Dipole moment (field-independent basis, Debye):
    X=             -3.0027    Y=              3.1568    Z=              0.0000  Tot=              4.3568
 Quadrupole moment (field-independent basis, Debye-Ang):
   XX=            -10.8838   YY=             -9.4502   ZZ=            -14.6389
   XY=              2.0223   XZ=              0.0000   YZ=              0.0000

 Normal termination of Gaussian 16 at Fri Aug 26 19:10:07 2022.
