 Gaussian 16, Revision A.03,
 Gaussian 16:  ES64L-G16RevA.03 25-Dec-2016

 ------------------
 #p CCSD(T)/cc-pVTZ
 ------------------

 ------------
 H2O_H2O_3762
 ------------
 Symbolic Z-matrix:
 Charge =  0 Multiplicity = 1

                         Standard orientation:
 ---------------------------------------------------------------------
 Center     Atomic      Atomic             Coordinates (Angstroms)
 Number     Number       Type             X           Y           Z
 ---------------------------------------------------------------------
      1          8           0        0.055977    2.607724    0.000000
      2          1           0        0.054731    1.625124    0.000000
      3          1           0       -0.873111    2.927569    0.000000
      4          8           0        0.055977   -2.428800   -0.000000
      5          1           0        0.749900   -3.124484   -0.000000
      6          1           0       -0.827152   -2.859600   -0.000000
 ---------------------------------------------------------------------

 SCF Done:  E(RHF) =  -152.108840575     A.U. after   10 cycles
 E2 =    -0.5258446259D+00 EUMP2 =    -0.15263468520083D+03
 CCSD(T)
 CCSD(T)= -0.15266186469D+03

 The electronic state is 1-A'.
 Alpha  occ. eigenvalues --  -20.56360 -20.54763  -1.33655  -1.32075  -0.71059
 Alpha  occ. eigenvalues --   -0.69471  -0.57162  -0.55551  -0.50777  -0.49201
 Alpha virt. eigenvalues --    0.12900   0.15329   0.19586   0.21504   0.53470
 Alpha virt. eigenvalues --    0.54973   0.56525   0.57904   0.66754   0.69222
 Alpha virt. eigenvalues --    0.78123   0.79140   0.79644   0.79727   0.82936

 Mulliken charges:
               1
     1  O   -0.515148
     2  H    0.262102
     3  H    0.252277
     4  O   -0.515185
     5  H    0.259539
     6  H    0.256416
 Sum of Mulliken charges =  -0.00000

 Dipole moment (field-independent basis, Debye):
    X=             -1.9151    Y=             -3.1696    Z=             -0.0000  Tot=              3.7032
 Quadrupole moment (field-independent basis, Debye-Ang):
   XX=             -9.2858   YY=             -6.7649   ZZ=            -14.7163
   XY=             -4.7454   XZ=             -0.0000   YZ=             -0.0000

 CCSD(T)=-152.6618647\RMSD=7.077e-09\PG=CS [SG(H4O2)]\\@
 Normal termination of Gaussian 16 at Fri Aug 26 23:31:59 2022.
