 Gaussian 16, Revision A.03,
 Gaussian 16:  ES64L-G16RevA.03 25-Dec-2016

 ------------------
 #p CCSD(T)/cc-pVTZ
 ------------------

 ----------
 H2O_H2O_77
 ----------
 Symbolic Z-matrix:
 Charge =  0 Multiplicity = 1

                         Standard orientation:
 ---------------------------------------------------------------------
 Center     Atomic      Atomic             Coordinates (Angstroms)
 Number     Number       Type             X           Y           Z
 ---------------------------------------------------------------------
      1          8           0        0.088247   -1.123033    0.000000
      2          1           0        0.087866   -0.140432    0.000000
      3          1           0       -0.841123   -1.442060    0.000000
      4          8           0        0.088247    0.978750    0.000000
      5          1           0        0.216125    1.952996    0.000000
      6          1           0       -0.874813    0.783760    0.000000
 ---------------------------------------------------------------------

 SCF Done:  E(RHF) =  -152.030028004     A.U. after   11 cycles
 E2 =    -0.5387957839D+00 EUMP2 =    -0.15256882378797D+03
 CCSD(T)
 CCSD(T)= -0.15259439941D+03

 The electronic state is 1-A'.
 Alpha  occ. eigenvalues --  -20.61643 -20.46921  -1.44179  -1.26404  -0.83546
 Alpha  occ. eigenvalues --   -0.71388  -0.58191  -0.56226  -0.47530  -0.43164
 Alpha virt. eigenvalues --    0.10608   0.15791   0.21803   0.31589   0.49415
 Alpha virt. eigenvalues --    0.50735   0.60066   0.66492   0.70874   0.72478
 Alpha virt. eigenvalues --    0.75207   0.78613   0.80226   0.86149   0.86149

 Mulliken charges:
               1
     1  O   -0.609727
     2  H    0.257540
     3  H    0.186839
     4  O   -0.300098
     5  H    0.226824
     6  H    0.238623
 Sum of Mulliken charges =  -0.00000

 Dipole moment (field-independent basis, Debye):
    X=             -2.7245    Y=              4.1741    Z=              0.0000  Tot=              4.9846
 Quadrupole moment (field-independent basis, Debye-Ang):
   XX=            -10.5004   YY=             -9.9762   ZZ=            -14.5133
   XY=              2.1402   XZ=              0.0000   YZ=              0.0000

 Normal termination of Gaussian 16 at Fri Aug 26 15:42:17 2022.
