 Gaussian 16, Revision A.03,
 Gaussian 16:  ES64L-G16RevA.03 25-Dec-2016

 ------------------
 #p CCSD(T)/cc-pVTZ
 ------------------

 ------------
 H2O_H2O_4841
 ------------
 Symbolic Z-matrix:
 Charge =  0 Multiplicity = 1

                         Standard orientation:
 ---------------------------------------------------------------------
 Center     Atomic      Atomic             Coordinates (Angstroms)
 Number     Number       Type             X           Y           Z
 ---------------------------------------------------------------------
      1          8           0        0.041099    3.037081    0.000000
      2          1           0        0.039607    2.054481    0.000000
      3          1           0       -0.887908    3.357159    0.000000
      4          8           0        0.041099   -2.857119   -0.000000
      5          1           0        0.891311   -3.349712   -0.000000
      6          1           0       -0.700601   -3.501625   -0.000000
 ---------------------------------------------------------------------

 SCF Done:  E(RHF) =  -152.108305038     A.U. after   10 cycles
 E2 =    -0.5258041452D+00 EUMP2 =    -0.15263410918344D+03
 CCSD(T)
 CCSD(T)= -0.15266131032D+03

 The electronic state is 1-A'.
 Alpha  occ. eigenvalues --  -20.56128 -20.55011  -1.33431  -1.32317  -0.70835
 Alpha  occ. eigenvalues --   -0.69720  -0.56919  -0.55787  -0.50549  -0.49440
 Alpha virt. eigenvalues --    0.13507   0.14808   0.19737   0.20926   0.53713
 Alpha virt. eigenvalues --    0.54814   0.56711   0.57777   0.67013   0.68559
 Alpha virt. eigenvalues --    0.78335   0.79419   0.79740   0.80438   0.82333

 Mulliken charges:
               1
     1  O   -0.513503
     2  H    0.259741
     3  H    0.253713
     4  O   -0.514129
     5  H    0.257664
     6  H    0.256514
 Sum of Mulliken charges =   0.00000

 Dipole moment (field-independent basis, Debye):
    X=             -1.4108    Y=             -3.1507    Z=             -0.0000  Tot=              3.4521
 Quadrupole moment (field-independent basis, Debye-Ang):
   XX=             -9.1496   YY=             -6.0193   ZZ=            -14.7145
   XY=             -6.2508   XZ=             -0.0000   YZ=              0.0000

 Normal termination of Gaussian 16 at Sun Aug 28 06:18:33 2022.
