 Gaussian 16, Revision A.03,
 Gaussian 16:  ES64L-G16RevA.03 25-Dec-2016

 ------------------
 #p CCSD(T)/cc-pVTZ
 ------------------

 ------------
 H2O_H2O_1893
 ------------
 Symbolic Z-matrix:
 Charge =  0 Multiplicity = 1

                         Standard orientation:
 ---------------------------------------------------------------------
 Center     Atomic      Atomic             Coordinates (Angstroms)
 Number     Number       Type             X           Y           Z
 ---------------------------------------------------------------------
      1          8           0        0.033846    1.859053    0.000000
      2          1           0        0.031010    0.876456    0.000000
      3          1           0       -0.894723    2.180401    0.000000
      4          8           0        0.033846   -1.681572    0.000000
      5          1           0        0.940563   -2.060216    0.000000
      6          1           0       -0.618389   -2.416484    0.000000
 ---------------------------------------------------------------------

 SCF Done:  E(RHF) =  -152.112778996     A.U. after   10 cycles
 E2 =    -0.5265036296D+00 EUMP2 =    -0.15263928262570D+03
 CCSD(T)
 CCSD(T)= -0.15266633362D+03

 The electronic state is 1-A'.
 Alpha  occ. eigenvalues --  -20.57456 -20.53566  -1.34712  -1.30939  -0.72094
 Alpha  occ. eigenvalues --   -0.68397  -0.58443  -0.54385  -0.51852  -0.48096
 Alpha virt. eigenvalues --    0.12225   0.17174   0.19105   0.26826   0.51659
 Alpha virt. eigenvalues --    0.54651   0.56303   0.59094   0.69080   0.72549
 Alpha virt. eigenvalues --    0.75860   0.77512   0.80862   0.83369   0.84473

 Mulliken charges:
               1
     1  O   -0.533064
     2  H    0.270149
     3  H    0.250424
     4  O   -0.508599
     5  H    0.262576
     6  H    0.258514
 Sum of Mulliken charges =  -0.00000

 Dipole moment (field-independent basis, Debye):
    X=             -1.1447    Y=             -3.3645    Z=             -0.0000  Tot=              3.5539
 Quadrupole moment (field-independent basis, Debye-Ang):
   XX=             -9.1877   YY=             -8.0007   ZZ=            -14.7308
   XY=             -4.3164   XZ=             -0.0000   YZ=             -0.0000

 Normal termination of Gaussian 16 at Sun Aug 28 02:28:30 2022.
