 Gaussian 16, Revision A.03,
 Gaussian 16:  ES64L-G16RevA.03 25-Dec-2016

 ------------------
 #p CCSD(T)/cc-pVTZ
 ------------------

 ------------
 H2O_H2O_1555
 ------------
 Symbolic Z-matrix:
 Charge =  0 Multiplicity = 1

                         Standard orientation:
 ---------------------------------------------------------------------
 Center     Atomic      Atomic             Coordinates (Angstroms)
 Number     Number       Type             X           Y           Z
 ---------------------------------------------------------------------
      1          8           0        0.079867   -1.719388    0.000000
      2          1           0        0.079189   -0.736787    0.000000
      3          1           0       -0.849406   -2.038695    0.000000
      4          8           0        0.079867    1.560357    0.000000
      5          1           0        0.395073    2.491030    0.000000
      6          1           0       -0.902727    1.556700    0.000000
 ---------------------------------------------------------------------

 SCF Done:  E(RHF) =  -152.111384358     A.U. after   10 cycles
 E2 =    -0.5272542407D+00 EUMP2 =    -0.15263863859834D+03
 CCSD(T)
 CCSD(T)= -0.15266568441D+03

 The electronic state is 1-A'.
 Alpha  occ. eigenvalues --  -20.57834 -20.53731  -1.35149  -1.31117  -0.72656
 Alpha  occ. eigenvalues --   -0.68547  -0.58787  -0.54482  -0.52245  -0.48240
 Alpha virt. eigenvalues --    0.11743   0.16701   0.19732   0.27979   0.49898
 Alpha virt. eigenvalues --    0.55180   0.57258   0.58253   0.69255   0.74350
 Alpha virt. eigenvalues --    0.74408   0.77300   0.80955   0.82694   0.83844

 Mulliken charges:
               1
     1  O   -0.528814
     2  H    0.274270
     3  H    0.241328
     4  O   -0.492906
     5  H    0.255156
     6  H    0.250965
 Sum of Mulliken charges =  -0.00000

 Dipole moment (field-independent basis, Debye):
    X=             -2.6746    Y=              3.0905    Z=              0.0000  Tot=              4.0872
 Quadrupole moment (field-independent basis, Debye-Ang):
   XX=            -10.1320   YY=             -8.5421   ZZ=            -14.7231
   XY=              2.9012   XZ=              0.0000   YZ=              0.0000

 Normal termination of Gaussian 16 at Sat Aug 27 23:06:58 2022.
