 Gaussian 16, Revision A.03,
 Gaussian 16:  ES64L-G16RevA.03 25-Dec-2016

 ------------------
 #p CCSD(T)/cc-pVTZ
 ------------------

 ------------
 H2O_H2O_1489
 ------------
 Symbolic Z-matrix:
 Charge =  0 Multiplicity = 1

                         Standard orientation:
 ---------------------------------------------------------------------
 Center     Atomic      Atomic             Coordinates (Angstroms)
 Number     Number       Type             X           Y           Z
 ---------------------------------------------------------------------
      1          8           0        0.048645    1.701043   -0.000000
      2          1           0        0.046307    0.718445   -0.000000
      3          1           0       -0.880088    2.021921    0.000000
      4          8           0        0.048645   -1.520721   -0.000000
      5          1           0        0.826769   -2.120745   -0.000000
      6          1           0       -0.771301   -2.062197    0.000000
 ---------------------------------------------------------------------

 SCF Done:  E(RHF) =  -152.113868447     A.U. after   10 cycles
 E2 =    -0.5271684058D+00 EUMP2 =    -0.15264103685272D+03
 CCSD(T)
 CCSD(T)= -0.15266803224D+03

 The electronic state is 1-A'.
 Alpha  occ. eigenvalues --  -20.57975 -20.52899  -1.35261  -1.30346  -0.72596
 Alpha  occ. eigenvalues --   -0.68012  -0.59074  -0.53684  -0.52391  -0.47496
 Alpha virt. eigenvalues --    0.12049   0.17586   0.18992   0.29086   0.49856
 Alpha virt. eigenvalues --    0.54689   0.56161   0.59568   0.69076   0.71933
 Alpha virt. eigenvalues --    0.74279   0.76804   0.81551   0.83020   0.84842

 Mulliken charges:
               1
     1  O   -0.542054
     2  H    0.278536
     3  H    0.245475
     4  O   -0.505941
     5  H    0.265247
     6  H    0.258737
 Sum of Mulliken charges =  -0.00000

 Dipole moment (field-independent basis, Debye):
    X=             -1.6298    Y=             -3.5411    Z=             -0.0000  Tot=              3.8981
 Quadrupole moment (field-independent basis, Debye-Ang):
   XX=             -9.1885   YY=             -8.2780   ZZ=            -14.7350
   XY=             -3.7106   XZ=             -0.0000   YZ=             -0.0000

 Normal termination of Gaussian 16 at Sat Aug 27 00:53:49 2022.
