 Gaussian 16, Revision A.03,
 Gaussian 16:  ES64L-G16RevA.03 25-Dec-2016

 ------------------
 #p CCSD(T)/cc-pVTZ
 ------------------

 ------------
 H2O_H2O_3714
 ------------
 Symbolic Z-matrix:
 Charge =  0 Multiplicity = 1

                         Standard orientation:
 ---------------------------------------------------------------------
 Center     Atomic      Atomic             Coordinates (Angstroms)
 Number     Number       Type             X           Y           Z
 ---------------------------------------------------------------------
      1          8           0        0.048568    2.588585   -0.000000
      2          1           0        0.047061    1.605985   -0.000000
      3          1           0       -0.880435    2.908677   -0.000000
      4          8           0        0.048568   -2.408181    0.000000
      5          1           0        0.827201   -3.007546    0.000000
      6          1           0       -0.770920   -2.950349    0.000000
 ---------------------------------------------------------------------

 SCF Done:  E(RHF) =  -152.108971611     A.U. after   10 cycles
 E2 =    -0.5258401286D+00 EUMP2 =    -0.15263481173938D+03
 CCSD(T)
 CCSD(T)= -0.15266198775D+03

 The electronic state is 1-A'.
 Alpha  occ. eigenvalues --  -20.56372 -20.54726  -1.33666  -1.32038  -0.71069
 Alpha  occ. eigenvalues --   -0.69436  -0.57179  -0.55517  -0.50789  -0.49166
 Alpha virt. eigenvalues --    0.12901   0.15380   0.19598   0.21556   0.53483
 Alpha virt. eigenvalues --    0.54987   0.56529   0.57913   0.66790   0.69257
 Alpha virt. eigenvalues --    0.78111   0.79253   0.79514   0.79676   0.82975

 Mulliken charges:
               1
     1  O   -0.515846
     2  H    0.262367
     3  H    0.252612
     4  O   -0.515602
     5  H    0.259463
     6  H    0.257006
 Sum of Mulliken charges =  -0.00000

 Dipole moment (field-independent basis, Debye):
    X=             -1.6614    Y=             -3.1984    Z=              0.0000  Tot=              3.6042
 Quadrupole moment (field-independent basis, Debye-Ang):
   XX=             -9.1823   YY=             -6.7253   ZZ=            -14.7168
   XY=             -5.0858   XZ=              0.0000   YZ=             -0.0000

 CCSD(T)=-152.6619877\RMSD=7.048e-09\PG=CS [SG(H4O2)]\\@
 Normal termination of Gaussian 16 at Fri Aug 26 23:15:55 2022.
