 Gaussian 16, Revision A.03,
 Gaussian 16:  ES64L-G16RevA.03 25-Dec-2016

 ------------------
 #p CCSD(T)/cc-pVTZ
 ------------------

 ------------
 H2O_H2O_2226
 ------------
 Symbolic Z-matrix:
 Charge =  0 Multiplicity = 1

                         Standard orientation:
 ---------------------------------------------------------------------
 Center     Atomic      Atomic             Coordinates (Angstroms)
 Number     Number       Type             X           Y           Z
 ---------------------------------------------------------------------
      1          8           0        0.090686   -1.977588    0.000000
      2          1           0        0.090585   -0.994987    0.000000
      3          1           0       -0.838775   -2.296350    0.000000
      4          8           0        0.090686    1.838883    0.000000
      5          1           0        0.154851    2.819387    0.000000
      6          1           0       -0.857633    1.581593    0.000000
 ---------------------------------------------------------------------

 SCF Done:  E(RHF) =  -152.108970407     A.U. after   10 cycles
 E2 =    -0.5264827939D+00 EUMP2 =    -0.15263545320084D+03
 CCSD(T)
 CCSD(T)= -0.15266259284D+03

 The electronic state is 1-A'.
 Alpha  occ. eigenvalues --  -20.57119 -20.54822  -1.34409  -1.32131  -0.71895
 Alpha  occ. eigenvalues --   -0.69473  -0.57905  -0.55569  -0.51511  -0.49246
 Alpha virt. eigenvalues --    0.11515   0.16036   0.19959   0.24799   0.52813
 Alpha virt. eigenvalues --    0.55809   0.56688   0.57540   0.68311   0.72589
 Alpha virt. eigenvalues --    0.76773   0.79411   0.79773   0.80360   0.83254

 Mulliken charges:
               1
     1  O   -0.514509
     2  H    0.264389
     3  H    0.245856
     4  O   -0.502055
     5  H    0.258905
     6  H    0.247414
 Sum of Mulliken charges =  -0.00000

 Dipole moment (field-independent basis, Debye):
    X=             -3.0661    Y=              2.5599    Z=              0.0000  Tot=              3.9942
 Quadrupole moment (field-independent basis, Debye-Ang):
   XX=            -10.7296   YY=             -8.9471   ZZ=            -14.7150
   XY=              2.3323   XZ=              0.0000   YZ=              0.0000

 Normal termination of Gaussian 16 at Sun Aug 28 05:33:05 2022.
