 Gaussian 16, Revision A.03,
 Gaussian 16:  ES64L-G16RevA.03 25-Dec-2016

 ------------------
 #p CCSD(T)/cc-pVTZ
 ------------------

 ------------
 H2O_H2O_2328
 ------------
 Symbolic Z-matrix:
 Charge =  0 Multiplicity = 1

                         Standard orientation:
 ---------------------------------------------------------------------
 Center     Atomic      Atomic             Coordinates (Angstroms)
 Number     Number       Type             X           Y           Z
 ---------------------------------------------------------------------
      1          8           0        0.085604   -2.023388    0.000000
      2          1           0        0.085284   -1.040787    0.000000
      3          1           0       -0.843785   -2.342357    0.000000
      4          8           0        0.085604    1.873799    0.000000
      5          1           0        0.276987    2.837583    0.000000
      6          1           0       -0.888155    1.742273    0.000000
 ---------------------------------------------------------------------

 SCF Done:  E(RHF) =  -152.109436630     A.U. after   10 cycles
 E2 =    -0.5263533621D+00 EUMP2 =    -0.15263578999226D+03
 CCSD(T)
 CCSD(T)= -0.15266292101D+03

 The electronic state is 1-A'.
 Alpha  occ. eigenvalues --  -20.57050 -20.54644  -1.34333  -1.31958  -0.71784
 Alpha  occ. eigenvalues --   -0.69321  -0.57851  -0.55408  -0.51444  -0.49080
 Alpha virt. eigenvalues --    0.11701   0.16101   0.19719   0.24458   0.53102
 Alpha virt. eigenvalues --    0.55714   0.56484   0.57856   0.68589   0.71783
 Alpha virt. eigenvalues --    0.77043   0.79416   0.79870   0.80711   0.83385

 Mulliken charges:
               1
     1  O   -0.516102
     2  H    0.264612
     3  H    0.246625
     4  O   -0.504528
     5  H    0.259155
     6  H    0.250238
 Sum of Mulliken charges =  -0.00000

 Dipole moment (field-independent basis, Debye):
    X=             -2.8993    Y=              2.7518    Z=              0.0000  Tot=              3.9973
 Quadrupole moment (field-independent basis, Debye-Ang):
   XX=            -10.4214   YY=             -8.5516   ZZ=            -14.7172
   XY=              2.7101   XZ=              0.0000   YZ=              0.0000

 Normal termination of Gaussian 16 at Sun Aug 28 06:20:48 2022.
