 Gaussian 16, Revision A.03,
 Gaussian 16:  ES64L-G16RevA.03 25-Dec-2016

 ------------------
 #p CCSD(T)/cc-pVTZ
 ------------------

 ------------
 H2O_H2O_4049
 ------------
 Symbolic Z-matrix:
 Charge =  0 Multiplicity = 1

                         Standard orientation:
 ---------------------------------------------------------------------
 Center     Atomic      Atomic             Coordinates (Angstroms)
 Number     Number       Type             X           Y           Z
 ---------------------------------------------------------------------
      1          8           0       -0.013486    2.706748    0.000000
      2          1           0       -0.010920    1.724150    0.000000
      3          1           0        0.915172    3.027840    0.000000
      4          8           0       -0.013486   -2.547475    0.000000
      5          1           0       -0.996085   -2.550040    0.000000
      6          1           0        0.307606   -3.476133    0.000000
 ---------------------------------------------------------------------

 SCF Done:  E(RHF) =  -152.108656296     A.U. after   10 cycles
 E2 =    -0.5258091564D+00 EUMP2 =    -0.15263446545276D+03
 CCSD(T)
 CCSD(T)= -0.15266165532D+03

 The electronic state is 1-A'.
 Alpha  occ. eigenvalues --  -20.56270 -20.55002  -1.33572  -1.32311  -0.70979
 Alpha  occ. eigenvalues --   -0.69719  -0.57072  -0.55789  -0.50692  -0.49437
 Alpha virt. eigenvalues --    0.12853   0.15134   0.19239   0.21733   0.53225
 Alpha virt. eigenvalues --    0.55115   0.56625   0.57830   0.66693   0.68926
 Alpha virt. eigenvalues --    0.78200   0.79122   0.79416   0.80849   0.82686

 Mulliken charges:
               1
     1  O   -0.515293
     2  H    0.259914
     3  H    0.255052
     4  O   -0.515554
     5  H    0.257216
     6  H    0.258665
 Sum of Mulliken charges =  -0.00000

 Dipole moment (field-independent basis, Debye):
    X=              0.4644    Y=             -2.8067    Z=              0.0000  Tot=              2.8449
 Quadrupole moment (field-independent basis, Debye-Ang):
   XX=             -9.6479   YY=             -7.6278   ZZ=            -14.7155
   XY=              7.3304   XZ=              0.0000   YZ=              0.0000

 Normal termination of Gaussian 16 at Sat Aug 27 22:58:27 2022.
