 Gaussian 16, Revision A.03,
 Gaussian 16:  ES64L-G16RevA.03 25-Dec-2016

 ------------------
 #p CCSD(T)/cc-pVTZ
 ------------------

 ------------
 H2O_H2O_3852
 ------------
 Symbolic Z-matrix:
 Charge =  0 Multiplicity = 1

                         Standard orientation:
 ---------------------------------------------------------------------
 Center     Atomic      Atomic             Coordinates (Angstroms)
 Number     Number       Type             X           Y           Z
 ---------------------------------------------------------------------
      1          8           0        0.088230   -2.628815    0.000000
      2          1           0        0.088073   -1.646214    0.000000
      3          1           0       -0.841212   -2.947630    0.000000
      4          8           0        0.088230    2.484492    0.000000
      5          1           0        0.216331    3.458707    0.000000
      6          1           0       -0.874874    2.289720    0.000000
 ---------------------------------------------------------------------

 SCF Done:  E(RHF) =  -152.107951297     A.U. after   10 cycles
 E2 =    -0.5259026592D+00 EUMP2 =    -0.15263385395597D+03
 CCSD(T)
 CCSD(T)= -0.15266105574D+03

 The electronic state is 1-A'.
 Alpha  occ. eigenvalues --  -20.56349 -20.55165  -1.33649  -1.32469  -0.71066
 Alpha  occ. eigenvalues --   -0.69861  -0.57118  -0.55925  -0.50761  -0.49584
 Alpha virt. eigenvalues --    0.12305   0.15108   0.19045   0.22056   0.53164
 Alpha virt. eigenvalues --    0.54995   0.56484   0.57904   0.66758   0.68863
 Alpha virt. eigenvalues --    0.78139   0.78981   0.79283   0.81268   0.82468

 Mulliken charges:
               1
     1  O   -0.510577
     2  H    0.258904
     3  H    0.251304
     4  O   -0.511435
     5  H    0.259290
     6  H    0.252513
 Sum of Mulliken charges =   0.00000

 Dipole moment (field-independent basis, Debye):
    X=             -3.0188    Y=              2.5500    Z=              0.0000  Tot=              3.9517
 Quadrupole moment (field-independent basis, Debye-Ang):
   XX=            -10.5531   YY=             -8.5628   ZZ=            -14.7128
   XY=              2.6357   XZ=              0.0000   YZ=              0.0000

 Normal termination of Gaussian 16 at Sat Aug 27 00:05:26 2022.
