 Gaussian 16, Revision A.03,
 Gaussian 16:  ES64L-G16RevA.03 25-Dec-2016

 ------------------
 #p CCSD(T)/cc-pVTZ
 ------------------

 ------------
 H2O_H2O_3779
 ------------
 Symbolic Z-matrix:
 Charge =  0 Multiplicity = 1

                         Standard orientation:
 ---------------------------------------------------------------------
 Center     Atomic      Atomic             Coordinates (Angstroms)
 Number     Number       Type             X           Y           Z
 ---------------------------------------------------------------------
      1          8           0        0.082801    2.604440    0.000000
      2          1           0        0.082460    1.621839    0.000000
      3          1           0       -0.846582    2.923429    0.000000
      4          8           0        0.082801   -2.449916   -0.000000
      5          1           0        0.336787   -3.399124   -0.000000
      6          1           0       -0.897474   -2.382338   -0.000000
 ---------------------------------------------------------------------

 SCF Done:  E(RHF) =  -152.108197744     A.U. after   10 cycles
 E2 =    -0.5258932586D+00 EUMP2 =    -0.15263409100257D+03
 CCSD(T)
 CCSD(T)= -0.15266128557D+03

 The electronic state is 1-A'.
 Alpha  occ. eigenvalues --  -20.56365 -20.55042  -1.33664  -1.32348  -0.71078
 Alpha  occ. eigenvalues --   -0.69740  -0.57143  -0.55809  -0.50778  -0.49466
 Alpha virt. eigenvalues --    0.12453   0.15188   0.19220   0.21850   0.53215
 Alpha virt. eigenvalues --    0.55038   0.56478   0.57948   0.66757   0.69002
 Alpha virt. eigenvalues --    0.78122   0.78852   0.79395   0.80942   0.82626

 Mulliken charges:
               1
     1  O   -0.511706
     2  H    0.259902
     3  H    0.251279
     4  O   -0.512364
     5  H    0.259499
     6  H    0.253390
 Sum of Mulliken charges =  -0.00000

 Dipole moment (field-independent basis, Debye):
    X=             -2.8323    Y=             -2.7341    Z=             -0.0000  Tot=              3.9367
 Quadrupole moment (field-independent basis, Debye-Ang):
   XX=            -10.2477   YY=             -7.9979   ZZ=            -14.7138
   XY=             -3.0961   XZ=             -0.0000   YZ=              0.0000

 Normal termination of Gaussian 16 at Fri Aug 26 23:37:35 2022.
