 Gaussian 16, Revision A.03,
 Gaussian 16:  ES64L-G16RevA.03 25-Dec-2016

 ------------------
 #p CCSD(T)/cc-pVTZ
 ------------------

 -----------
 H2O_H2O_944
 -----------
 Symbolic Z-matrix:
 Charge =  0 Multiplicity = 1

                         Standard orientation:
 ---------------------------------------------------------------------
 Center     Atomic      Atomic             Coordinates (Angstroms)
 Number     Number       Type             X           Y           Z
 ---------------------------------------------------------------------
      1          8           0        0.030321    1.479057   -0.000000
      2          1           0        0.026492    0.496464   -0.000000
      3          1           0       -0.897924    1.801343   -0.000000
      4          8           0        0.030321   -1.303541    0.000000
      5          1           0        0.959538   -1.623011    0.000000
      6          1           0       -0.573236   -2.078929    0.000000
 ---------------------------------------------------------------------

 SCF Done:  E(RHF) =  -152.112673628     A.U. after   10 cycles
 E2 =    -0.5288634433D+00 EUMP2 =    -0.15264153707157D+03
 CCSD(T)
 CCSD(T)= -0.15266834202D+03

 The electronic state is 1-A'.
 Alpha  occ. eigenvalues --  -20.58935 -20.51376  -1.36523  -1.29134  -0.73810
 Alpha  occ. eigenvalues --   -0.68140  -0.59829  -0.53543  -0.52048  -0.46240
 Alpha virt. eigenvalues --    0.11863   0.18501   0.18653   0.32352   0.48495
 Alpha virt. eigenvalues --    0.54600   0.56611   0.63147   0.68358   0.72566
 Alpha virt. eigenvalues --    0.72608   0.77414   0.81871   0.82899   0.84495

 Mulliken charges:
               1
     1  O   -0.576248
     2  H    0.297641
     3  H    0.243952
     4  O   -0.481668
     5  H    0.264770
     6  H    0.251554
 Sum of Mulliken charges =   0.00000

 Dipole moment (field-independent basis, Debye):
    X=             -1.0030    Y=             -3.7500    Z=              0.0000  Tot=              3.8818
 Quadrupole moment (field-independent basis, Debye-Ang):
   XX=             -9.2177   YY=             -8.8473   ZZ=            -14.7204
   XY=             -3.5627   XZ=              0.0000   YZ=              0.0000

 Normal termination of Gaussian 16 at Fri Aug 26 21:29:12 2022.
