 Gaussian 16, Revision A.03,
 Gaussian 16:  ES64L-G16RevA.03 25-Dec-2016

 ------------------
 #p CCSD(T)/cc-pVTZ
 ------------------

 ------------
 H2O_H2O_2448
 ------------
 Symbolic Z-matrix:
 Charge =  0 Multiplicity = 1

                         Standard orientation:
 ---------------------------------------------------------------------
 Center     Atomic      Atomic             Coordinates (Angstroms)
 Number     Number       Type             X           Y           Z
 ---------------------------------------------------------------------
      1          8           0       -0.016659    2.070776    0.000000
      2          1           0       -0.013403    1.088180    0.000000
      3          1           0        0.911773    2.392521    0.000000
      4          8           0       -0.016659   -1.907400    0.000000
      5          1           0       -0.996939   -1.974913    0.000000
      6          1           0        0.365119   -2.812801    0.000000
 ---------------------------------------------------------------------

 SCF Done:  E(RHF) =  -152.110836883     A.U. after   10 cycles
 E2 =    -0.5261017768D+00 EUMP2 =    -0.15263693865972D+03
 CCSD(T)
 CCSD(T)= -0.15266404906D+03

 The electronic state is 1-A'.
 Alpha  occ. eigenvalues --  -20.56940 -20.54330  -1.34216  -1.31661  -0.71629
 Alpha  occ. eigenvalues --   -0.69072  -0.57806  -0.55149  -0.51347  -0.48808
 Alpha virt. eigenvalues --    0.12206   0.16428   0.19258   0.24568   0.53788
 Alpha virt. eigenvalues --    0.55333   0.56178   0.58565   0.68739   0.71048
 Alpha virt. eigenvalues --    0.77282   0.79232   0.80069   0.81202   0.83691

 Mulliken charges:
               1
     1  O   -0.524984
     2  H    0.265099
     3  H    0.254284
     4  O   -0.512098
     5  H    0.259501
     6  H    0.258196
 Sum of Mulliken charges =  -0.00000

 Dipole moment (field-independent basis, Debye):
    X=              0.5719    Y=             -2.9957    Z=              0.0000  Tot=              3.0498
 Quadrupole moment (field-independent basis, Debye-Ang):
   XX=             -9.5438   YY=             -8.0451   ZZ=            -14.7226
   XY=              5.4325   XZ=              0.0000   YZ=              0.0000

 Normal termination of Gaussian 16 at Sun Aug 28 07:21:12 2022.
