 Gaussian 16, Revision A.03,
 Gaussian 16:  ES64L-G16RevA.03 25-Dec-2016

 ------------------
 #p CCSD(T)/cc-pVTZ
 ------------------

 ------------
 H2O_H2O_3460
 ------------
 Symbolic Z-matrix:
 Charge =  0 Multiplicity = 1

                         Standard orientation:
 ---------------------------------------------------------------------
 Center     Atomic      Atomic             Coordinates (Angstroms)
 Number     Number       Type             X           Y           Z
 ---------------------------------------------------------------------
      1          8           0        0.063230    2.486209    0.000000
      2          1           0        0.062179    1.503608    0.000000
      3          1           0       -0.865921    2.805870    0.000000
      4          8           0        0.063230   -2.310693   -0.000000
      5          1           0        0.660566   -3.090883   -0.000000
      6          1           0       -0.868512   -2.622720   -0.000000
 ---------------------------------------------------------------------

 SCF Done:  E(RHF) =  -152.109002270     A.U. after   10 cycles
 E2 =    -0.5258862960D+00 EUMP2 =    -0.15263488856615D+03
 CCSD(T)
 CCSD(T)= -0.15266205884D+03

 The electronic state is 1-A'.
 Alpha  occ. eigenvalues --  -20.56462 -20.54705  -1.33752  -1.32018  -0.71158
 Alpha  occ. eigenvalues --   -0.69410  -0.57262  -0.55494  -0.50874  -0.49145
 Alpha virt. eigenvalues --    0.12637   0.15515   0.19506   0.21854   0.53393
 Alpha virt. eigenvalues --    0.55096   0.56438   0.58098   0.67067   0.69310
 Alpha virt. eigenvalues --    0.78031   0.78847   0.79697   0.79870   0.82984

 Mulliken charges:
               1
     1  O   -0.515345
     2  H    0.262545
     3  H    0.251469
     4  O   -0.514385
     5  H    0.259935
     6  H    0.255780
 Sum of Mulliken charges =   0.00000

 Dipole moment (field-independent basis, Debye):
    X=             -2.1603    Y=             -3.1258    Z=             -0.0000  Tot=              3.7997
 Quadrupole moment (field-independent basis, Debye-Ang):
   XX=             -9.4561   YY=             -7.0992   ZZ=            -14.7169
   XY=             -4.2382   XZ=              0.0000   YZ=              0.0000

 Normal termination of Gaussian 16 at Fri Aug 26 21:49:15 2022.
