 Gaussian 16, Revision A.03,
 Gaussian 16:  ES64L-G16RevA.03 25-Dec-2016

 ------------------
 #p CCSD(T)/cc-pVTZ
 ------------------

 -----------
 H2O_H2O_909
 -----------
 Symbolic Z-matrix:
 Charge =  0 Multiplicity = 1

                         Standard orientation:
 ---------------------------------------------------------------------
 Center     Atomic      Atomic             Coordinates (Angstroms)
 Number     Number       Type             X           Y           Z
 ---------------------------------------------------------------------
      1          8           0        0.066816    1.467720   -0.000000
      2          1           0        0.065206    0.485120   -0.000000
      3          1           0       -0.862154    1.787908   -0.000000
      4          8           0        0.066816   -1.294701    0.000000
      5          1           0        0.611381   -2.112598    0.000000
      6          1           0       -0.883482   -1.544582   -0.000000
 ---------------------------------------------------------------------

 SCF Done:  E(RHF) =  -152.111121258     A.U. after   10 cycles
 E2 =    -0.5292934612D+00 EUMP2 =    -0.15264041471940D+03
 CCSD(T)
 CCSD(T)= -0.15266721580D+03

 The electronic state is 1-A'.
 Alpha  occ. eigenvalues --  -20.59032 -20.51562  -1.36656  -1.29305  -0.74003
 Alpha  occ. eigenvalues --   -0.68336  -0.59674  -0.53643  -0.52249  -0.46383
 Alpha virt. eigenvalues --    0.11609   0.17310   0.19573   0.32125   0.48149
 Alpha virt. eigenvalues --    0.54418   0.59157   0.59764   0.69882   0.72511
 Alpha virt. eigenvalues --    0.73373   0.77062   0.81632   0.82809   0.84368

 Mulliken charges:
               1
     1  O   -0.566376
     2  H    0.299508
     3  H    0.233241
     4  O   -0.470094
     5  H    0.253095
     6  H    0.250626
 Sum of Mulliken charges =  -0.00000

 Dipole moment (field-independent basis, Debye):
    X=             -2.1904    Y=             -3.7088    Z=             -0.0000  Tot=              4.3073
 Quadrupole moment (field-independent basis, Debye-Ang):
   XX=             -9.5830   YY=             -8.8728   ZZ=            -14.7126
   XY=             -3.0889   XZ=              0.0000   YZ=             -0.0000

 Normal termination of Gaussian 16 at Fri Aug 26 21:16:48 2022.
