 Gaussian 16, Revision A.03,
 Gaussian 16:  ES64L-G16RevA.03 25-Dec-2016

 ------------------
 #p CCSD(T)/cc-pVTZ
 ------------------

 -----------
 H2O_H2O_744
 -----------
 Symbolic Z-matrix:
 Charge =  0 Multiplicity = 1

                         Standard orientation:
 ---------------------------------------------------------------------
 Center     Atomic      Atomic             Coordinates (Angstroms)
 Number     Number       Type             X           Y           Z
 ---------------------------------------------------------------------
      1          8           0        0.030341    1.399276   -0.000000
      2          1           0        0.026280    0.416683   -0.000000
      3          1           0       -0.897827    1.721781   -0.000000
      4          8           0        0.030341   -1.223773    0.000000
      5          1           0        0.959483   -1.543463    0.000000
      6          1           0       -0.573399   -1.999018    0.000000
 ---------------------------------------------------------------------

 SCF Done:  E(RHF) =  -152.109279674     A.U. after   10 cycles
 E2 =    -0.5299522040D+00 EUMP2 =    -0.15263923187832D+03
 CCSD(T)
 CCSD(T)= -0.15266588319D+03

 The electronic state is 1-A'.
 Alpha  occ. eigenvalues --  -20.59438 -20.50400  -1.37319  -1.28409  -0.74529
 Alpha  occ. eigenvalues --   -0.68866  -0.59647  -0.54217  -0.51008  -0.45466
 Alpha virt. eigenvalues --    0.11679   0.18253   0.19082   0.33242   0.47907
 Alpha virt. eigenvalues --    0.54254   0.57841   0.64911   0.68404   0.72386
 Alpha virt. eigenvalues --    0.72845   0.77687   0.81216   0.83360   0.84225

 Mulliken charges:
               1
     1  O   -0.594103
     2  H    0.304768
     3  H    0.240065
     4  O   -0.462774
     5  H    0.263440
     6  H    0.248604
 Sum of Mulliken charges =  -0.00000

 Dipole moment (field-independent basis, Debye):
    X=             -0.9933    Y=             -3.9290    Z=              0.0000  Tot=              4.0526
 Quadrupole moment (field-independent basis, Debye-Ang):
   XX=             -9.2078   YY=             -9.0854   ZZ=            -14.7036
   XY=             -3.3758   XZ=              0.0000   YZ=             -0.0000

 Normal termination of Gaussian 16 at Fri Aug 26 20:14:28 2022.
