 Gaussian 16, Revision A.03,
 Gaussian 16:  ES64L-G16RevA.03 25-Dec-2016

 ------------------
 #p CCSD(T)/cc-pVTZ
 ------------------

 -----------
 H2O_H2O_660
 -----------
 Symbolic Z-matrix:
 Charge =  0 Multiplicity = 1

                         Standard orientation:
 ---------------------------------------------------------------------
 Center     Atomic      Atomic             Coordinates (Angstroms)
 Number     Number       Type             X           Y           Z
 ---------------------------------------------------------------------
      1          8           0        0.063312    1.369295   -0.000000
      2          1           0        0.061345    0.386695   -0.000000
      3          1           0       -0.865541    1.689822   -0.000000
      4          8           0        0.063312   -1.193897    0.000000
      5          1           0        0.659921   -1.974643    0.000000
      6          1           0       -0.868721   -1.505056    0.000000
 ---------------------------------------------------------------------

 SCF Done:  E(RHF) =  -152.106170424     A.U. after   11 cycles
 E2 =    -0.5307650434D+00 EUMP2 =    -0.15263693546722D+03
 CCSD(T)
 CCSD(T)= -0.15266351544D+03

 The electronic state is 1-A'.
 Alpha  occ. eigenvalues --  -20.59709 -20.50175  -1.37748  -1.28270  -0.74894
 Alpha  occ. eigenvalues --   -0.69528  -0.59220  -0.54559  -0.50812  -0.45279
 Alpha virt. eigenvalues --    0.11393   0.17302   0.19809   0.33060   0.47968
 Alpha virt. eigenvalues --    0.53904   0.60340   0.61263   0.70749   0.72303
 Alpha virt. eigenvalues --    0.73176   0.77898   0.80942   0.83321   0.84257

 Mulliken charges:
               1
     1  O   -0.589703
     2  H    0.308819
     3  H    0.227178
     4  O   -0.447896
     5  H    0.252861
     6  H    0.248741
 Sum of Mulliken charges =  -0.00000

 Dipole moment (field-independent basis, Debye):
    X=             -2.0441    Y=             -3.9961    Z=              0.0000  Tot=              4.4886
 Quadrupole moment (field-independent basis, Debye-Ang):
   XX=             -9.4634   YY=             -9.1722   ZZ=            -14.6905
   XY=             -3.0202   XZ=              0.0000   YZ=             -0.0000

 Normal termination of Gaussian 16 at Fri Aug 26 19:41:24 2022.
