 Gaussian 16, Revision A.03,
 Gaussian 16:  ES64L-G16RevA.03 25-Dec-2016

 ------------------
 #p CCSD(T)/cc-pVTZ
 ------------------

 ------------
 H2O_H2O_3829
 ------------
 Symbolic Z-matrix:
 Charge =  0 Multiplicity = 1

                         Standard orientation:
 ---------------------------------------------------------------------
 Center     Atomic      Atomic             Coordinates (Angstroms)
 Number     Number       Type             X           Y           Z
 ---------------------------------------------------------------------
      1          8           0        0.082800    2.624385    0.000000
      2          1           0        0.082462    1.641783    0.000000
      3          1           0       -0.846583    2.943371    0.000000
      4          8           0        0.082800   -2.469860   -0.000000
      5          1           0        0.336790   -3.419067   -0.000000
      6          1           0       -0.897475   -2.402285   -0.000000
 ---------------------------------------------------------------------

 SCF Done:  E(RHF) =  -152.108172147     A.U. after   10 cycles
 E2 =    -0.5258885230D+00 EUMP2 =    -0.15263406067032D+03
 CCSD(T)
 CCSD(T)= -0.15266125655D+03

 The electronic state is 1-A'.
 Alpha  occ. eigenvalues --  -20.56351 -20.55053  -1.33650  -1.32358  -0.71065
 Alpha  occ. eigenvalues --   -0.69751  -0.57128  -0.55819  -0.50764  -0.49476
 Alpha virt. eigenvalues --    0.12495   0.15158   0.19216   0.21805   0.53202
 Alpha virt. eigenvalues --    0.55031   0.56486   0.57930   0.66740   0.68978
 Alpha virt. eigenvalues --    0.78135   0.78896   0.79385   0.80947   0.82613

 Mulliken charges:
               1
     1  O   -0.511645
     2  H    0.259811
     3  H    0.251363
     4  O   -0.512390
     5  H    0.259439
     6  H    0.253423
 Sum of Mulliken charges =  -0.00000

 Dipole moment (field-independent basis, Debye):
    X=             -2.8329    Y=             -2.7321    Z=             -0.0000  Tot=              3.9357
 Quadrupole moment (field-independent basis, Debye-Ang):
   XX=            -10.2473   YY=             -7.9844   ZZ=            -14.7137
   XY=             -3.1033   XZ=             -0.0000   YZ=             -0.0000

 Normal termination of Gaussian 16 at Fri Aug 26 23:55:26 2022.
