 Gaussian 16, Revision A.03,
 Gaussian 16:  ES64L-G16RevA.03 25-Dec-2016

 ------------------
 #p CCSD(T)/cc-pVTZ
 ------------------

 ------------
 H2O_H2O_2872
 ------------
 Symbolic Z-matrix:
 Charge =  0 Multiplicity = 1

                         Standard orientation:
 ---------------------------------------------------------------------
 Center     Atomic      Atomic             Coordinates (Angstroms)
 Number     Number       Type             X           Y           Z
 ---------------------------------------------------------------------
      1          8           0       -0.019872    2.242319    0.000000
      2          1           0       -0.016999    1.259722    0.000000
      3          1           0        0.908685    2.563702    0.000000
      4          8           0       -0.019872   -2.075221    0.000000
      5          1           0       -0.993689   -2.206323    0.000000
      6          1           0        0.419962   -2.953884    0.000000
 ---------------------------------------------------------------------

 SCF Done:  E(RHF) =  -152.110071748     A.U. after   10 cycles
 E2 =    -0.5259511703D+00 EUMP2 =    -0.15263602291849D+03
 CCSD(T)
 CCSD(T)= -0.15266315966D+03

 The electronic state is 1-A'.
 Alpha  occ. eigenvalues --  -20.56693 -20.54518  -1.33975  -1.31840  -0.71381
 Alpha  occ. eigenvalues --   -0.69245  -0.57527  -0.55331  -0.51104  -0.48979
 Alpha virt. eigenvalues --    0.12315   0.16039   0.19294   0.23281   0.53660
 Alpha virt. eigenvalues --    0.55584   0.56395   0.58403   0.68523   0.69432
 Alpha virt. eigenvalues --    0.77759   0.78957   0.79857   0.80390   0.83247

 Mulliken charges:
               1
     1  O   -0.521152
     2  H    0.263782
     3  H    0.254143
     4  O   -0.514466
     5  H    0.259147
     6  H    0.258545
 Sum of Mulliken charges =   0.00000

 Dipole moment (field-independent basis, Debye):
    X=              0.6805    Y=             -3.0176    Z=              0.0000  Tot=              3.0934
 Quadrupole moment (field-independent basis, Debye-Ang):
   XX=             -9.4468   YY=             -7.7305   ZZ=            -14.7203
   XY=              5.7156   XZ=              0.0000   YZ=              0.0000

 CCSD(T)=-152.6631597\RMSD=6.788e-09\PG=CS [SG(H4O2)]\\@
 Normal termination of Gaussian 16 at Fri Aug 26 17:54:33 2022.
