 Gaussian 16, Revision A.03,
 Gaussian 16:  ES64L-G16RevA.03 25-Dec-2016

 ------------------
 #p CCSD(T)/cc-pVTZ
 ------------------

 -----------
 H2O_H2O_213
 -----------
 Symbolic Z-matrix:
 Charge =  0 Multiplicity = 1

                         Standard orientation:
 ---------------------------------------------------------------------
 Center     Atomic      Atomic             Coordinates (Angstroms)
 Number     Number       Type             X           Y           Z
 ---------------------------------------------------------------------
      1          8           0        0.052445    1.192153   -0.000000
      2          1           0        0.049315    0.209557   -0.000000
      3          1           0       -0.876028    1.513779   -0.000000
      4          8           0        0.052445   -1.012434    0.000000
      5          1           0        0.789137   -1.662658    0.000000
      6          1           0       -0.801551   -1.498434    0.000000
 ---------------------------------------------------------------------

 SCF Done:  E(RHF) =  -152.071149621     A.U. after   11 cycles
 E2 =    -0.5344141455D+00 EUMP2 =    -0.15260556376635D+03
 CCSD(T)
 CCSD(T)= -0.15263141452D+03

 The electronic state is 1-A'.
 Alpha  occ. eigenvalues --  -20.61411 -20.45946  -1.41552  -1.25483  -0.77249
 Alpha  occ. eigenvalues --   -0.75645  -0.57313  -0.56076  -0.46356  -0.42163
 Alpha virt. eigenvalues --    0.10668   0.16767   0.20760   0.33204   0.47307
 Alpha virt. eigenvalues --    0.52536   0.62975   0.63997   0.71021   0.71561
 Alpha virt. eigenvalues --    0.78692   0.80044   0.80653   0.82208   0.84878

 Mulliken charges:
               1
     1  O   -0.647607
     2  H    0.302696
     3  H    0.209750
     4  O   -0.361647
     5  H    0.251782
     6  H    0.245026
 Sum of Mulliken charges =  -0.00000

 Dipole moment (field-independent basis, Debye):
    X=             -1.6172    Y=             -4.7758    Z=              0.0000  Tot=              5.0422
 Quadrupole moment (field-independent basis, Debye-Ang):
   XX=             -9.1899   YY=             -9.9389   ZZ=            -14.6056
   XY=             -2.7893   XZ=              0.0000   YZ=             -0.0000

 Normal termination of Gaussian 16 at Fri Aug 26 16:38:57 2022.
