 Gaussian 16, Revision A.03,
 Gaussian 16:  ES64L-G16RevA.03 25-Dec-2016

 ------------------
 #p CCSD(T)/cc-pVTZ
 ------------------

 ------------
 H2O_H2O_3327
 ------------
 Symbolic Z-matrix:
 Charge =  0 Multiplicity = 1

                         Standard orientation:
 ---------------------------------------------------------------------
 Center     Atomic      Atomic             Coordinates (Angstroms)
 Number     Number       Type             X           Y           Z
 ---------------------------------------------------------------------
      1          8           0        0.088231   -2.419403    0.000000
      2          1           0        0.088061   -1.436802    0.000000
      3          1           0       -0.841206   -2.738231    0.000000
      4          8           0        0.088231    2.275083    0.000000
      5          1           0        0.216317    3.249300    0.000000
      6          1           0       -0.874871    2.080298    0.000000
 ---------------------------------------------------------------------

 SCF Done:  E(RHF) =  -152.108204180     A.U. after   10 cycles
 E2 =    -0.5259762386D+00 EUMP2 =    -0.15263418041903D+03
 CCSD(T)
 CCSD(T)= -0.15266136762D+03

 The electronic state is 1-A'.
 Alpha  occ. eigenvalues --  -20.56516 -20.55065  -1.33811  -1.32370  -0.71234
 Alpha  occ. eigenvalues --   -0.69756  -0.57286  -0.55827  -0.50923  -0.49486
 Alpha virt. eigenvalues --    0.11898   0.15425   0.19220   0.22587   0.53679
 Alpha virt. eigenvalues --    0.54897   0.56440   0.58095   0.67233   0.69021
 Alpha virt. eigenvalues --    0.77983   0.78568   0.79379   0.81148   0.82595

 Mulliken charges:
               1
     1  O   -0.511221
     2  H    0.259973
     3  H    0.250228
     4  O   -0.510505
     5  H    0.259748
     6  H    0.251778
 Sum of Mulliken charges =  -0.00000

 Dipole moment (field-independent basis, Debye):
    X=             -3.0111    Y=              2.5723    Z=              0.0000  Tot=              3.9602
 Quadrupole moment (field-independent basis, Debye-Ang):
   XX=            -10.5579   YY=             -8.6251   ZZ=            -14.7136
   XY=              2.5992   XZ=              0.0000   YZ=              0.0000

 Normal termination of Gaussian 16 at Fri Aug 26 21:05:18 2022.
