 Gaussian 16, Revision A.03,
 Gaussian 16:  ES64L-G16RevA.03 25-Dec-2016

 ------------------
 #p CCSD(T)/cc-pVTZ
 ------------------

 -----------
 H2O_H2O_586
 -----------
 Symbolic Z-matrix:
 Charge =  0 Multiplicity = 1

                         Standard orientation:
 ---------------------------------------------------------------------
 Center     Atomic      Atomic             Coordinates (Angstroms)
 Number     Number       Type             X           Y           Z
 ---------------------------------------------------------------------
      1          8           0        0.059732    1.340426    0.000000
      2          1           0        0.057473    0.357827    0.000000
      3          1           0       -0.869026    1.661228    0.000000
      4          8           0        0.059732   -1.163103   -0.000000
      5          1           0        0.705906   -1.903350   -0.000000
      6          1           0       -0.850065   -1.534285   -0.000000
 ---------------------------------------------------------------------

 SCF Done:  E(RHF) =  -152.103698647     A.U. after   11 cycles
 E2 =    -0.5312405399D+00 EUMP2 =    -0.15263493918641D+03
 CCSD(T)
 CCSD(T)= -0.15266142494D+03

 The electronic state is 1-A'.
 Alpha  occ. eigenvalues --  -20.59952 -20.49570  -1.38175  -1.27830  -0.75129
 Alpha  occ. eigenvalues --   -0.70243  -0.58887  -0.54908  -0.50184  -0.44808
 Alpha virt. eigenvalues --    0.11315   0.17340   0.19871   0.33258   0.47848
 Alpha virt. eigenvalues --    0.53745   0.60978   0.61676   0.71046   0.72284
 Alpha virt. eigenvalues --    0.73248   0.78271   0.80911   0.83153   0.84211

 Mulliken charges:
               1
     1  O   -0.599557
     2  H    0.311476
     3  H    0.225543
     4  O   -0.441214
     5  H    0.254596
     6  H    0.249156
 Sum of Mulliken charges =  -0.00000

 Dipole moment (field-independent basis, Debye):
    X=             -1.9176    Y=             -4.1280    Z=             -0.0000  Tot=              4.5517
 Quadrupole moment (field-independent basis, Debye-Ang):
   XX=             -9.3621   YY=             -9.2851   ZZ=            -14.6826
   XY=             -3.0166   XZ=             -0.0000   YZ=              0.0000

 Normal termination of Gaussian 16 at Fri Aug 26 19:14:11 2022.
