 Gaussian 16, Revision A.03,
 Gaussian 16:  ES64L-G16RevA.03 25-Dec-2016

 ------------------
 #p CCSD(T)/cc-pVTZ
 ------------------

 -----------
 H2O_H2O_673
 -----------
 Symbolic Z-matrix:
 Charge =  0 Multiplicity = 1

                         Standard orientation:
 ---------------------------------------------------------------------
 Center     Atomic      Atomic             Coordinates (Angstroms)
 Number     Number       Type             X           Y           Z
 ---------------------------------------------------------------------
      1          8           0        0.016809   -1.362744    0.000000
      2          1           0        0.011754   -0.380156    0.000000
      3          1           0       -0.911032   -1.686188    0.000000
      4          8           0        0.016809    1.199429    0.000000
      5          1           0        0.996964    1.268737    0.000000
      6          1           0       -0.366626    2.104130    0.000000
 ---------------------------------------------------------------------

 SCF Done:  E(RHF) =  -152.105515682     A.U. after   10 cycles
 E2 =    -0.5305986668D+00 EUMP2 =    -0.15263611434848D+03
 CCSD(T)
 CCSD(T)= -0.15266271303D+03

 The electronic state is 1-A'.
 Alpha  occ. eigenvalues --  -20.59545 -20.50436  -1.37678  -1.28506  -0.75504
 Alpha  occ. eigenvalues --   -0.68457  -0.59877  -0.54435  -0.50982  -0.45555
 Alpha virt. eigenvalues --    0.11716   0.18195   0.19250   0.33620   0.48029
 Alpha virt. eigenvalues --    0.53770   0.57543   0.67181   0.68400   0.72164
 Alpha virt. eigenvalues --    0.74280   0.76504   0.79869   0.83756   0.83988

 Mulliken charges:
               1
     1  O   -0.599743
     2  H    0.297012
     3  H    0.244955
     4  O   -0.437001
     5  H    0.258855
     6  H    0.235923
 Sum of Mulliken charges =  -0.00000

 Dipole moment (field-independent basis, Debye):
    X=             -0.5584    Y=              3.7436    Z=              0.0000  Tot=              3.7850
 Quadrupole moment (field-independent basis, Debye-Ang):
   XX=             -9.5078   YY=             -9.1796   ZZ=            -14.6862
   XY=              3.5369   XZ=              0.0000   YZ=              0.0000

 Normal termination of Gaussian 16 at Fri Aug 26 19:46:05 2022.
