 Gaussian 16, Revision A.03,
 Gaussian 16:  ES64L-G16RevA.03 25-Dec-2016

 ------------------
 #p CCSD(T)/cc-pVTZ
 ------------------

 ------------
 H2O_H2O_3694
 ------------
 Symbolic Z-matrix:
 Charge =  0 Multiplicity = 1

                         Standard orientation:
 ---------------------------------------------------------------------
 Center     Atomic      Atomic             Coordinates (Angstroms)
 Number     Number       Type             X           Y           Z
 ---------------------------------------------------------------------
      1          8           0        0.030170    2.576018    0.000000
      2          1           0        0.028029    1.593419    0.000000
      3          1           0       -0.898627    2.896708    0.000000
      4          8           0        0.030170   -2.400397   -0.000000
      5          1           0        0.959935   -2.718270   -0.000000
      6          1           0       -0.572053   -3.176820   -0.000000
 ---------------------------------------------------------------------

 SCF Done:  E(RHF) =  -152.109067337     A.U. after   10 cycles
 E2 =    -0.5258288694D+00 EUMP2 =    -0.15263489620670D+03
 CCSD(T)
 CCSD(T)= -0.15266207064D+03

 The electronic state is 1-A'.
 Alpha  occ. eigenvalues --  -20.56371 -20.54754  -1.33666  -1.32067  -0.71069
 Alpha  occ. eigenvalues --   -0.69469  -0.57182  -0.55550  -0.50789  -0.49197
 Alpha virt. eigenvalues --    0.12841   0.15403   0.19511   0.21688   0.53384
 Alpha virt. eigenvalues --    0.55116   0.56556   0.57911   0.66802   0.69238
 Alpha virt. eigenvalues --    0.78109   0.78942   0.79645   0.80011   0.82954

 Mulliken charges:
               1
     1  O   -0.516639
     2  H    0.262022
     3  H    0.253751
     4  O   -0.516156
     5  H    0.258832
     6  H    0.258190
 Sum of Mulliken charges =  -0.00000

 Dipole moment (field-independent basis, Debye):
    X=             -1.0329    Y=             -3.1136    Z=             -0.0000  Tot=              3.2804
 Quadrupole moment (field-independent basis, Debye-Ang):
   XX=             -9.2297   YY=             -6.9529   ZZ=            -14.7171
   XY=             -5.9735   XZ=             -0.0000   YZ=             -0.0000

 Normal termination of Gaussian 16 at Fri Aug 26 23:09:19 2022.
