 Gaussian 16, Revision A.03,
 Gaussian 16:  ES64L-G16RevA.03 25-Dec-2016

 ------------------
 #p CCSD(T)/cc-pVTZ
 ------------------

 ------------
 H2O_H2O_1453
 ------------
 Symbolic Z-matrix:
 Charge =  0 Multiplicity = 1

                         Standard orientation:
 ---------------------------------------------------------------------
 Center     Atomic      Atomic             Coordinates (Angstroms)
 Number     Number       Type             X           Y           Z
 ---------------------------------------------------------------------
      1          8           0        0.085610   -1.674364    0.000000
      2          1           0        0.085220   -0.691763    0.000000
      3          1           0       -0.843757   -1.993400    0.000000
      4          8           0        0.085610    1.524788    0.000000
      5          1           0        0.276923    2.488585    0.000000
      6          1           0       -0.888141    1.393192    0.000000
 ---------------------------------------------------------------------

 SCF Done:  E(RHF) =  -152.110492417     A.U. after   10 cycles
 E2 =    -0.5275953886D+00 EUMP2 =    -0.15263808780527D+03
 CCSD(T)
 CCSD(T)= -0.15266513832D+03

 The electronic state is 1-A'.
 Alpha  occ. eigenvalues --  -20.57953 -20.53881  -1.35307  -1.31271  -0.72932
 Alpha  occ. eigenvalues --   -0.68639  -0.58880  -0.54613  -0.52377  -0.48380
 Alpha virt. eigenvalues --    0.11620   0.16545   0.20041   0.28335   0.49662
 Alpha virt. eigenvalues --    0.54823   0.57869   0.58046   0.68708   0.73838
 Alpha virt. eigenvalues --    0.74723   0.77414   0.80930   0.82216   0.83625

 Mulliken charges:
               1
     1  O   -0.527761
     2  H    0.275386
     3  H    0.239514
     4  O   -0.483607
     5  H    0.249673
     6  H    0.246794
 Sum of Mulliken charges =  -0.00000

 Dipole moment (field-independent basis, Debye):
    X=             -2.8581    Y=              2.9355    Z=              0.0000  Tot=              4.0970
 Quadrupole moment (field-independent basis, Debye-Ang):
   XX=            -10.4446   YY=             -8.7670   ZZ=            -14.7172
   XY=              2.6019   XZ=              0.0000   YZ=              0.0000

 Normal termination of Gaussian 16 at Sat Aug 27 00:40:38 2022.
