 Gaussian 16, Revision A.03,
 Gaussian 16:  ES64L-G16RevA.03 25-Dec-2016

 ------------------
 #p CCSD(T)/cc-pVTZ
 ------------------

 ------------
 H2O_H2O_2917
 ------------
 Symbolic Z-matrix:
 Charge =  0 Multiplicity = 1

                         Standard orientation:
 ---------------------------------------------------------------------
 Center     Atomic      Atomic             Coordinates (Angstroms)
 Number     Number       Type             X           Y           Z
 ---------------------------------------------------------------------
      1          8           0        0.037454    2.268701   -0.000000
      2          1           0        0.035292    1.286102   -0.000000
      3          1           0       -0.891336    2.589412   -0.000000
      4          8           0        0.037454   -2.089743    0.000000
      5          1           0        0.917764   -2.526274    0.000000
      6          1           0       -0.660976   -2.780903    0.000000
 ---------------------------------------------------------------------

 SCF Done:  E(RHF) =  -152.110120432     A.U. after   10 cycles
 E2 =    -0.5259465318D+00 EUMP2 =    -0.15263606696348D+03
 CCSD(T)
 CCSD(T)= -0.15266320190D+03

 The electronic state is 1-A'.
 Alpha  occ. eigenvalues --  -20.56689 -20.54391  -1.33965  -1.31714  -0.71363
 Alpha  occ. eigenvalues --   -0.69112  -0.57520  -0.55205  -0.51096  -0.48853
 Alpha virt. eigenvalues --    0.12478   0.16041   0.19416   0.22936   0.53170
 Alpha virt. eigenvalues --    0.55529   0.56388   0.58605   0.68595   0.69334
 Alpha virt. eigenvalues --    0.77784   0.79067   0.79581   0.79974   0.83314

 Mulliken charges:
               1
     1  O   -0.520477
     2  H    0.264728
     3  H    0.252349
     4  O   -0.514305
     5  H    0.260034
     6  H    0.257672
 Sum of Mulliken charges =  -0.00000

 Dipole moment (field-independent basis, Debye):
    X=             -1.2769    Y=             -3.2316    Z=              0.0000  Tot=              3.4747
 Quadrupole moment (field-independent basis, Debye-Ang):
   XX=             -9.1590   YY=             -7.2849   ZZ=            -14.7206
   XY=             -5.0148   XZ=              0.0000   YZ=             -0.0000

 Normal termination of Gaussian 16 at Fri Aug 26 18:20:30 2022.
