 Gaussian 16, Revision A.03,
 Gaussian 16:  ES64L-G16RevA.03 25-Dec-2016

 ------------------
 #p CCSD(T)/cc-pVTZ
 ------------------

 ------------
 H2O_H2O_3789
 ------------
 Symbolic Z-matrix:
 Charge =  0 Multiplicity = 1

                         Standard orientation:
 ---------------------------------------------------------------------
 Center     Atomic      Atomic             Coordinates (Angstroms)
 Number     Number       Type             X           Y           Z
 ---------------------------------------------------------------------
      1          8           0        0.048567    2.618502    0.000000
      2          1           0        0.047077    1.635902    0.000000
      3          1           0       -0.880442    2.938577    0.000000
      4          8           0        0.048567   -2.438096    0.000000
      5          1           0        0.827209   -3.037446    0.000000
      6          1           0       -0.770911   -2.980279    0.000000
 ---------------------------------------------------------------------

 SCF Done:  E(RHF) =  -152.108902637     A.U. after   10 cycles
 E2 =    -0.5258344314D+00 EUMP2 =    -0.15263473706879D+03
 CCSD(T)
 CCSD(T)= -0.15266191582D+03

 The electronic state is 1-A'.
 Alpha  occ. eigenvalues --  -20.56350 -20.54751  -1.33645  -1.32062  -0.71048
 Alpha  occ. eigenvalues --   -0.69460  -0.57155  -0.55541  -0.50767  -0.49190
 Alpha virt. eigenvalues --    0.12950   0.15330   0.19609   0.21484   0.53504
 Alpha virt. eigenvalues --    0.54961   0.56544   0.57885   0.66740   0.69221
 Alpha virt. eigenvalues --    0.78131   0.79316   0.79538   0.79654   0.82951

 Mulliken charges:
               1
     1  O   -0.515611
     2  H    0.262179
     3  H    0.252690
     4  O   -0.515596
     5  H    0.259365
     6  H    0.256973
 Sum of Mulliken charges =  -0.00000

 Dipole moment (field-independent basis, Debye):
    X=             -1.6619    Y=             -3.1945    Z=              0.0000  Tot=              3.6009
 Quadrupole moment (field-independent basis, Debye-Ang):
   XX=             -9.1822   YY=             -6.6771   ZZ=            -14.7166
   XY=             -5.1318   XZ=             -0.0000   YZ=              0.0000

 Normal termination of Gaussian 16 at Fri Aug 26 23:40:55 2022.
