 Gaussian 16, Revision A.03,
 Gaussian 16:  ES64L-G16RevA.03 25-Dec-2016

 ------------------
 #p CCSD(T)/cc-pVTZ
 ------------------

 ------------
 H2O_H2O_1209
 ------------
 Symbolic Z-matrix:
 Charge =  0 Multiplicity = 1

                         Standard orientation:
 ---------------------------------------------------------------------
 Center     Atomic      Atomic             Coordinates (Angstroms)
 Number     Number       Type             X           Y           Z
 ---------------------------------------------------------------------
      1          8           0        0.066804    1.587392   -0.000000
      2          1           0        0.065323    0.604791   -0.000000
      3          1           0       -0.862207    1.907459   -0.000000
      4          8           0        0.066804   -1.414355    0.000000
      5          1           0        0.611476   -2.232181    0.000000
      6          1           0       -0.883461   -1.664361    0.000000
 ---------------------------------------------------------------------

 SCF Done:  E(RHF) =  -152.112959343     A.U. after   10 cycles
 E2 =    -0.5280281428D+00 EUMP2 =    -0.15264098748608D+03
 CCSD(T)
 CCSD(T)= -0.15266792872D+03

 The electronic state is 1-A'.
 Alpha  occ. eigenvalues --  -20.58410 -20.52560  -1.35800  -1.30089  -0.73185
 Alpha  occ. eigenvalues --   -0.68046  -0.59446  -0.53294  -0.52882  -0.47208
 Alpha virt. eigenvalues --    0.11791   0.17286   0.19377   0.30485   0.48693
 Alpha virt. eigenvalues --    0.54855   0.57562   0.59217   0.69814   0.73192
 Alpha virt. eigenvalues --    0.73211   0.76571   0.81956   0.82457   0.84518

 Mulliken charges:
               1
     1  O   -0.547913
     2  H    0.287194
     3  H    0.238856
     4  O   -0.489570
     5  H    0.257422
     6  H    0.254010
 Sum of Mulliken charges =  -0.00000

 Dipole moment (field-independent basis, Debye):
    X=             -2.2179    Y=             -3.5153    Z=              0.0000  Tot=              4.1565
 Quadrupole moment (field-independent basis, Debye-Ang):
   XX=             -9.5849   YY=             -8.5842   ZZ=            -14.7269
   XY=             -3.2172   XZ=              0.0000   YZ=             -0.0000

 Normal termination of Gaussian 16 at Fri Aug 26 23:08:19 2022.
