 Gaussian 16, Revision A.03,
 Gaussian 16:  ES64L-G16RevA.03 25-Dec-2016

 ------------------
 #p CCSD(T)/cc-pVTZ
 ------------------

 ------------
 H2O_H2O_4746
 ------------
 Symbolic Z-matrix:
 Charge =  0 Multiplicity = 1

                         Standard orientation:
 ---------------------------------------------------------------------
 Center     Atomic      Atomic             Coordinates (Angstroms)
 Number     Number       Type             X           Y           Z
 ---------------------------------------------------------------------
      1          8           0       -0.023159    2.992010    0.000000
      2          1           0       -0.021123    2.009411    0.000000
      3          1           0        0.905671    3.312602    0.000000
      4          8           0       -0.023159   -2.821596    0.000000
      5          1           0       -0.986481   -3.015289    0.000000
      6          1           0        0.472479   -3.670035    0.000000
 ---------------------------------------------------------------------

 SCF Done:  E(RHF) =  -152.108356077     A.U. after   10 cycles
 E2 =    -0.5257988975D+00 EUMP2 =    -0.15263415497492D+03
 CCSD(T)
 CCSD(T)= -0.15266135519D+03

 The electronic state is 1-A'.
 Alpha  occ. eigenvalues --  -20.56140 -20.55054  -1.33443  -1.32361  -0.70847
 Alpha  occ. eigenvalues --   -0.69767  -0.56933  -0.55833  -0.50561  -0.49484
 Alpha virt. eigenvalues --    0.13422   0.14815   0.19617   0.21025   0.53611
 Alpha virt. eigenvalues --    0.54832   0.56702   0.57760   0.66968   0.68552
 Alpha virt. eigenvalues --    0.78323   0.79375   0.79651   0.80597   0.82266

 Mulliken charges:
               1
     1  O   -0.513919
     2  H    0.259389
     3  H    0.254472
     4  O   -0.514450
     5  H    0.257149
     6  H    0.257360
 Sum of Mulliken charges =  -0.00000

 Dipole moment (field-independent basis, Debye):
    X=              0.7956    Y=             -2.9846    Z=              0.0000  Tot=              3.0888
 Quadrupole moment (field-independent basis, Debye-Ang):
   XX=             -9.3625   YY=             -6.6644   ZZ=            -14.7146
   XY=              7.3585   XZ=              0.0000   YZ=              0.0000

 Normal termination of Gaussian 16 at Sun Aug 28 05:32:42 2022.
