 Gaussian 16, Revision A.03,
 Gaussian 16:  ES64L-G16RevA.03 25-Dec-2016

 ------------------
 #p CCSD(T)/cc-pVTZ
 ------------------

 ------------
 H2O_H2O_1597
 ------------
 Symbolic Z-matrix:
 Charge =  0 Multiplicity = 1

                         Standard orientation:
 ---------------------------------------------------------------------
 Center     Atomic      Atomic             Coordinates (Angstroms)
 Number     Number       Type             X           Y           Z
 ---------------------------------------------------------------------
      1          8           0       -0.019948    1.733735    0.000000
      2          1           0       -0.016189    0.751141    0.000000
      3          1           0        0.908320    2.055955    0.000000
      4          8           0       -0.019948   -1.566673    0.000000
      5          1           0       -0.993645   -1.698654    0.000000
      6          1           0        0.420679   -2.444940    0.000000
 ---------------------------------------------------------------------

 SCF Done:  E(RHF) =  -152.113213109     A.U. after   10 cycles
 E2 =    -0.5269054032D+00 EUMP2 =    -0.15264011851205D+03
 CCSD(T)
 CCSD(T)= -0.15266714193D+03

 The electronic state is 1-A'.
 Alpha  occ. eigenvalues --  -20.57758 -20.53364  -1.35058  -1.30778  -0.72492
 Alpha  occ. eigenvalues --   -0.68300  -0.58849  -0.54155  -0.52181  -0.47935
 Alpha virt. eigenvalues --    0.12172   0.17461   0.19103   0.28380   0.51104
 Alpha virt. eigenvalues --    0.54309   0.55867   0.60187   0.68918   0.73603
 Alpha virt. eigenvalues --    0.74621   0.77400   0.81175   0.83002   0.84323

 Mulliken charges:
               1
     1  O   -0.540867
     2  H    0.273179
     3  H    0.252423
     4  O   -0.504155
     5  H    0.263338
     6  H    0.256082
 Sum of Mulliken charges =  -0.00000

 Dipole moment (field-independent basis, Debye):
    X=              0.6783    Y=             -3.2433    Z=              0.0000  Tot=              3.3135
 Quadrupole moment (field-independent basis, Debye-Ang):
   XX=             -9.4475   YY=             -8.3812   ZZ=            -14.7314
   XY=              4.4272   XZ=              0.0000   YZ=              0.0000

 Normal termination of Gaussian 16 at Sat Aug 27 23:43:23 2022.
