 Gaussian 16, Revision A.03,
 Gaussian 16:  ES64L-G16RevA.03 25-Dec-2016

 ------------------
 #p CCSD(T)/cc-pVTZ
 ------------------

 ------------
 H2O_H2O_3831
 ------------
 Symbolic Z-matrix:
 Charge =  0 Multiplicity = 1

                         Standard orientation:
 ---------------------------------------------------------------------
 Center     Atomic      Atomic             Coordinates (Angstroms)
 Number     Number       Type             X           Y           Z
 ---------------------------------------------------------------------
      1          8           0        0.076753    2.629107    0.000000
      2          1           0        0.076213    1.646506    0.000000
      3          1           0       -0.852565    2.948284    0.000000
      4          8           0        0.076753   -2.465888    0.000000
      5          1           0        0.452280   -3.373900    0.000000
      6          1           0       -0.903969   -2.526642    0.000000
 ---------------------------------------------------------------------

 SCF Done:  E(RHF) =  -152.108361555     A.U. after   10 cycles
 E2 =    -0.5258737603D+00 EUMP2 =    -0.15263423531561D+03
 CCSD(T)
 CCSD(T)= -0.15266142660D+03

 The electronic state is 1-A'.
 Alpha  occ. eigenvalues --  -20.56348 -20.54960  -1.33646  -1.32267  -0.71057
 Alpha  occ. eigenvalues --   -0.69661  -0.57132  -0.55732  -0.50762  -0.49387
 Alpha virt. eigenvalues --    0.12665   0.15193   0.19359   0.21622   0.53263
 Alpha virt. eigenvalues --    0.55034   0.56497   0.57925   0.66727   0.69056
 Alpha virt. eigenvalues --    0.78137   0.78887   0.79469   0.80620   0.82722

 Mulliken charges:
               1
     1  O   -0.512623
     2  H    0.260555
     3  H    0.251528
     4  O   -0.513260
     5  H    0.259515
     6  H    0.254284
 Sum of Mulliken charges =  -0.00000

 Dipole moment (field-independent basis, Debye):
    X=             -2.6261    Y=             -2.8867    Z=             -0.0000  Tot=              3.9025
 Quadrupole moment (field-independent basis, Debye-Ang):
   XX=             -9.9505   YY=             -7.5136   ZZ=            -14.7145
   XY=             -3.5545   XZ=             -0.0000   YZ=             -0.0000

 Normal termination of Gaussian 16 at Fri Aug 26 23:56:07 2022.
