 Gaussian 16, Revision A.03,
 Gaussian 16:  ES64L-G16RevA.03 25-Dec-2016

 ------------------
 #p CCSD(T)/cc-pVTZ
 ------------------

 ------------
 H2O_H2O_3654
 ------------
 Symbolic Z-matrix:
 Charge =  0 Multiplicity = 1

                         Standard orientation:
 ---------------------------------------------------------------------
 Center     Atomic      Atomic             Coordinates (Angstroms)
 Number     Number       Type             X           Y           Z
 ---------------------------------------------------------------------
      1          8           0        0.082801    2.554580    0.000000
      2          1           0        0.082453    1.571979    0.000000
      3          1           0       -0.846579    2.873575   -0.000000
      4          8           0        0.082801   -2.400057    0.000000
      5          1           0        0.336783   -3.349267    0.000000
      6          1           0       -0.897473   -2.332472   -0.000000
 ---------------------------------------------------------------------

 SCF Done:  E(RHF) =  -152.108266981     A.U. after   10 cycles
 E2 =    -0.5259067278D+00 EUMP2 =    -0.15263417370892D+03
 CCSD(T)
 CCSD(T)= -0.15266136472D+03

 The electronic state is 1-A'.
 Alpha  occ. eigenvalues --  -20.56402 -20.55015  -1.33700  -1.32321  -0.71115
 Alpha  occ. eigenvalues --   -0.69712  -0.57180  -0.55783  -0.50814  -0.49439
 Alpha virt. eigenvalues --    0.12351   0.15266   0.19236   0.21966   0.53269
 Alpha virt. eigenvalues --    0.55046   0.56460   0.57999   0.66825   0.69058
 Alpha virt. eigenvalues --    0.78089   0.78752   0.79420   0.80927   0.82655

 Mulliken charges:
               1
     1  O   -0.511878
     2  H    0.260143
     3  H    0.251057
     4  O   -0.512252
     5  H    0.259634
     6  H    0.253296
 Sum of Mulliken charges =  -0.00000

 Dipole moment (field-independent basis, Debye):
    X=             -2.8308    Y=             -2.7394    Z=             -0.0000  Tot=              3.9392
 Quadrupole moment (field-independent basis, Debye-Ang):
   XX=            -10.2486   YY=             -8.0315   ZZ=            -14.7141
   XY=             -3.0781   XZ=              0.0000   YZ=             -0.0000

 Normal termination of Gaussian 16 at Fri Aug 26 22:54:39 2022.
