 Gaussian 16, Revision A.03,
 Gaussian 16:  ES64L-G16RevA.03 25-Dec-2016

 ------------------
 #p CCSD(T)/cc-pVTZ
 ------------------

 ------------
 H2O_H2O_3895
 ------------
 Symbolic Z-matrix:
 Charge =  0 Multiplicity = 1

                         Standard orientation:
 ---------------------------------------------------------------------
 Center     Atomic      Atomic             Coordinates (Angstroms)
 Number     Number       Type             X           Y           Z
 ---------------------------------------------------------------------
      1          8           0        0.026631    2.654501    0.000000
      2          1           0        0.024440    1.671902    0.000000
      3          1           0       -0.902149    2.975239    0.000000
      4          8           0        0.026631   -2.481260   -0.000000
      5          1           0        0.975182   -2.737692   -0.000000
      6          1           0       -0.523564   -3.295379   -0.000000
 ---------------------------------------------------------------------

 SCF Done:  E(RHF) =  -152.108876752     A.U. after   10 cycles
 E2 =    -0.5258148961D+00 EUMP2 =    -0.15263469164782D+03
 CCSD(T)
 CCSD(T)= -0.15266187356D+03

 The electronic state is 1-A'.
 Alpha  occ. eigenvalues --  -20.56312 -20.54837  -1.33610  -1.32149  -0.71014
 Alpha  occ. eigenvalues --   -0.69552  -0.57120  -0.55629  -0.50732  -0.49277
 Alpha virt. eigenvalues --    0.12944   0.15264   0.19500   0.21540   0.53379
 Alpha virt. eigenvalues --    0.55069   0.56593   0.57858   0.66695   0.69116
 Alpha virt. eigenvalues --    0.78162   0.79036   0.79570   0.80220   0.82870

 Mulliken charges:
               1
     1  O   -0.515997
     2  H    0.261355
     3  H    0.254090
     4  O   -0.516058
     5  H    0.258382
     6  H    0.258228
 Sum of Mulliken charges =  -0.00000

 Dipole moment (field-independent basis, Debye):
    X=             -0.9127    Y=             -3.0613    Z=             -0.0000  Tot=              3.1945
 Quadrupole moment (field-independent basis, Debye-Ang):
   XX=             -9.2886   YY=             -6.9550   ZZ=            -14.7164
   XY=             -6.3429   XZ=             -0.0000   YZ=             -0.0000

 CCSD(T)=-152.6618736\RMSD=7.062e-09\PG=CS [SG(H4O2)]\\@
 Normal termination of Gaussian 16 at Sat Aug 27 00:20:00 2022.
