 Gaussian 16, Revision A.03,
 Gaussian 16:  ES64L-G16RevA.03 25-Dec-2016

 ------------------
 #p CCSD(T)/cc-pVTZ
 ------------------

 -----------
 H2O_H2O_177
 -----------
 Symbolic Z-matrix:
 Charge =  0 Multiplicity = 1

                         Standard orientation:
 ---------------------------------------------------------------------
 Center     Atomic      Atomic             Coordinates (Angstroms)
 Number     Number       Type             X           Y           Z
 ---------------------------------------------------------------------
      1          8           0        0.088246   -1.162922    0.000000
      2          1           0        0.087879   -0.180321    0.000000
      3          1           0       -0.841128   -1.481936    0.000000
      4          8           0        0.088246    1.018637    0.000000
      5          1           0        0.216137    1.992880    0.000000
      6          1           0       -0.874818    0.823660    0.000000
 ---------------------------------------------------------------------

 SCF Done:  E(RHF) =  -152.052445925     A.U. after   11 cycles
 E2 =    -0.5373089786D+00 EUMP2 =    -0.15258975490325D+03
 CCSD(T)
 CCSD(T)= -0.15261558585D+03

 The electronic state is 1-A'.
 Alpha  occ. eigenvalues --  -20.61242 -20.48063  -1.42480  -1.27124  -0.81887
 Alpha  occ. eigenvalues --   -0.70427  -0.57310  -0.57218  -0.48750  -0.43946
 Alpha virt. eigenvalues --    0.10779   0.16006   0.21536   0.31986   0.49351
 Alpha virt. eigenvalues --    0.51084   0.59788   0.66302   0.71331   0.72726
 Alpha virt. eigenvalues --    0.75625   0.77789   0.79803   0.84258   0.85913

 Mulliken charges:
               1
     1  O   -0.597795
     2  H    0.267811
     3  H    0.194800
     4  O   -0.327222
     5  H    0.227024
     6  H    0.235383
 Sum of Mulliken charges =   0.00000

 Dipole moment (field-independent basis, Debye):
    X=             -2.7537    Y=              3.9860    Z=              0.0000  Tot=              4.8447
 Quadrupole moment (field-independent basis, Debye-Ang):
   XX=            -10.5270   YY=             -9.8125   ZZ=            -14.5508
   XY=              2.1817   XZ=              0.0000   YZ=              0.0000

 Normal termination of Gaussian 16 at Fri Aug 26 16:23:54 2022.
