 Gaussian 16, Revision A.03,
 Gaussian 16:  ES64L-G16RevA.03 25-Dec-2016

 ------------------
 #p CCSD(T)/cc-pVTZ
 ------------------

 ------------
 H2O_H2O_4483
 ------------
 Symbolic Z-matrix:
 Charge =  0 Multiplicity = 1

                         Standard orientation:
 ---------------------------------------------------------------------
 Center     Atomic      Atomic             Coordinates (Angstroms)
 Number     Number       Type             X           Y           Z
 ---------------------------------------------------------------------
      1          8           0        0.070184    2.892206   -0.000000
      2          1           0        0.069496    1.909605   -0.000000
      3          1           0       -0.859086    3.211523   -0.000000
      4          8           0        0.070184   -2.721938    0.000000
      5          1           0        0.560889   -3.573239    0.000000
      6          1           0       -0.894245   -2.910036    0.000000
 ---------------------------------------------------------------------

 SCF Done:  E(RHF) =  -152.108179976     A.U. after   10 cycles
 E2 =    -0.5258315993D+00 EUMP2 =    -0.15263401157482D+03
 CCSD(T)
 CCSD(T)= -0.15266121345D+03

 The electronic state is 1-A'.
 Alpha  occ. eigenvalues --  -20.56197 -20.55033  -1.33498  -1.32338  -0.70906
 Alpha  occ. eigenvalues --   -0.69736  -0.56981  -0.55803  -0.50614  -0.49458
 Alpha virt. eigenvalues --    0.13243   0.14871   0.19552   0.21091   0.53516
 Alpha virt. eigenvalues --    0.54868   0.56626   0.57769   0.66851   0.68701
 Alpha virt. eigenvalues --    0.78274   0.79403   0.79478   0.80509   0.82542

 Mulliken charges:
               1
     1  O   -0.512432
     2  H    0.259812
     3  H    0.252500
     4  O   -0.513375
     5  H    0.258555
     6  H    0.254940
 Sum of Mulliken charges =  -0.00000

 Dipole moment (field-independent basis, Debye):
    X=             -2.4066    Y=             -2.9893    Z=              0.0000  Tot=              3.8376
 Quadrupole moment (field-independent basis, Debye-Ang):
   XX=             -9.6791   YY=             -6.8223   ZZ=            -14.7139
   XY=             -4.1903   XZ=              0.0000   YZ=             -0.0000

 Normal termination of Gaussian 16 at Sun Aug 28 03:16:35 2022.
