 Gaussian 16, Revision A.03,
 Gaussian 16:  ES64L-G16RevA.03 25-Dec-2016

 ------------------
 #p CCSD(T)/cc-pVTZ
 ------------------

 ------------
 H2O_H2O_3358
 ------------
 Symbolic Z-matrix:
 Charge =  0 Multiplicity = 1

                         Standard orientation:
 ---------------------------------------------------------------------
 Center     Atomic      Atomic             Coordinates (Angstroms)
 Number     Number       Type             X           Y           Z
 ---------------------------------------------------------------------
      1          8           0        0.070195    2.443460   -0.000000
      2          1           0        0.069377    1.460859   -0.000000
      3          1           0       -0.859032    2.762901   -0.000000
      4          8           0        0.070195   -2.273211    0.000000
      5          1           0        0.560787   -3.124578    0.000000
      6          1           0       -0.894259   -2.461180    0.000000
 ---------------------------------------------------------------------

 SCF Done:  E(RHF) =  -152.108931750     A.U. after   10 cycles
 E2 =    -0.5259148304D+00 EUMP2 =    -0.15263484658032D+03
 CCSD(T)
 CCSD(T)= -0.15266201626D+03

 The electronic state is 1-A'.
 Alpha  occ. eigenvalues --  -20.56501 -20.54738  -1.33791  -1.32050  -0.71200
 Alpha  occ. eigenvalues --   -0.69440  -0.57296  -0.55523  -0.50911  -0.49175
 Alpha virt. eigenvalues --    0.12468   0.15552   0.19446   0.22034   0.53426
 Alpha virt. eigenvalues --    0.55123   0.56402   0.58189   0.67215   0.69295
 Alpha virt. eigenvalues --    0.77995   0.78734   0.79669   0.80154   0.82942

 Mulliken charges:
               1
     1  O   -0.514742
     2  H    0.262316
     3  H    0.250931
     4  O   -0.513470
     5  H    0.259996
     6  H    0.254969
 Sum of Mulliken charges =  -0.00000

 Dipole moment (field-independent basis, Debye):
    X=             -2.3969    Y=             -3.0376    Z=             -0.0000  Tot=              3.8694
 Quadrupole moment (field-independent basis, Debye-Ang):
   XX=             -9.6832   YY=             -7.3839   ZZ=            -14.7166
   XY=             -3.8337   XZ=              0.0000   YZ=             -0.0000

 CCSD(T)=-152.6620163\RMSD=7.061e-09\PG=CS [SG(H4O2)]\\@
 Normal termination of Gaussian 16 at Fri Aug 26 21:15:36 2022.
