 Gaussian 16, Revision A.03,
 Gaussian 16:  ES64L-G16RevA.03 25-Dec-2016

 ------------------
 #p CCSD(T)/cc-pVTZ
 ------------------

 ------------
 H2O_H2O_3472
 ------------
 Symbolic Z-matrix:
 Charge =  0 Multiplicity = 1

                         Standard orientation:
 ---------------------------------------------------------------------
 Center     Atomic      Atomic             Coordinates (Angstroms)
 Number     Number       Type             X           Y           Z
 ---------------------------------------------------------------------
      1          8           0       -0.019848    2.481650    0.000000
      2          1           0       -0.017262    1.499052    0.000000
      3          1           0        0.908803    2.802762    0.000000
      4          8           0       -0.019848   -2.314540    0.000000
      5          1           0       -0.993702   -2.445359    0.000000
      6          1           0        0.419730   -3.193333    0.000000
 ---------------------------------------------------------------------

 SCF Done:  E(RHF) =  -152.109232212     A.U. after   10 cycles
 E2 =    -0.5258475156D+00 EUMP2 =    -0.15263507972764D+03
 CCSD(T)
 CCSD(T)= -0.15266224765D+03

 The electronic state is 1-A'.
 Alpha  occ. eigenvalues --  -20.56437 -20.54765  -1.33731  -1.32079  -0.71136
 Alpha  occ. eigenvalues --   -0.69485  -0.57251  -0.55565  -0.50855  -0.49211
 Alpha virt. eigenvalues --    0.12573   0.15542   0.19328   0.22162   0.53339
 Alpha virt. eigenvalues --    0.55331   0.56536   0.57988   0.67036   0.69279
 Alpha virt. eigenvalues --    0.78046   0.78721   0.79630   0.80445   0.82962

 Mulliken charges:
               1
     1  O   -0.517467
     2  H    0.261793
     3  H    0.254465
     4  O   -0.516043
     5  H    0.258411
     6  H    0.258841
 Sum of Mulliken charges =   0.00000

 Dipole moment (field-independent basis, Debye):
    X=              0.6806    Y=             -2.9730    Z=              0.0000  Tot=              3.0499
 Quadrupole moment (field-independent basis, Debye-Ang):
   XX=             -9.4466   YY=             -7.4575   ZZ=            -14.7176
   XY=              6.3192   XZ=              0.0000   YZ=              0.0000

 CCSD(T)=-152.6622476\RMSD=6.983e-09\PG=CS [SG(H4O2)]\\@
 Normal termination of Gaussian 16 at Fri Aug 26 21:53:13 2022.
