 Gaussian 16, Revision A.03,
 Gaussian 16:  ES64L-G16RevA.03 25-Dec-2016

 ------------------
 #p CCSD(T)/cc-pVTZ
 ------------------

 ------------
 H2O_H2O_4900
 ------------
 Symbolic Z-matrix:
 Charge =  0 Multiplicity = 1

                         Standard orientation:
 ---------------------------------------------------------------------
 Center     Atomic      Atomic             Coordinates (Angstroms)
 Number     Number       Type             X           Y           Z
 ---------------------------------------------------------------------
      1          8           0        0.092949   -3.041370    0.000000
      2          1           0        0.092949   -2.058769    0.000000
      3          1           0       -0.836544   -3.360037    0.000000
      4          8           0        0.092949    2.908583    0.000000
      5          1           0        0.092949    3.891185    0.000000
      6          1           0       -0.836544    2.589916    0.000000
 ---------------------------------------------------------------------

 SCF Done:  E(RHF) =  -152.107581644     A.U. after   10 cycles
 E2 =    -0.5258680201D+00 EUMP2 =    -0.15263344966369D+03
 CCSD(T)
 CCSD(T)= -0.15266066651D+03

 The electronic state is 1-A'.
 Alpha  occ. eigenvalues --  -20.56147 -20.55386  -1.33449  -1.32686  -0.70862
 Alpha  occ. eigenvalues --   -0.70085  -0.56906  -0.56137  -0.50559  -0.49799
 Alpha virt. eigenvalues --    0.13075   0.14555   0.19017   0.21317   0.53433
 Alpha virt. eigenvalues --    0.54669   0.56598   0.57546   0.67096   0.68248
 Alpha virt. eigenvalues --    0.78329   0.79077   0.79661   0.80942   0.81674

 Mulliken charges:
               1
     1  O   -0.509401
     2  H    0.256836
     3  H    0.252548
     4  O   -0.510206
     5  H    0.257582
     6  H    0.252641
 Sum of Mulliken charges =  -0.00000

 Dipole moment (field-independent basis, Debye):
    X=             -3.1909    Y=              2.3231    Z=              0.0000  Tot=              3.9470
 Quadrupole moment (field-independent basis, Debye-Ang):
   XX=            -10.8439   YY=             -9.2966   ZZ=            -14.7117
   XY=              2.1598   XZ=              0.0000   YZ=              0.0000

 Normal termination of Gaussian 16 at Sun Aug 28 06:46:05 2022.
