 Gaussian 16, Revision A.03,
 Gaussian 16:  ES64L-G16RevA.03 25-Dec-2016

 ------------------
 #p CCSD(T)/cc-pVTZ
 ------------------

 -----------
 H2O_H2O_641
 -----------
 Symbolic Z-matrix:
 Charge =  0 Multiplicity = 1

                         Standard orientation:
 ---------------------------------------------------------------------
 Center     Atomic      Atomic             Coordinates (Angstroms)
 Number     Number       Type             X           Y           Z
 ---------------------------------------------------------------------
      1          8           0        0.041279    1.361719    0.000000
      2          1           0        0.037822    0.379123    0.000000
      3          1           0       -0.887087    1.683654    0.000000
      4          8           0        0.041279   -1.181921   -0.000000
      5          1           0        0.890504   -1.676214   -0.000000
      6          1           0       -0.701708   -1.824942   -0.000000
 ---------------------------------------------------------------------

 SCF Done:  E(RHF) =  -152.106584229     A.U. after   11 cycles
 E2 =    -0.5306184209D+00 EUMP2 =    -0.15263720264996D+03
 CCSD(T)
 CCSD(T)= -0.15266374227D+03

 The electronic state is 1-A'.
 Alpha  occ. eigenvalues --  -20.59780 -20.49657  -1.37852  -1.27859  -0.74716
 Alpha  occ. eigenvalues --   -0.69896  -0.59163  -0.54672  -0.50255  -0.44868
 Alpha virt. eigenvalues --    0.11482   0.17918   0.19448   0.33429   0.47568
 Alpha virt. eigenvalues --    0.53990   0.59459   0.63843   0.69390   0.72355
 Alpha virt. eigenvalues --    0.72815   0.78293   0.81491   0.82906   0.84230

 Mulliken charges:
               1
     1  O   -0.602907
     2  H    0.311985
     3  H    0.233095
     4  O   -0.457476
     5  H    0.263219
     6  H    0.252084
 Sum of Mulliken charges =  -0.00000

 Dipole moment (field-independent basis, Debye):
    X=             -1.3350    Y=             -4.1306    Z=             -0.0000  Tot=              4.3410
 Quadrupole moment (field-independent basis, Debye-Ang):
   XX=             -9.1288   YY=             -9.2329   ZZ=            -14.6947
   XY=             -3.1853   XZ=             -0.0000   YZ=              0.0000

 Normal termination of Gaussian 16 at Fri Aug 26 19:34:37 2022.
