 Gaussian 16, Revision A.03,
 Gaussian 16:  ES64L-G16RevA.03 25-Dec-2016

 ------------------
 #p CCSD(T)/cc-pVTZ
 ------------------

 ------------
 H2O_H2O_1921
 ------------
 Symbolic Z-matrix:
 Charge =  0 Multiplicity = 1

                         Standard orientation:
 ---------------------------------------------------------------------
 Center     Atomic      Atomic             Coordinates (Angstroms)
 Number     Number       Type             X           Y           Z
 ---------------------------------------------------------------------
      1          8           0       -0.023271    1.865155    0.000000
      2          1           0       -0.019946    0.882559    0.000000
      3          1           0        0.905138    2.186965    0.000000
      4          8           0       -0.023271   -1.694802    0.000000
      5          1           0       -0.986338   -1.889759    0.000000
      6          1           0        0.473480   -2.542590    0.000000
 ---------------------------------------------------------------------

 SCF Done:  E(RHF) =  -152.112473576     A.U. after   10 cycles
 E2 =    -0.5264676471D+00 EUMP2 =    -0.15263894122273D+03
 CCSD(T)
 CCSD(T)= -0.15266600039D+03

 The electronic state is 1-A'.
 Alpha  occ. eigenvalues --  -20.57400 -20.53738  -1.34667  -1.31105  -0.72073
 Alpha  occ. eigenvalues --   -0.68550  -0.58377  -0.54555  -0.51802  -0.48261
 Alpha virt. eigenvalues --    0.12221   0.17084   0.19161   0.26664   0.52197
 Alpha virt. eigenvalues --    0.54533   0.56097   0.59155   0.68973   0.72893
 Alpha virt. eigenvalues --    0.75928   0.78051   0.80721   0.83372   0.84244

 Mulliken charges:
               1
     1  O   -0.532654
     2  H    0.268780
     3  H    0.252465
     4  O   -0.508929
     5  H    0.261976
     6  H    0.258362
 Sum of Mulliken charges =  -0.00000

 Dipole moment (field-independent basis, Debye):
    X=              0.7911    Y=             -3.2202    Z=              0.0000  Tot=              3.3159
 Quadrupole moment (field-independent basis, Debye-Ang):
   XX=             -9.3627   YY=             -8.1242   ZZ=            -14.7293
   XY=              4.6429   XZ=              0.0000   YZ=              0.0000

 Normal termination of Gaussian 16 at Sun Aug 28 02:48:45 2022.
