 Gaussian 16, Revision A.03,
 Gaussian 16:  ES64L-G16RevA.03 25-Dec-2016

 ------------------
 #p CCSD(T)/cc-pVTZ
 ------------------

 ------------
 H2O_H2O_1695
 ------------
 Symbolic Z-matrix:
 Charge =  0 Multiplicity = 1

                         Standard orientation:
 ---------------------------------------------------------------------
 Center     Atomic      Atomic             Coordinates (Angstroms)
 Number     Number       Type             X           Y           Z
 ---------------------------------------------------------------------
      1          8           0        0.026731    1.776943   -0.000000
      2          1           0        0.023403    0.794348   -0.000000
      3          1           0       -0.901677    2.098756   -0.000000
      4          8           0        0.026731   -1.603764    0.000000
      5          1           0        0.974985   -1.861294    0.000000
      6          1           0       -0.524406   -2.417246    0.000000
 ---------------------------------------------------------------------

 SCF Done:  E(RHF) =  -152.113258955     A.U. after   10 cycles
 E2 =    -0.5267481698D+00 EUMP2 =    -0.15264000712526D+03
 CCSD(T)
 CCSD(T)= -0.15266703753D+03

 The electronic state is 1-A'.
 Alpha  occ. eigenvalues --  -20.57661 -20.53378  -1.34936  -1.30778  -0.72330
 Alpha  occ. eigenvalues --   -0.68287  -0.58717  -0.54183  -0.52070  -0.47936
 Alpha virt. eigenvalues --    0.12188   0.17404   0.19059   0.27859   0.51271
 Alpha virt. eigenvalues --    0.54319   0.56041   0.59677   0.69000   0.72975
 Alpha virt. eigenvalues --    0.75070   0.77402   0.81102   0.83186   0.84459

 Mulliken charges:
               1
     1  O   -0.537977
     2  H    0.272236
     3  H    0.251132
     4  O   -0.507160
     5  H    0.263406
     6  H    0.258363
 Sum of Mulliken charges =  -0.00000

 Dipole moment (field-independent basis, Debye):
    X=             -0.9042    Y=             -3.3334    Z=              0.0000  Tot=              3.4538
 Quadrupole moment (field-independent basis, Debye-Ang):
   XX=             -9.2895   YY=             -8.2155   ZZ=            -14.7325
   XY=             -4.3268   XZ=              0.0000   YZ=             -0.0000

 Normal termination of Gaussian 16 at Sun Aug 28 00:45:15 2022.
