 Gaussian 16, Revision A.03,
 Gaussian 16:  ES64L-G16RevA.03 25-Dec-2016

 ------------------
 #p CCSD(T)/cc-pVTZ
 ------------------

 ------------
 H2O_H2O_4191
 ------------
 Symbolic Z-matrix:
 Charge =  0 Multiplicity = 1

                         Standard orientation:
 ---------------------------------------------------------------------
 Center     Atomic      Atomic             Coordinates (Angstroms)
 Number     Number       Type             X           Y           Z
 ---------------------------------------------------------------------
      1          8           0        0.041113    2.777806    0.000000
      2          1           0        0.039476    1.795206    0.000000
      3          1           0       -0.887848    3.098019    0.000000
      4          8           0        0.041113   -2.597856    0.000000
      5          1           0        0.891251   -3.090572    0.000000
      6          1           0       -0.700681   -3.242253    0.000000
 ---------------------------------------------------------------------

 SCF Done:  E(RHF) =  -152.108642168     A.U. after   10 cycles
 E2 =    -0.5258094306D+00 EUMP2 =    -0.15263445159889D+03
 CCSD(T)
 CCSD(T)= -0.15266164149D+03

 The electronic state is 1-A'.
 Alpha  occ. eigenvalues --  -20.56245 -20.54866  -1.33545  -1.32175  -0.70948
 Alpha  occ. eigenvalues --   -0.69576  -0.57047  -0.55651  -0.50665  -0.49301
 Alpha virt. eigenvalues --    0.13204   0.15096   0.19661   0.21209   0.53591
 Alpha virt. eigenvalues --    0.54895   0.56624   0.57817   0.66701   0.68971
 Alpha virt. eigenvalues --    0.78225   0.79536   0.79550   0.79861   0.82823

 Mulliken charges:
               1
     1  O   -0.514871
     2  H    0.261181
     3  H    0.253395
     4  O   -0.515446
     5  H    0.258585
     6  H    0.257156
 Sum of Mulliken charges =   0.00000

 Dipole moment (field-independent basis, Debye):
    X=             -1.4089    Y=             -3.1688    Z=              0.0000  Tot=              3.4679
 Quadrupole moment (field-independent basis, Debye-Ang):
   XX=             -9.1493   YY=             -6.4403   ZZ=            -14.7156
   XY=             -5.7864   XZ=              0.0000   YZ=              0.0000

 Normal termination of Gaussian 16 at Sun Aug 28 00:32:13 2022.
