 Gaussian 16, Revision A.03,
 Gaussian 16:  ES64L-G16RevA.03 25-Dec-2016

 ------------------
 #p CCSD(T)/cc-pVTZ
 ------------------

 ------------
 H2O_H2O_1969
 ------------
 Symbolic Z-matrix:
 Charge =  0 Multiplicity = 1

                         Standard orientation:
 ---------------------------------------------------------------------
 Center     Atomic      Atomic             Coordinates (Angstroms)
 Number     Number       Type             X           Y           Z
 ---------------------------------------------------------------------
      1          8           0        0.030243    1.887931    0.000000
      2          1           0        0.027284    0.905334    0.000000
      3          1           0       -0.898286    2.209395    0.000000
      4          8           0        0.030243   -1.712361   -0.000000
      5          1           0        0.959743   -2.031008   -0.000000
      6          1           0       -0.572627   -2.488283   -0.000000
 ---------------------------------------------------------------------

 SCF Done:  E(RHF) =  -152.112493759     A.U. after   10 cycles
 E2 =    -0.5264222923D+00 EUMP2 =    -0.15263891605119D+03
 CCSD(T)
 CCSD(T)= -0.15266597611D+03

 The electronic state is 1-A'.
 Alpha  occ. eigenvalues --  -20.57370 -20.53692  -1.34628  -1.31056  -0.72018
 Alpha  occ. eigenvalues --   -0.68499  -0.58336  -0.54513  -0.51767  -0.48212
 Alpha virt. eigenvalues --    0.12241   0.17069   0.19141   0.26440   0.52031
 Alpha virt. eigenvalues --    0.54718   0.56282   0.58991   0.69057   0.72558
 Alpha virt. eigenvalues --    0.76116   0.77823   0.80733   0.83422   0.84328

 Mulliken charges:
               1
     1  O   -0.531749
     2  H    0.269097
     3  H    0.251284
     4  O   -0.509068
     5  H    0.262059
     6  H    0.258376
 Sum of Mulliken charges =  -0.00000

 Dipole moment (field-independent basis, Debye):
    X=             -1.0248    Y=             -3.3102    Z=             -0.0000  Tot=              3.4652
 Quadrupole moment (field-independent basis, Debye-Ang):
   XX=             -9.2308   YY=             -7.9853   ZZ=            -14.7295
   XY=             -4.4773   XZ=             -0.0000   YZ=              0.0000

 Normal termination of Gaussian 16 at Sun Aug 28 03:14:19 2022.
