 Gaussian 16, Revision A.03,
 Gaussian 16:  ES64L-G16RevA.03 25-Dec-2016

 ------------------
 #p CCSD(T)/cc-pVTZ
 ------------------

 ------------
 H2O_H2O_1337
 ------------
 Symbolic Z-matrix:
 Charge =  0 Multiplicity = 1

                         Standard orientation:
 ---------------------------------------------------------------------
 Center     Atomic      Atomic             Coordinates (Angstroms)
 Number     Number       Type             X           Y           Z
 ---------------------------------------------------------------------
      1          8           0        0.056048    1.640404   -0.000000
      2          1           0        0.054025    0.657804   -0.000000
      3          1           0       -0.872787    1.960983   -0.000000
      4          8           0        0.056048   -1.461568    0.000000
      5          1           0        0.749420   -2.157801    0.000000
      6          1           0       -0.827423   -1.891669    0.000000
 ---------------------------------------------------------------------

 SCF Done:  E(RHF) =  -152.113812528     A.U. after   10 cycles
 E2 =    -0.5275635544D+00 EUMP2 =    -0.15264137608202D+03
 CCSD(T)
 CCSD(T)= -0.15266834259D+03

 The electronic state is 1-A'.
 Alpha  occ. eigenvalues --  -20.58208 -20.52643  -1.35533  -1.30135  -0.72859
 Alpha  occ. eigenvalues --   -0.67969  -0.59305  -0.53404  -0.52647  -0.47273
 Alpha virt. eigenvalues --    0.11939   0.17565   0.19087   0.29932   0.49178
 Alpha virt. eigenvalues --    0.54873   0.56458   0.59543   0.69488   0.71950
 Alpha virt. eigenvalues --    0.73688   0.76755   0.81817   0.82818   0.84840

 Mulliken charges:
               1
     1  O   -0.546114
     2  H    0.283441
     3  H    0.242555
     4  O   -0.501819
     5  H    0.264290
     6  H    0.257646
 Sum of Mulliken charges =  -0.00000

 Dipole moment (field-independent basis, Debye):
    X=             -1.8695    Y=             -3.5732    Z=              0.0000  Tot=              4.0327
 Quadrupole moment (field-independent basis, Debye-Ang):
   XX=             -9.2970   YY=             -8.4263   ZZ=            -14.7334
   XY=             -3.4906   XZ=              0.0000   YZ=             -0.0000

 Normal termination of Gaussian 16 at Fri Aug 26 23:56:42 2022.
