 Gaussian 16, Revision A.03,
 Gaussian 16:  ES64L-G16RevA.03 25-Dec-2016

 ------------------
 #p CCSD(T)/cc-pVTZ
 ------------------

 -----------
 H2O_H2O_430
 -----------
 Symbolic Z-matrix:
 Charge =  0 Multiplicity = 1

                         Standard orientation:
 ---------------------------------------------------------------------
 Center     Atomic      Atomic             Coordinates (Angstroms)
 Number     Number       Type             X           Y           Z
 ---------------------------------------------------------------------
      1          8           0        0.079888   -1.270631    0.000000
      2          1           0        0.078955   -0.288030    0.000000
      3          1           0       -0.849302   -1.590179    0.000000
      4          8           0        0.079888    1.111641    0.000000
      5          1           0        0.394852    2.042396    0.000000
      6          1           0       -0.902706    1.107729    0.000000
 ---------------------------------------------------------------------

 SCF Done:  E(RHF) =  -152.090218806     A.U. after   11 cycles
 E2 =    -0.5334163336D+00 EUMP2 =    -0.15262363513914D+03
 CCSD(T)
 CCSD(T)= -0.15264995287D+03

 The electronic state is 1-A'.
 Alpha  occ. eigenvalues --  -20.60376 -20.49542  -1.39366  -1.27966  -0.77601
 Alpha  occ. eigenvalues --   -0.69897  -0.58545  -0.55624  -0.50198  -0.44885
 Alpha virt. eigenvalues --    0.11063   0.16545   0.20673   0.32798   0.48705
 Alpha virt. eigenvalues --    0.52633   0.59399   0.64379   0.71906   0.72437
 Alpha virt. eigenvalues --    0.74393   0.78153   0.79018   0.83732   0.84569

 Mulliken charges:
               1
     1  O   -0.591250
     2  H    0.293368
     3  H    0.213584
     4  O   -0.384117
     5  H    0.232479
     6  H    0.235935
 Sum of Mulliken charges =  -0.00000

 Dipole moment (field-independent basis, Debye):
    X=             -2.5374    Y=              3.9115    Z=              0.0000  Tot=              4.6624
 Quadrupole moment (field-independent basis, Debye-Ang):
   XX=            -10.1130   YY=             -9.4373   ZZ=            -14.6348
   XY=              2.5896   XZ=              0.0000   YZ=              0.0000

 Normal termination of Gaussian 16 at Fri Aug 26 18:12:44 2022.
