 Gaussian 16, Revision A.03,
 Gaussian 16:  ES64L-G16RevA.03 25-Dec-2016

 ------------------
 #p CCSD(T)/cc-pVTZ
 ------------------

 ------------
 H2O_H2O_2500
 ------------
 Symbolic Z-matrix:
 Charge =  0 Multiplicity = 1

                         Standard orientation:
 ---------------------------------------------------------------------
 Center     Atomic      Atomic             Coordinates (Angstroms)
 Number     Number       Type             X           Y           Z
 ---------------------------------------------------------------------
      1          8           0        0.092949   -2.084065    0.000000
      2          1           0        0.092949   -1.101464    0.000000
      3          1           0       -0.836544   -2.402732    0.000000
      4          8           0        0.092949    1.951278    0.000000
      5          1           0        0.092949    2.933880    0.000000
      6          1           0       -0.836544    1.632611    0.000000
 ---------------------------------------------------------------------

 SCF Done:  E(RHF) =  -152.108398935     A.U. after   10 cycles
 E2 =    -0.5263095140D+00 EUMP2 =    -0.15263470844932D+03
 CCSD(T)
 CCSD(T)= -0.15266187181D+03

 The electronic state is 1-A'.
 Alpha  occ. eigenvalues --  -20.56922 -20.55041  -1.34214  -1.32341  -0.71680
 Alpha  occ. eigenvalues --   -0.69697  -0.57688  -0.55784  -0.51317  -0.49454
 Alpha virt. eigenvalues --    0.11418   0.15831   0.19832   0.24166   0.53580
 Alpha virt. eigenvalues --    0.55691   0.56486   0.57798   0.68304   0.70875
 Alpha virt. eigenvalues --    0.77328   0.78853   0.79499   0.80149   0.83230

 Mulliken charges:
               1
     1  O   -0.512101
     2  H    0.262366
     3  H    0.247258
     4  O   -0.504247
     5  H    0.259363
     6  H    0.247361
 Sum of Mulliken charges =  -0.00000

 Dipole moment (field-independent basis, Debye):
    X=             -3.1513    Y=              2.4192    Z=              0.0000  Tot=              3.9728
 Quadrupole moment (field-independent basis, Debye-Ang):
   XX=            -10.8685   YY=             -9.1838   ZZ=            -14.7131
   XY=              2.1442   XZ=              0.0000   YZ=              0.0000

 Normal termination of Gaussian 16 at Fri Aug 26 15:11:42 2022.
