 Gaussian 16, Revision A.03,
 Gaussian 16:  ES64L-G16RevA.03 25-Dec-2016

 ------------------
 #p CCSD(T)/cc-pVTZ
 ------------------

 ------------
 H2O_H2O_4234
 ------------
 Symbolic Z-matrix:
 Charge =  0 Multiplicity = 1

                         Standard orientation:
 ---------------------------------------------------------------------
 Center     Atomic      Atomic             Coordinates (Angstroms)
 Number     Number       Type             X           Y           Z
 ---------------------------------------------------------------------
      1          8           0        0.066746    2.794040   -0.000000
      2          1           0        0.065925    1.811439   -0.000000
      3          1           0       -0.862480    3.113483   -0.000000
      4          8           0        0.066746   -2.620914    0.000000
      5          1           0        0.611968   -3.438373    0.000000
      6          1           0       -0.883351   -2.871557    0.000000
 ---------------------------------------------------------------------

 SCF Done:  E(RHF) =  -152.108350450     A.U. after   10 cycles
 E2 =    -0.5258332886D+00 EUMP2 =    -0.15263418373867D+03
 CCSD(T)
 CCSD(T)= -0.15266137999D+03

 The electronic state is 1-A'.
 Alpha  occ. eigenvalues --  -20.56245 -20.54954  -1.33545  -1.32261  -0.70952
 Alpha  occ. eigenvalues --   -0.69658  -0.57034  -0.55729  -0.50662  -0.49382
 Alpha virt. eigenvalues --    0.13124   0.15009   0.19561   0.21201   0.53475
 Alpha virt. eigenvalues --    0.54914   0.56593   0.57809   0.66735   0.68886
 Alpha virt. eigenvalues --    0.78229   0.79312   0.79474   0.80312   0.82717

 Mulliken charges:
               1
     1  O   -0.513135
     2  H    0.260532
     3  H    0.252362
     4  O   -0.514026
     5  H    0.258947
     6  H    0.255319
 Sum of Mulliken charges =  -0.00000

 Dipole moment (field-independent basis, Debye):
    X=             -2.2871    Y=             -3.0470    Z=             -0.0000  Tot=              3.8099
 Quadrupole moment (field-independent basis, Debye-Ang):
   XX=             -9.5606   YY=             -6.7883   ZZ=            -14.7145
   XY=             -4.3367   XZ=              0.0000   YZ=             -0.0000

 Normal termination of Gaussian 16 at Sun Aug 28 00:59:57 2022.
