 Gaussian 16, Revision A.03,
 Gaussian 16:  ES64L-G16RevA.03 25-Dec-2016

 ------------------
 #p CCSD(T)/cc-pVTZ
 ------------------

 ------------
 H2O_H2O_4175
 ------------
 Symbolic Z-matrix:
 Charge =  0 Multiplicity = 1

                         Standard orientation:
 ---------------------------------------------------------------------
 Center     Atomic      Atomic             Coordinates (Angstroms)
 Number     Number       Type             X           Y           Z
 ---------------------------------------------------------------------
      1          8           0        0.092949   -2.752184    0.000000
      2          1           0        0.092949   -1.769583    0.000000
      3          1           0       -0.836544   -3.070851    0.000000
      4          8           0        0.092949    2.619397    0.000000
      5          1           0        0.092949    3.601999    0.000000
      6          1           0       -0.836544    2.300731    0.000000
 ---------------------------------------------------------------------

 SCF Done:  E(RHF) =  -152.107659480     A.U. after   10 cycles
 E2 =    -0.5258944632D+00 EUMP2 =    -0.15263355394357D+03
 CCSD(T)
 CCSD(T)= -0.15266076622D+03

 The electronic state is 1-A'.
 Alpha  occ. eigenvalues --  -20.56277 -20.55322  -1.33577  -1.32623  -0.70995
 Alpha  occ. eigenvalues --   -0.70018  -0.57037  -0.56074  -0.50687  -0.49735
 Alpha virt. eigenvalues --    0.12380   0.14898   0.18820   0.22081   0.53135
 Alpha virt. eigenvalues --    0.54889   0.56512   0.57760   0.66812   0.68592
 Alpha virt. eigenvalues --    0.78208   0.79139   0.79441   0.81539   0.81937

 Mulliken charges:
               1
     1  O   -0.509429
     2  H    0.257532
     3  H    0.251766
     4  O   -0.510503
     5  H    0.258655
     6  H    0.251979
 Sum of Mulliken charges =  -0.00000

 Dipole moment (field-independent basis, Debye):
    X=             -3.1843    Y=              2.3364    Z=              0.0000  Tot=              3.9495
 Quadrupole moment (field-independent basis, Debye-Ang):
   XX=            -10.8467   YY=             -9.2758   ZZ=            -14.7118
   XY=              2.1557   XZ=              0.0000   YZ=              0.0000

 Normal termination of Gaussian 16 at Sun Aug 28 00:26:19 2022.
