 Gaussian 16, Revision A.03,
 Gaussian 16:  ES64L-G16RevA.03 25-Dec-2016

 ------------------
 #p CCSD(T)/cc-pVTZ
 ------------------

 ------------
 H2O_H2O_2079
 ------------
 Symbolic Z-matrix:
 Charge =  0 Multiplicity = 1

                         Standard orientation:
 ---------------------------------------------------------------------
 Center     Atomic      Atomic             Coordinates (Angstroms)
 Number     Number       Type             X           Y           Z
 ---------------------------------------------------------------------
      1          8           0        0.082810   -1.926338    0.000000
      2          1           0        0.082345   -0.943737    0.000000
      3          1           0       -0.846532   -2.245445    0.000000
      4          8           0        0.082810    1.771835    0.000000
      5          1           0        0.336677    2.721076    0.000000
      6          1           0       -0.897455    1.704133    0.000000
 ---------------------------------------------------------------------

 SCF Done:  E(RHF) =  -152.110139486     A.U. after   10 cycles
 E2 =    -0.5265328491D+00 EUMP2 =    -0.15263667233537D+03
 CCSD(T)
 CCSD(T)= -0.15266377862D+03

 The electronic state is 1-A'.
 Alpha  occ. eigenvalues --  -20.57257 -20.54386  -1.34537  -1.31713  -0.71996
 Alpha  occ. eigenvalues --   -0.69076  -0.58093  -0.55153  -0.51649  -0.48838
 Alpha virt. eigenvalues --    0.11757   0.16327   0.19716   0.25365   0.52101
 Alpha virt. eigenvalues --    0.55747   0.56493   0.57854   0.68720   0.72949
 Alpha virt. eigenvalues --    0.76416   0.78905   0.80172   0.82614   0.83295

 Mulliken charges:
               1
     1  O   -0.519061
     2  H    0.266490
     3  H    0.245361
     4  O   -0.502775
     5  H    0.259145
     6  H    0.250840
 Sum of Mulliken charges =  -0.00000

 Dipole moment (field-independent basis, Debye):
    X=             -2.7974    Y=              2.8815    Z=              0.0000  Tot=              4.0160
 Quadrupole moment (field-independent basis, Debye-Ang):
   XX=            -10.2727   YY=             -8.4567   ZZ=            -14.7199
   XY=              2.8480   XZ=              0.0000   YZ=              0.0000

 Normal termination of Gaussian 16 at Sun Aug 28 04:10:18 2022.
