 Gaussian 16, Revision A.03,
 Gaussian 16:  ES64L-G16RevA.03 25-Dec-2016

 ------------------
 #p CCSD(T)/cc-pVTZ
 ------------------

 ------------
 H2O_H2O_2188
 ------------
 Symbolic Z-matrix:
 Charge =  0 Multiplicity = 1

                         Standard orientation:
 ---------------------------------------------------------------------
 Center     Atomic      Atomic             Coordinates (Angstroms)
 Number     Number       Type             X           Y           Z
 ---------------------------------------------------------------------
      1          8           0        0.052326    1.980003   -0.000000
      2          1           0        0.050500    0.997403   -0.000000
      3          1           0       -0.876573    2.300396   -0.000000
      4          8           0        0.052326   -1.800144    0.000000
      5          1           0        0.789880   -2.449390    0.000000
      6          1           0       -0.801024   -2.287278    0.000000
 ---------------------------------------------------------------------

 SCF Done:  E(RHF) =  -152.111660760     A.U. after   10 cycles
 E2 =    -0.5262832325D+00 EUMP2 =    -0.15263794399222D+03
 CCSD(T)
 CCSD(T)= -0.15266502640D+03

 The electronic state is 1-A'.
 Alpha  occ. eigenvalues --  -20.57191 -20.53879  -1.34444  -1.31224  -0.71834
 Alpha  occ. eigenvalues --   -0.68630  -0.58089  -0.54695  -0.51582  -0.48371
 Alpha virt. eigenvalues --    0.12235   0.16750   0.19245   0.25350   0.52018
 Alpha virt. eigenvalues --    0.55369   0.56319   0.58979   0.69006   0.71938
 Alpha virt. eigenvalues --    0.76772   0.78032   0.80513   0.83407   0.83533

 Mulliken charges:
               1
     1  O   -0.526129
     2  H    0.268207
     3  H    0.248851
     4  O   -0.508569
     5  H    0.261215
     6  H    0.256425
 Sum of Mulliken charges =  -0.00000

 Dipole moment (field-independent basis, Debye):
    X=             -1.7725    Y=             -3.3480    Z=              0.0000  Tot=              3.7882
 Quadrupole moment (field-independent basis, Debye-Ang):
   XX=             -9.2301   YY=             -7.7426   ZZ=            -14.7260
   XY=             -4.0446   XZ=              0.0000   YZ=             -0.0000

 544327\MP4DQ=-152.6468703\MP4SDQ=-152.6499445\CCSD=-152.64934\CCSD(T)=
 Normal termination of Gaussian 16 at Sun Aug 28 05:13:16 2022.
