 Gaussian 16, Revision A.03,
 Gaussian 16:  ES64L-G16RevA.03 25-Dec-2016

 ------------------
 #p CCSD(T)/cc-pVTZ
 ------------------

 ------------
 H2O_H2O_1292
 ------------
 Symbolic Z-matrix:
 Charge =  0 Multiplicity = 1

                         Standard orientation:
 ---------------------------------------------------------------------
 Center     Atomic      Atomic             Coordinates (Angstroms)
 Number     Number       Type             X           Y           Z
 ---------------------------------------------------------------------
      1          8           0        0.037537    1.620493    0.000000
      2          1           0        0.034460    0.637896    0.000000
      3          1           0       -0.890954    1.942068   -0.000000
      4          8           0        0.037537   -1.441604    0.000000
      5          1           0        0.917440   -1.878956    0.000000
      6          1           0       -0.661537   -2.132113   -0.000000
 ---------------------------------------------------------------------

 SCF Done:  E(RHF) =  -152.114264417     A.U. after   10 cycles
 E2 =    -0.5276052065D+00 EUMP2 =    -0.15264186962330D+03
 CCSD(T)
 CCSD(T)= -0.15266881878D+03

 The electronic state is 1-A'.
 Alpha  occ. eigenvalues --  -20.58271 -20.52448  -1.35613  -1.29971  -0.72925
 Alpha  occ. eigenvalues --   -0.67904  -0.59422  -0.53207  -0.52727  -0.47116
 Alpha virt. eigenvalues --    0.12029   0.18001   0.18809   0.30326   0.49505
 Alpha virt. eigenvalues --    0.54565   0.55898   0.60673   0.68705   0.72000
 Alpha virt. eigenvalues --    0.73521   0.77087   0.81967   0.82789   0.84868

 Mulliken charges:
               1
     1  O   -0.552641
     2  H    0.284667
     3  H    0.246127
     4  O   -0.502586
     5  H    0.266102
     6  H    0.258331
 Sum of Mulliken charges =  -0.00000

 Dipole moment (field-independent basis, Debye):
    X=             -1.2534    Y=             -3.6001    Z=             -0.0000  Tot=              3.8120
 Quadrupole moment (field-independent basis, Debye-Ang):
   XX=             -9.1583   YY=             -8.4730   ZZ=            -14.7344
   XY=             -3.7529   XZ=              0.0000   YZ=             -0.0000

 Normal termination of Gaussian 16 at Fri Aug 26 23:38:56 2022.
