 Gaussian 16, Revision A.03,
 Gaussian 16:  ES64L-G16RevA.03 25-Dec-2016

 ------------------
 #p CCSD(T)/cc-pVTZ
 ------------------

 ------------
 H2O_H2O_2410
 ------------
 Symbolic Z-matrix:
 Charge =  0 Multiplicity = 1

                         Standard orientation:
 ---------------------------------------------------------------------
 Center     Atomic      Atomic             Coordinates (Angstroms)
 Number     Number       Type             X           Y           Z
 ---------------------------------------------------------------------
      1          8           0        0.063250    2.067374   -0.000000
      2          1           0        0.061976    1.084773   -0.000000
      3          1           0       -0.865829    2.387245   -0.000000
      4          8           0        0.063250   -1.891886    0.000000
      5          1           0        0.660409   -2.672212    0.000000
      6          1           0       -0.868563   -2.203703    0.000000
 ---------------------------------------------------------------------

 SCF Done:  E(RHF) =  -152.110717200     A.U. after   10 cycles
 E2 =    -0.5261838281D+00 EUMP2 =    -0.15263690102816D+03
 CCSD(T)
 CCSD(T)= -0.15266400791D+03

 The electronic state is 1-A'.
 Alpha  occ. eigenvalues --  -20.57013 -20.54168  -1.34275  -1.31499  -0.71679
 Alpha  occ. eigenvalues --   -0.68887  -0.57861  -0.54973  -0.51407  -0.48638
 Alpha virt. eigenvalues --    0.12191   0.16415   0.19357   0.24357   0.52710
 Alpha virt. eigenvalues --    0.55732   0.56037   0.58867   0.68914   0.71023
 Alpha virt. eigenvalues --    0.77228   0.78672   0.80226   0.81528   0.83592

 Mulliken charges:
               1
     1  O   -0.521763
     2  H    0.266637
     3  H    0.248602
     4  O   -0.508998
     5  H    0.260275
     6  H    0.255247
 Sum of Mulliken charges =  -0.00000

 Dipole moment (field-independent basis, Debye):
    X=             -2.1467    Y=             -3.2286    Z=              0.0000  Tot=              3.8771
 Quadrupole moment (field-independent basis, Debye-Ang):
   XX=             -9.4624   YY=             -7.7096   ZZ=            -14.7223
   XY=             -3.8047   XZ=              0.0000   YZ=             -0.0000

 Normal termination of Gaussian 16 at Sun Aug 28 07:07:25 2022.
