 Gaussian 16, Revision A.03,
 Gaussian 16:  ES64L-G16RevA.03 25-Dec-2016

 ------------------
 #p CCSD(T)/cc-pVTZ
 ------------------

 -----------
 H2O_H2O_708
 -----------
 Symbolic Z-matrix:
 Charge =  0 Multiplicity = 1

                         Standard orientation:
 ---------------------------------------------------------------------
 Center     Atomic      Atomic             Coordinates (Angstroms)
 Number     Number       Type             X           Y           Z
 ---------------------------------------------------------------------
      1          8           0        0.070253    1.386389   -0.000000
      2          1           0        0.068769    0.403788   -0.000000
      3          1           0       -0.858758    1.706458   -0.000000
      4          8           0        0.070253   -1.216234    0.000000
      5          1           0        0.560269   -2.067933    0.000000
      6          1           0       -0.894329   -1.403551    0.000000
 ---------------------------------------------------------------------

 SCF Done:  E(RHF) =  -152.106692261     A.U. after   10 cycles
 E2 =    -0.5305957485D+00 EUMP2 =    -0.15263728800904D+03
 CCSD(T)
 CCSD(T)= -0.15266393462D+03

 The electronic state is 1-A'.
 Alpha  occ. eigenvalues --  -20.59541 -20.50751  -1.37501  -1.28724  -0.74932
 Alpha  occ. eigenvalues --   -0.68982  -0.59435  -0.54331  -0.51408  -0.45748
 Alpha virt. eigenvalues --    0.11410   0.17095   0.19911   0.32779   0.48109
 Alpha virt. eigenvalues --    0.53893   0.59581   0.61451   0.70397   0.72255
 Alpha virt. eigenvalues --    0.73775   0.77610   0.80633   0.83387   0.84135

 Mulliken charges:
               1
     1  O   -0.579381
     2  H    0.303607
     3  H    0.227066
     4  O   -0.443073
     5  H    0.246233
     6  H    0.245549
 Sum of Mulliken charges =  -0.00000

 Dipole moment (field-independent basis, Debye):
    X=             -2.2758    Y=             -3.8264    Z=              0.0000  Tot=              4.4520
 Quadrupole moment (field-independent basis, Debye-Ang):
   XX=             -9.7027   YY=             -9.0994   ZZ=            -14.6907
   XY=             -2.9345   XZ=              0.0000   YZ=             -0.0000

 Normal termination of Gaussian 16 at Fri Aug 26 19:59:20 2022.
