 Gaussian 16, Revision A.03,
 Gaussian 16:  ES64L-G16RevA.03 25-Dec-2016

 ------------------
 #p CCSD(T)/cc-pVTZ
 ------------------

 -----------
 H2O_H2O_487
 -----------
 Symbolic Z-matrix:
 Charge =  0 Multiplicity = 1

                         Standard orientation:
 ---------------------------------------------------------------------
 Center     Atomic      Atomic             Coordinates (Angstroms)
 Number     Number       Type             X           Y           Z
 ---------------------------------------------------------------------
      1          8           0        0.056099    1.301326    0.000000
      2          1           0        0.053511    0.318728    0.000000
      3          1           0       -0.872551    1.622440    0.000000
      4          8           0        0.056099   -1.122555    0.000000
      5          1           0        0.749071   -1.819188    0.000000
      6          1           0       -0.827618   -1.552149    0.000000
 ---------------------------------------------------------------------

 SCF Done:  E(RHF) =  -152.098818436     A.U. after   11 cycles
 E2 =    -0.5319672006D+00 EUMP2 =    -0.15263078563697D+03
 CCSD(T)
 CCSD(T)= -0.15265712869D+03

 The electronic state is 1-A'.
 Alpha  occ. eigenvalues --  -20.60298 -20.48722  -1.38845  -1.27240  -0.75520
 Alpha  occ. eigenvalues --   -0.71398  -0.58320  -0.55431  -0.49299  -0.44164
 Alpha virt. eigenvalues --    0.11183   0.17301   0.20027   0.33406   0.47664
 Alpha virt. eigenvalues --    0.53486   0.61635   0.62538   0.71114   0.72225
 Alpha virt. eigenvalues --    0.74186   0.78787   0.80811   0.82787   0.84071

 Mulliken charges:
               1
     1  O   -0.612352
     2  H    0.312610
     3  H    0.222697
     4  O   -0.426930
     5  H    0.255237
     6  H    0.248738
 Sum of Mulliken charges =  -0.00000

 Dipole moment (field-independent basis, Debye):
    X=             -1.7856    Y=             -4.2944    Z=              0.0000  Tot=              4.6508
 Quadrupole moment (field-independent basis, Debye-Ang):
   XX=             -9.2745   YY=             -9.4468   ZZ=            -14.6683
   XY=             -2.9809   XZ=              0.0000   YZ=              0.0000

 Normal termination of Gaussian 16 at Fri Aug 26 18:35:48 2022.
