 Gaussian 16, Revision A.03,
 Gaussian 16:  ES64L-G16RevA.03 25-Dec-2016

 ------------------
 #p CCSD(T)/cc-pVTZ
 ------------------

 ------------
 H2O_H2O_1382
 ------------
 Symbolic Z-matrix:
 Charge =  0 Multiplicity = 1

                         Standard orientation:
 ---------------------------------------------------------------------
 Center     Atomic      Atomic             Coordinates (Angstroms)
 Number     Number       Type             X           Y           Z
 ---------------------------------------------------------------------
      1          8           0        0.073563    1.653857   -0.000000
      2          1           0        0.072514    0.671256   -0.000000
      3          1           0       -0.855589    1.973515   -0.000000
      4          8           0        0.073563   -1.486963    0.000000
      5          1           0        0.507215   -2.368696    0.000000
      6          1           0       -0.901150   -1.611224    0.000000
 ---------------------------------------------------------------------

 SCF Done:  E(RHF) =  -152.112322450     A.U. after   10 cycles
 E2 =    -0.5275841614D+00 EUMP2 =    -0.15263990661193D+03
 CCSD(T)
 CCSD(T)= -0.15266690634D+03

 The electronic state is 1-A'.
 Alpha  occ. eigenvalues --  -20.58101 -20.53184  -1.35441  -1.30628  -0.72902
 Alpha  occ. eigenvalues --   -0.68235  -0.59123  -0.53932  -0.52534  -0.47752
 Alpha virt. eigenvalues --    0.11788   0.16985   0.19535   0.29219   0.49204
 Alpha virt. eigenvalues --    0.55023   0.57409   0.58714   0.69698   0.73768
 Alpha virt. eigenvalues --    0.74004   0.76645   0.81445   0.82586   0.84205

 Mulliken charges:
               1
     1  O   -0.537178
     2  H    0.279838
     3  H    0.240138
     4  O   -0.490728
     5  H    0.255316
     6  H    0.252615
 Sum of Mulliken charges =  -0.00000

 Dipole moment (field-independent basis, Debye):
    X=             -2.4543    Y=             -3.3097    Z=              0.0000  Tot=              4.1203
 Quadrupole moment (field-independent basis, Debye-Ang):
   XX=             -9.8420   YY=             -8.5148   ZZ=            -14.7260
   XY=             -3.0949   XZ=              0.0000   YZ=             -0.0000

 Normal termination of Gaussian 16 at Sat Aug 27 00:14:41 2022.
