 Gaussian 16, Revision A.03,
 Gaussian 16:  ES64L-G16RevA.03 25-Dec-2016

 ------------------
 #p CCSD(T)/cc-pVTZ
 ------------------

 ------------
 H2O_H2O_3620
 ------------
 Symbolic Z-matrix:
 Charge =  0 Multiplicity = 1

                         Standard orientation:
 ---------------------------------------------------------------------
 Center     Atomic      Atomic             Coordinates (Angstroms)
 Number     Number       Type             X           Y           Z
 ---------------------------------------------------------------------
      1          8           0        0.026639    2.544807   -0.000000
      2          1           0        0.024351    1.562208   -0.000000
      3          1           0       -0.902109    2.865638   -0.000000
      4          8           0        0.026639   -2.371571    0.000000
      5          1           0        0.975165   -2.628098    0.000000
      6          1           0       -0.523637   -3.185636    0.000000
 ---------------------------------------------------------------------

 SCF Done:  E(RHF) =  -152.109130107     A.U. after   10 cycles
 E2 =    -0.5258338399D+00 EUMP2 =    -0.15263496394710D+03
 CCSD(T)
 CCSD(T)= -0.15266213601D+03

 The electronic state is 1-A'.
 Alpha  occ. eigenvalues --  -20.56392 -20.54752  -1.33687  -1.32066  -0.71090
 Alpha  occ. eigenvalues --   -0.69469  -0.57205  -0.55550  -0.50811  -0.49196
 Alpha virt. eigenvalues --    0.12760   0.15450   0.19457   0.21822   0.53346
 Alpha virt. eigenvalues --    0.55187   0.56550   0.57937   0.66867   0.69257
 Alpha virt. eigenvalues --    0.78089   0.78849   0.79645   0.80141   0.82960

 Mulliken charges:
               1
     1  O   -0.516938
     2  H    0.261990
     3  H    0.253969
     4  O   -0.516172
     5  H    0.258726
     6  H    0.258425
 Sum of Mulliken charges =  -0.00000

 Dipole moment (field-independent basis, Debye):
    X=             -0.9122    Y=             -3.0748    Z=              0.0000  Tot=              3.2072
 Quadrupole moment (field-independent basis, Debye-Ang):
   XX=             -9.2884   YY=             -7.1037   ZZ=            -14.7173
   XY=             -6.0918   XZ=              0.0000   YZ=             -0.0000

 Normal termination of Gaussian 16 at Fri Aug 26 22:43:24 2022.
