 Gaussian 16, Revision A.03,
 Gaussian 16:  ES64L-G16RevA.03 25-Dec-2016

 ------------------
 #p CCSD(T)/cc-pVTZ
 ------------------

 -----------
 H2O_H2O_605
 -----------
 Symbolic Z-matrix:
 Charge =  0 Multiplicity = 1

                         Standard orientation:
 ---------------------------------------------------------------------
 Center     Atomic      Atomic             Coordinates (Angstroms)
 Number     Number       Type             X           Y           Z
 ---------------------------------------------------------------------
      1          8           0        0.079883   -1.340438    0.000000
      2          1           0        0.079002   -0.357837    0.000000
      3          1           0       -0.849323   -1.659938    0.000000
      4          8           0        0.079883    1.181440    0.000000
      5          1           0        0.394896    2.112179    0.000000
      6          1           0       -0.902710    1.177579    0.000000
 ---------------------------------------------------------------------

 SCF Done:  E(RHF) =  -152.100758412     A.U. after   11 cycles
 E2 =    -0.5317438692D+00 EUMP2 =    -0.15263250228102D+03
 CCSD(T)
 CCSD(T)= -0.15265907299D+03

 The electronic state is 1-A'.
 Alpha  occ. eigenvalues --  -20.59788 -20.50754  -1.38090  -1.28809  -0.76116
 Alpha  occ. eigenvalues --   -0.68909  -0.59330  -0.54715  -0.51425  -0.45798
 Alpha virt. eigenvalues --    0.11266   0.16707   0.20373   0.32692   0.48366
 Alpha virt. eigenvalues --    0.53156   0.59107   0.63183   0.70737   0.71964
 Alpha virt. eigenvalues --    0.74077   0.78220   0.79239   0.83712   0.83748

 Mulliken charges:
               1
     1  O   -0.576478
     2  H    0.296885
     3  H    0.221212
     4  O   -0.414061
     5  H    0.235250
     6  H    0.237192
 Sum of Mulliken charges =  -0.00000

 Dipole moment (field-independent basis, Debye):
    X=             -2.5721    Y=              3.6903    Z=              0.0000  Tot=              4.4982
 Quadrupole moment (field-independent basis, Debye-Ang):
   XX=            -10.1277   YY=             -9.2259   ZZ=            -14.6664
   XY=              2.6543   XZ=              0.0000   YZ=              0.0000

 Normal termination of Gaussian 16 at Fri Aug 26 19:21:06 2022.
