 Gaussian 16, Revision A.03,
 Gaussian 16:  ES64L-G16RevA.03 25-Dec-2016

 ------------------
 #p CCSD(T)/cc-pVTZ
 ------------------

 ------------
 H2O_H2O_1173
 ------------
 Symbolic Z-matrix:
 Charge =  0 Multiplicity = 1

                         Standard orientation:
 ---------------------------------------------------------------------
 Center     Atomic      Atomic             Coordinates (Angstroms)
 Number     Number       Type             X           Y           Z
 ---------------------------------------------------------------------
      1          8           0       -0.016752    1.562192    0.000000
      2          1           0       -0.012378    0.579600    0.000000
      3          1           0        0.911313    1.884993    0.000000
      4          8           0       -0.016752   -1.398854    0.000000
      5          1           0       -0.996955   -1.467483    0.000000
      6          1           0        0.366056   -2.303820    0.000000
 ---------------------------------------------------------------------

 SCF Done:  E(RHF) =  -152.113055611     A.U. after   10 cycles
 E2 =    -0.5279874875D+00 EUMP2 =    -0.15264104309865D+03
 CCSD(T)
 CCSD(T)= -0.15266797489D+03

 The electronic state is 1-A'.
 Alpha  occ. eigenvalues --  -20.58393 -20.52547  -1.35844  -1.30107  -0.73398
 Alpha  occ. eigenvalues --   -0.67950  -0.59621  -0.53260  -0.52907  -0.47245
 Alpha virt. eigenvalues --    0.12066   0.17969   0.19005   0.30977   0.49564
 Alpha virt. eigenvalues --    0.54646   0.55670   0.62324   0.68565   0.72980
 Alpha virt. eigenvalues --    0.74115   0.76677   0.81825   0.82247   0.84304

 Mulliken charges:
               1
     1  O   -0.559683
     2  H    0.283823
     3  H    0.251439
     4  O   -0.482141
     5  H    0.262521
     6  H    0.244041
 Sum of Mulliken charges =  -0.00000

 Dipole moment (field-independent basis, Debye):
    X=              0.5693    Y=             -3.3485    Z=              0.0000  Tot=              3.3966
 Quadrupole moment (field-independent basis, Debye-Ang):
   XX=             -9.5372   YY=             -8.7170   ZZ=            -14.7241
   XY=              4.0827   XZ=              0.0000   YZ=              0.0000

 Normal termination of Gaussian 16 at Fri Aug 26 22:54:06 2022.
