 Gaussian 16, Revision A.03,
 Gaussian 16:  ES64L-G16RevA.03 25-Dec-2016

 ------------------
 #p CCSD(T)/cc-pVTZ
 ------------------

 -----------
 H2O_H2O_175
 -----------
 Symbolic Z-matrix:
 Charge =  0 Multiplicity = 1

                         Standard orientation:
 ---------------------------------------------------------------------
 Center     Atomic      Atomic             Coordinates (Angstroms)
 Number     Number       Type             X           Y           Z
 ---------------------------------------------------------------------
      1          8           0        0.092949   -1.156675    0.000000
      2          1           0        0.092949   -0.174074    0.000000
      3          1           0       -0.836544   -1.475342    0.000000
      4          8           0        0.092949    1.023888    0.000000
      5          1           0        0.092950    2.006490    0.000000
      6          1           0       -0.836544    0.705222    0.000000
 ---------------------------------------------------------------------

 SCF Done:  E(RHF) =  -152.045389641     A.U. after   11 cycles
 E2 =    -0.5380885095D+00 EUMP2 =    -0.15258347815058D+03
 CCSD(T)
 CCSD(T)= -0.15260930355D+03

 The electronic state is 1-A'.
 Alpha  occ. eigenvalues --  -20.61118 -20.48709  -1.42782  -1.27660  -0.82716
 Alpha  occ. eigenvalues --   -0.69303  -0.57748  -0.57248  -0.49458  -0.44523
 Alpha virt. eigenvalues --    0.10903   0.15988   0.21768   0.31778   0.49049
 Alpha virt. eigenvalues --    0.50757   0.59583   0.67553   0.71167   0.72685
 Alpha virt. eigenvalues --    0.75174   0.77591   0.79422   0.83600   0.85197

 Mulliken charges:
               1
     1  O   -0.583371
     2  H    0.261462
     3  H    0.192045
     4  O   -0.331885
     5  H    0.226368
     6  H    0.235381
 Sum of Mulliken charges =  -0.00000

 Dipole moment (field-independent basis, Debye):
    X=             -2.9189    Y=              3.7282    Z=              0.0000  Tot=              4.7349
 Quadrupole moment (field-independent basis, Debye-Ang):
   XX=            -10.8125   YY=             -9.8748   ZZ=            -14.5375
   XY=              1.9212   XZ=              0.0000   YZ=              0.0000

 Normal termination of Gaussian 16 at Fri Aug 26 16:23:05 2022.
