 Gaussian 16, Revision A.03,
 Gaussian 16:  ES64L-G16RevA.03 25-Dec-2016

 ------------------
 #p CCSD(T)/cc-pVTZ
 ------------------

 -----------
 H2O_H2O_201
 -----------
 Symbolic Z-matrix:
 Charge =  0 Multiplicity = 1

                         Standard orientation:
 ---------------------------------------------------------------------
 Center     Atomic      Atomic             Coordinates (Angstroms)
 Number     Number       Type             X           Y           Z
 ---------------------------------------------------------------------
      1          8           0        0.090691   -1.169855    0.000000
      2          1           0        0.090516   -0.187254    0.000000
      3          1           0       -0.838745   -1.488687    0.000000
      4          8           0        0.090691    1.031163    0.000000
      5          1           0        0.154782    2.011672    0.000000
      6          1           0       -0.857608    0.773803    0.000000
 ---------------------------------------------------------------------

 SCF Done:  E(RHF) =  -152.053908425     A.U. after   11 cycles
 E2 =    -0.5373099642D+00 EUMP2 =    -0.15259121838887D+03
 CCSD(T)
 CCSD(T)= -0.15261711173D+03

 The electronic state is 1-A'.
 Alpha  occ. eigenvalues --  -20.61088 -20.48642  -1.42239  -1.27554  -0.81908
 Alpha  occ. eigenvalues --   -0.69664  -0.57691  -0.57079  -0.49375  -0.44408
 Alpha virt. eigenvalues --    0.10872   0.16031   0.21588   0.31960   0.49233
 Alpha virt. eigenvalues --    0.50940   0.59657   0.66817   0.71310   0.72762
 Alpha virt. eigenvalues --    0.75511   0.77341   0.79502   0.83582   0.85461

 Mulliken charges:
               1
     1  O   -0.588187
     2  H    0.266259
     3  H    0.195297
     4  O   -0.334396
     5  H    0.226554
     6  H    0.234474
 Sum of Mulliken charges =  -0.00000

 Dipole moment (field-independent basis, Debye):
    X=             -2.8453    Y=              3.8167    Z=              0.0000  Tot=              4.7606
 Quadrupole moment (field-independent basis, Debye-Ang):
   XX=            -10.6791   YY=             -9.7996   ZZ=            -14.5529
   XY=              2.0661   XZ=              0.0000   YZ=              0.0000

 Normal termination of Gaussian 16 at Fri Aug 26 16:33:49 2022.
