 Gaussian 16, Revision A.03,
 Gaussian 16:  ES64L-G16RevA.03 25-Dec-2016

 ------------------
 #p CCSD(T)/cc-pVTZ
 ------------------

 ------------
 H2O_H2O_3985
 ------------
 Symbolic Z-matrix:
 Charge =  0 Multiplicity = 1

                         Standard orientation:
 ---------------------------------------------------------------------
 Center     Atomic      Atomic             Coordinates (Angstroms)
 Number     Number       Type             X           Y           Z
 ---------------------------------------------------------------------
      1          8           0        0.063223    2.695625   -0.000000
      2          1           0        0.062256    1.713024   -0.000000
      3          1           0       -0.865956    3.015206   -0.000000
      4          8           0        0.063223   -2.520098    0.000000
      5          1           0        0.660626   -3.300237    0.000000
      6          1           0       -0.868494   -2.832206    0.000000
 ---------------------------------------------------------------------

 SCF Done:  E(RHF) =  -152.108557491     A.U. after   10 cycles
 E2 =    -0.5258394573D+00 EUMP2 =    -0.15263439694881D+03
 CCSD(T)
 CCSD(T)= -0.15266158587D+03

 The electronic state is 1-A'.
 Alpha  occ. eigenvalues --  -20.56301 -20.54868  -1.33599  -1.32177  -0.71006
 Alpha  occ. eigenvalues --   -0.69573  -0.57096  -0.55648  -0.50718  -0.49300
 Alpha virt. eigenvalues --    0.12992   0.15163   0.19567   0.21340   0.53452
 Alpha virt. eigenvalues --    0.54948   0.56556   0.57851   0.66687   0.69069
 Alpha virt. eigenvalues --    0.78177   0.79156   0.79552   0.80085   0.82826

 Mulliken charges:
               1
     1  O   -0.513946
     2  H    0.261275
     3  H    0.252219
     4  O   -0.514579
     5  H    0.259310
     6  H    0.255721
 Sum of Mulliken charges =  -0.00000

 Dipole moment (field-independent basis, Debye):
    X=             -2.1646    Y=             -3.0988    Z=              0.0000  Tot=              3.7800
 Quadrupole moment (field-independent basis, Debye-Ang):
   XX=             -9.4546   YY=             -6.7992   ZZ=            -14.7153
   XY=             -4.4548   XZ=              0.0000   YZ=             -0.0000

 Normal termination of Gaussian 16 at Sat Aug 27 00:50:27 2022.
