 Gaussian 16, Revision A.03,
 Gaussian 16:  ES64L-G16RevA.03 25-Dec-2016

 ------------------
 #p CCSD(T)/cc-pVTZ
 ------------------

 ------------
 H2O_H2O_3897
 ------------
 Symbolic Z-matrix:
 Charge =  0 Multiplicity = 1

                         Standard orientation:
 ---------------------------------------------------------------------
 Center     Atomic      Atomic             Coordinates (Angstroms)
 Number     Number       Type             X           Y           Z
 ---------------------------------------------------------------------
      1          8           0       -0.019834    2.651175    0.000000
      2          1           0       -0.017418    1.668577    0.000000
      3          1           0        0.908873    2.972126    0.000000
      4          8           0       -0.019834   -2.484059    0.000000
      5          1           0       -0.993711   -2.614709    0.000000
      6          1           0        0.419592   -3.362928    0.000000
 ---------------------------------------------------------------------

 SCF Done:  E(RHF) =  -152.108834510     A.U. after   10 cycles
 E2 =    -0.5258142991D+00 EUMP2 =    -0.15263464880941D+03
 CCSD(T)
 CCSD(T)= -0.15266183226D+03

 The electronic state is 1-A'.
 Alpha  occ. eigenvalues --  -20.56309 -20.54893  -1.33609  -1.32204  -0.71014
 Alpha  occ. eigenvalues --   -0.69610  -0.57116  -0.55684  -0.50730  -0.49332
 Alpha virt. eigenvalues --    0.12859   0.15248   0.19378   0.21675   0.53287
 Alpha virt. eigenvalues --    0.55133   0.56601   0.57859   0.66695   0.69075
 Alpha virt. eigenvalues --    0.78164   0.78979   0.79516   0.80520   0.82817

 Mulliken charges:
               1
     1  O   -0.515928
     2  H    0.260845
     3  H    0.254570
     4  O   -0.515974
     5  H    0.257926
     6  H    0.258560
 Sum of Mulliken charges =  -0.00000

 Dipole moment (field-independent basis, Debye):
    X=              0.6807    Y=             -2.9520    Z=              0.0000  Tot=              3.0295
 Quadrupole moment (field-independent basis, Debye-Ang):
   XX=             -9.4468   YY=             -7.2648   ZZ=            -14.7162
   XY=              6.7467   XZ=              0.0000   YZ=              0.0000

 CCSD(T)=-152.6618323\RMSD=7.068e-09\PG=CS [SG(H4O2)]\\@
 Normal termination of Gaussian 16 at Sat Aug 27 00:20:39 2022.
