 Gaussian 16, Revision A.03,
 Gaussian 16:  ES64L-G16RevA.03 25-Dec-2016

 ------------------
 #p CCSD(T)/cc-pVTZ
 ------------------

 ------------
 H2O_H2O_1647
 ------------
 Symbolic Z-matrix:
 Charge =  0 Multiplicity = 1

                         Standard orientation:
 ---------------------------------------------------------------------
 Center     Atomic      Atomic             Coordinates (Angstroms)
 Number     Number       Type             X           Y           Z
 ---------------------------------------------------------------------
      1          8           0       -0.019944    1.753679    0.000000
      2          1           0       -0.016230    0.771085    0.000000
      3          1           0        0.908338    2.075856    0.000000
      4          8           0       -0.019944   -1.586615    0.000000
      5          1           0       -0.993648   -1.718551    0.000000
      6          1           0        0.420643   -2.464903    0.000000
 ---------------------------------------------------------------------

 SCF Done:  E(RHF) =  -152.113094779     A.U. after   10 cycles
 E2 =    -0.5268220076D+00 EUMP2 =    -0.15263991678669D+03
 CCSD(T)
 CCSD(T)= -0.15266694732D+03

 The electronic state is 1-A'.
 Alpha  occ. eigenvalues --  -20.57695 -20.53444  -1.34988  -1.30848  -0.72419
 Alpha  occ. eigenvalues --   -0.68350  -0.58766  -0.54240  -0.52113  -0.48004
 Alpha virt. eigenvalues --    0.12179   0.17395   0.19120   0.28095   0.51298
 Alpha virt. eigenvalues --    0.54309   0.55893   0.60007   0.68932   0.73551
 Alpha virt. eigenvalues --    0.74831   0.77515   0.81088   0.83068   0.84313

 Mulliken charges:
               1
     1  O   -0.539289
     2  H    0.272181
     3  H    0.252568
     4  O   -0.505267
     5  H    0.263117
     6  H    0.256690
 Sum of Mulliken charges =  -0.00000

 Dipole moment (field-independent basis, Debye):
    X=              0.6785    Y=             -3.2277    Z=              0.0000  Tot=              3.2983
 Quadrupole moment (field-independent basis, Debye-Ang):
   XX=             -9.4478   YY=             -8.3507   ZZ=            -14.7312
   XY=              4.4782   XZ=              0.0000   YZ=              0.0000

 Normal termination of Gaussian 16 at Sun Aug 28 00:19:08 2022.
