 Gaussian 16, Revision A.03,
 Gaussian 16:  ES64L-G16RevA.03 25-Dec-2016

 ------------------
 #p CCSD(T)/cc-pVTZ
 ------------------

 ------------
 H2O_H2O_4315
 ------------
 Symbolic Z-matrix:
 Charge =  0 Multiplicity = 1

                         Standard orientation:
 ---------------------------------------------------------------------
 Center     Atomic      Atomic             Coordinates (Angstroms)
 Number     Number       Type             X           Y           Z
 ---------------------------------------------------------------------
      1          8           0        0.044830    2.827924    0.000000
      2          1           0        0.043338    1.845324    0.000000
      3          1           0       -0.884179    3.148001    0.000000
      4          8           0        0.044830   -2.647496   -0.000000
      5          1           0        0.861003   -3.194640   -0.000000
      6          1           0       -0.737435   -3.242113   -0.000000
 ---------------------------------------------------------------------

 SCF Done:  E(RHF) =  -152.108544278     A.U. after   10 cycles
 E2 =    -0.5258089997D+00 EUMP2 =    -0.15263435327728D+03
 CCSD(T)
 CCSD(T)= -0.15266154634D+03

 The electronic state is 1-A'.
 Alpha  occ. eigenvalues --  -20.56220 -20.54895  -1.33520  -1.32204  -0.70924
 Alpha  occ. eigenvalues --   -0.69605  -0.57019  -0.55677  -0.50640  -0.49329
 Alpha virt. eigenvalues --    0.13275   0.15028   0.19682   0.21132   0.53627
 Alpha virt. eigenvalues --    0.54871   0.56640   0.57810   0.66744   0.68889
 Alpha virt. eigenvalues --    0.78249   0.79524   0.79645   0.79903   0.82779

 Mulliken charges:
               1
     1  O   -0.514428
     2  H    0.260918
     3  H    0.253294
     4  O   -0.515108
     5  H    0.258502
     6  H    0.256823
 Sum of Mulliken charges =  -0.00000

 Dipole moment (field-independent basis, Debye):
    X=             -1.5367    Y=             -3.1730    Z=             -0.0000  Tot=              3.5255
 Quadrupole moment (field-independent basis, Debye-Ang):
   XX=             -9.1568   YY=             -6.3358   ZZ=            -14.7153
   XY=             -5.6649   XZ=             -0.0000   YZ=              0.0000

 Normal termination of Gaussian 16 at Sun Aug 28 01:48:50 2022.
