 Gaussian 16, Revision A.03,
 Gaussian 16:  ES64L-G16RevA.03 25-Dec-2016

 ------------------
 #p CCSD(T)/cc-pVTZ
 ------------------

 ------------
 H2O_H2O_4967
 ------------
 Symbolic Z-matrix:
 Charge =  0 Multiplicity = 1

                         Standard orientation:
 ---------------------------------------------------------------------
 Center     Atomic      Atomic             Coordinates (Angstroms)
 Number     Number       Type             X           Y           Z
 ---------------------------------------------------------------------
      1          8           0        0.037400    3.086420   -0.000000
      2          1           0        0.035828    2.103820   -0.000000
      3          1           0       -0.891582    3.406573   -0.000000
      4          8           0        0.037400   -2.907417    0.000000
      5          1           0        0.917972   -3.343421    0.000000
      6          1           0       -0.660616   -3.598996    0.000000
 ---------------------------------------------------------------------

 SCF Done:  E(RHF) =  -152.108268630     A.U. after   10 cycles
 E2 =    -0.5258033607D+00 EUMP2 =    -0.15263407199110D+03
 CCSD(T)
 CCSD(T)= -0.15266127431D+03

 The electronic state is 1-A'.
 Alpha  occ. eigenvalues --  -20.56110 -20.55039  -1.33412  -1.32345  -0.70817
 Alpha  occ. eigenvalues --   -0.69749  -0.56899  -0.55814  -0.50530  -0.49467
 Alpha virt. eigenvalues --    0.13545   0.14765   0.19744   0.20890   0.53727
 Alpha virt. eigenvalues --    0.54797   0.56727   0.57761   0.67074   0.68491
 Alpha virt. eigenvalues --    0.78352   0.79393   0.79756   0.80542   0.82173

 Mulliken charges:
               1
     1  O   -0.513379
     2  H    0.259447
     3  H    0.253900
     4  O   -0.513943
     5  H    0.257417
     6  H    0.256559
 Sum of Mulliken charges =  -0.00000

 Dipole moment (field-independent basis, Debye):
    X=             -1.2843    Y=             -3.1312    Z=              0.0000  Tot=              3.3843
 Quadrupole moment (field-independent basis, Debye-Ang):
   XX=             -9.1599   YY=             -5.9969   ZZ=            -14.7144
   XY=             -6.5843   XZ=              0.0000   YZ=             -0.0000

 Normal termination of Gaussian 16 at Sun Aug 28 07:17:31 2022.
