 Gaussian 16, Revision A.03,
 Gaussian 16:  ES64L-G16RevA.03 25-Dec-2016

 ------------------
 #p CCSD(T)/cc-pVTZ
 ------------------

 ------------
 H2O_H2O_3833
 ------------
 Symbolic Z-matrix:
 Charge =  0 Multiplicity = 1

                         Standard orientation:
 ---------------------------------------------------------------------
 Center     Atomic      Atomic             Coordinates (Angstroms)
 Number     Number       Type             X           Y           Z
 ---------------------------------------------------------------------
      1          8           0        0.070190    2.632931   -0.000000
      2          1           0        0.069432    1.650330   -0.000000
      3          1           0       -0.859057    2.952315    0.000000
      4          8           0        0.070190   -2.462673   -0.000000
      5          1           0        0.560835   -3.314009   -0.000000
      6          1           0       -0.894254   -2.650702    0.000000
 ---------------------------------------------------------------------

 SCF Done:  E(RHF) =  -152.108526760     A.U. after   10 cycles
 E2 =    -0.5258605986D+00 EUMP2 =    -0.15263438735892D+03
 CCSD(T)
 CCSD(T)= -0.15266157483D+03

 The electronic state is 1-A'.
 Alpha  occ. eigenvalues --  -20.56345 -20.54884  -1.33642  -1.32193  -0.71050
 Alpha  occ. eigenvalues --   -0.69587  -0.57135  -0.55662  -0.50760  -0.49315
 Alpha virt. eigenvalues --    0.12795   0.15226   0.19470   0.21512   0.53341
 Alpha virt. eigenvalues --    0.55012   0.56511   0.57910   0.66720   0.69115
 Alpha virt. eigenvalues --    0.78139   0.78934   0.79537   0.80311   0.82807

 Mulliken charges:
               1
     1  O   -0.513508
     2  H    0.261162
     3  H    0.251754
     4  O   -0.514016
     5  H    0.259544
     6  H    0.255064
 Sum of Mulliken charges =  -0.00000

 Dipole moment (field-independent basis, Debye):
    X=             -2.4017    Y=             -3.0118    Z=              0.0000  Tot=              3.8522
 Quadrupole moment (field-independent basis, Debye-Ang):
   XX=             -9.6809   YY=             -7.1489   ZZ=            -14.7152
   XY=             -3.9843   XZ=             -0.0000   YZ=              0.0000

 Normal termination of Gaussian 16 at Fri Aug 26 23:56:47 2022.
