 Gaussian 16, Revision A.03,
 Gaussian 16:  ES64L-G16RevA.03 25-Dec-2016

 ------------------
 #p CCSD(T)/cc-pVTZ
 ------------------

 ------------
 H2O_H2O_4506
 ------------
 Symbolic Z-matrix:
 Charge =  0 Multiplicity = 1

                         Standard orientation:
 ---------------------------------------------------------------------
 Center     Atomic      Atomic             Coordinates (Angstroms)
 Number     Number       Type             X           Y           Z
 ---------------------------------------------------------------------
      1          8           0        0.076748    2.898353   -0.000000
      2          1           0        0.076260    1.915752   -0.000000
      3          1           0       -0.852586    3.217481   -0.000000
      4          8           0        0.076748   -2.735126    0.000000
      5          1           0        0.452322   -3.643119    0.000000
      6          1           0       -0.903970   -2.795931    0.000000
 ---------------------------------------------------------------------

 SCF Done:  E(RHF) =  -152.108053231     A.U. after   10 cycles
 E2 =    -0.5258411666D+00 EUMP2 =    -0.15263389439748D+03
 CCSD(T)
 CCSD(T)= -0.15266109920D+03

 The electronic state is 1-A'.
 Alpha  occ. eigenvalues --  -20.56196 -20.55098  -1.33498  -1.32402  -0.70908
 Alpha  occ. eigenvalues --   -0.69800  -0.56975  -0.55864  -0.50613  -0.49520
 Alpha virt. eigenvalues --    0.13174   0.14825   0.19439   0.21151   0.53447
 Alpha virt. eigenvalues --    0.54865   0.56611   0.57749   0.66877   0.68638
 Alpha virt. eigenvalues --    0.78276   0.79343   0.79487   0.80703   0.82377

 Mulliken charges:
               1
     1  O   -0.511746
     2  H    0.259286
     3  H    0.252358
     4  O   -0.512730
     5  H    0.258494
     6  H    0.254338
 Sum of Mulliken charges =   0.00000

 Dipole moment (field-independent basis, Debye):
    X=             -2.6318    Y=             -2.8648    Z=              0.0000  Tot=              3.8902
 Quadrupole moment (field-independent basis, Debye-Ang):
   XX=             -9.9480   YY=             -7.2424   ZZ=            -14.7135
   XY=             -3.7078   XZ=              0.0000   YZ=             -0.0000

 05626\MP4DQ=-152.6430146\MP4SDQ=-152.646065\CCSD=-152.6454794\CCSD(T)=
 Normal termination of Gaussian 16 at Sun Aug 28 03:25:44 2022.
