 Gaussian 16, Revision A.03,
 Gaussian 16:  ES64L-G16RevA.03 25-Dec-2016

 ------------------
 #p CCSD(T)/cc-pVTZ
 ------------------

 -----------
 H2O_H2O_262
 -----------
 Symbolic Z-matrix:
 Charge =  0 Multiplicity = 1

                         Standard orientation:
 ---------------------------------------------------------------------
 Center     Atomic      Atomic             Coordinates (Angstroms)
 Number     Number       Type             X           Y           Z
 ---------------------------------------------------------------------
      1          8           0        0.056118    1.211568   -0.000000
      2          1           0        0.053323    0.228970   -0.000000
      3          1           0       -0.872465    1.532877   -0.000000
      4          8           0        0.056118   -1.032820    0.000000
      5          1           0        0.748943   -1.729599    0.000000
      6          1           0       -0.827689   -1.462227    0.000000
 ---------------------------------------------------------------------

 SCF Done:  E(RHF) =  -152.077971260     A.U. after   11 cycles
 E2 =    -0.5340431163D+00 EUMP2 =    -0.15261201437604D+03
 CCSD(T)
 CCSD(T)= -0.15263796436D+03

 The electronic state is 1-A'.
 Alpha  occ. eigenvalues --  -20.61190 -20.46605  -1.40952  -1.25891  -0.77104
 Alpha  occ. eigenvalues --   -0.74491  -0.56911  -0.56568  -0.47070  -0.42632
 Alpha virt. eigenvalues --    0.10770   0.16821   0.20645   0.33215   0.47576
 Alpha virt. eigenvalues --    0.52701   0.62467   0.63754   0.71306   0.71767
 Alpha virt. eigenvalues --    0.77976   0.79930   0.80348   0.82520   0.84337

 Mulliken charges:
               1
     1  O   -0.638051
     2  H    0.304603
     3  H    0.211460
     4  O   -0.373558
     5  H    0.250117
     6  H    0.245430
 Sum of Mulliken charges =  -0.00000

 Dipole moment (field-independent basis, Debye):
    X=             -1.7418    Y=             -4.6561    Z=              0.0000  Tot=              4.9713
 Quadrupole moment (field-independent basis, Debye-Ang):
   XX=             -9.2589   YY=             -9.8316   ZZ=            -14.6179
   XY=             -2.8177   XZ=              0.0000   YZ=             -0.0000

 Normal termination of Gaussian 16 at Fri Aug 26 16:59:31 2022.
