 Gaussian 16, Revision A.03,
 Gaussian 16:  ES64L-G16RevA.03 25-Dec-2016

 ------------------
 #p CCSD(T)/cc-pVTZ
 ------------------

 ------------
 H2O_H2O_2241
 ------------
 Symbolic Z-matrix:
 Charge =  0 Multiplicity = 1

                         Standard orientation:
 ---------------------------------------------------------------------
 Center     Atomic      Atomic             Coordinates (Angstroms)
 Number     Number       Type             X           Y           Z
 ---------------------------------------------------------------------
      1          8           0        0.041174    1.999968    0.000000
      2          1           0        0.038871    1.017370    0.000000
      3          1           0       -0.887570    2.320812    0.000000
      4          8           0        0.041174   -1.820074    0.000000
      5          1           0        0.890978   -2.313367    0.000000
      6          1           0       -0.701057   -2.463968    0.000000
 ---------------------------------------------------------------------

 SCF Done:  E(RHF) =  -152.111689667     A.U. after   10 cycles
 E2 =    -0.5262220688D+00 EUMP2 =    -0.15263791173601D+03
 CCSD(T)
 CCSD(T)= -0.15266499619D+03

 The electronic state is 1-A'.
 Alpha  occ. eigenvalues --  -20.57140 -20.53904  -1.34394  -1.31249  -0.71783
 Alpha  occ. eigenvalues --   -0.68658  -0.58039  -0.54727  -0.51534  -0.48398
 Alpha virt. eigenvalues --    0.12294   0.16748   0.19232   0.25182   0.52269
 Alpha virt. eigenvalues --    0.55292   0.56443   0.58928   0.69057   0.71821
 Alpha virt. eigenvalues --    0.76896   0.78150   0.80475   0.82992   0.83580

 Mulliken charges:
               1
     1  O   -0.526871
     2  H    0.267872
     3  H    0.250413
     4  O   -0.509796
     5  H    0.261147
     6  H    0.257235
 Sum of Mulliken charges =  -0.00000

 Dipole moment (field-independent basis, Debye):
    X=             -1.3963    Y=             -3.3396    Z=              0.0000  Tot=              3.6197
 Quadrupole moment (field-independent basis, Debye-Ang):
   XX=             -9.1506   YY=             -7.7039   ZZ=            -14.7261
   XY=             -4.3898   XZ=              0.0000   YZ=              0.0000

 Normal termination of Gaussian 16 at Sun Aug 28 05:40:35 2022.
