 Gaussian 16, Revision A.03,
 Gaussian 16:  ES64L-G16RevA.03 25-Dec-2016

 ------------------
 #p CCSD(T)/cc-pVTZ
 ------------------

 ------------
 H2O_H2O_2840
 ------------
 Symbolic Z-matrix:
 Charge =  0 Multiplicity = 1

                         Standard orientation:
 ---------------------------------------------------------------------
 Center     Atomic      Atomic             Coordinates (Angstroms)
 Number     Number       Type             X           Y           Z
 ---------------------------------------------------------------------
      1          8           0        0.044867    2.239563    0.000000
      2          1           0        0.042968    1.256963    0.000000
      3          1           0       -0.884008    2.560025    0.000000
      4          8           0        0.044867   -2.059172   -0.000000
      5          1           0        0.860814   -2.606653   -0.000000
      6          1           0       -0.737644   -2.653463   -0.000000
 ---------------------------------------------------------------------

 SCF Done:  E(RHF) =  -152.110215198     A.U. after   10 cycles
 E2 =    -0.5259744055D+00 EUMP2 =    -0.15263618960299D+03
 CCSD(T)
 CCSD(T)= -0.15266332019D+03

 The electronic state is 1-A'.
 Alpha  occ. eigenvalues --  -20.56735 -20.54337  -1.34007  -1.31661  -0.71406
 Alpha  occ. eigenvalues --   -0.69055  -0.57567  -0.55150  -0.51139  -0.48800
 Alpha virt. eigenvalues --    0.12454   0.16107   0.19415   0.23094   0.53044
 Alpha virt. eigenvalues --    0.55552   0.56331   0.58751   0.68866   0.69365
 Alpha virt. eigenvalues --    0.77728   0.79082   0.79540   0.80027   0.83374

 Mulliken charges:
               1
     1  O   -0.520540
     2  H    0.265165
     3  H    0.251530
     4  O   -0.513545
     5  H    0.260248
     6  H    0.257141
 Sum of Mulliken charges =  -0.00000

 Dipole moment (field-independent basis, Debye):
    X=             -1.5283    Y=             -3.2661    Z=             -0.0000  Tot=              3.6060
 Quadrupole moment (field-independent basis, Debye-Ang):
   XX=             -9.1573   YY=             -7.2874   ZZ=            -14.7209
   XY=             -4.6848   XZ=             -0.0000   YZ=              0.0000

 Normal termination of Gaussian 16 at Fri Aug 26 17:41:17 2022.
