 Gaussian 16, Revision A.03,
 Gaussian 16:  ES64L-G16RevA.03 25-Dec-2016

 ------------------
 #p CCSD(T)/cc-pVTZ
 ------------------

 ------------
 H2O_H2O_2831
 ------------
 Symbolic Z-matrix:
 Charge =  0 Multiplicity = 1

                         Standard orientation:
 ---------------------------------------------------------------------
 Center     Atomic      Atomic             Coordinates (Angstroms)
 Number     Number       Type             X           Y           Z
 ---------------------------------------------------------------------
      1          8           0        0.076761    2.230222    0.000000
      2          1           0        0.076121    1.247621    0.000000
      3          1           0       -0.852524    2.549494   -0.000000
      4          8           0        0.076761   -2.067019    0.000000
      5          1           0        0.452195   -2.975069    0.000000
      6          1           0       -0.903967   -2.127672   -0.000000
 ---------------------------------------------------------------------

 SCF Done:  E(RHF) =  -152.109318751     A.U. after   10 cycles
 E2 =    -0.5260572588D+00 EUMP2 =    -0.15263537601024D+03
 CCSD(T)
 CCSD(T)= -0.15266252421D+03

 The electronic state is 1-A'.
 Alpha  occ. eigenvalues --  -20.56740 -20.54634  -1.34022  -1.31949  -0.71439
 Alpha  occ. eigenvalues --   -0.69330  -0.57538  -0.55418  -0.51143  -0.49075
 Alpha virt. eigenvalues --    0.12067   0.15895   0.19448   0.23061   0.53803
 Alpha virt. eigenvalues --    0.55210   0.56303   0.58514   0.68543   0.69394
 Alpha virt. eigenvalues --    0.77719   0.78936   0.79779   0.80407   0.83012

 Mulliken charges:
               1
     1  O   -0.515883
     2  H    0.263569
     3  H    0.249188
     4  O   -0.510266
     5  H    0.259814
     6  H    0.253577
 Sum of Mulliken charges =   0.00000

 Dipole moment (field-independent basis, Debye):
    X=             -2.6126    Y=             -2.9505    Z=             -0.0000  Tot=              3.9409
 Quadrupole moment (field-independent basis, Debye-Ang):
   XX=             -9.9587   YY=             -7.9069   ZZ=            -14.7175
   XY=             -3.3275   XZ=              0.0000   YZ=             -0.0000

 Normal termination of Gaussian 16 at Fri Aug 26 17:37:43 2022.
