 Gaussian 16, Revision A.03,
 Gaussian 16:  ES64L-G16RevA.03 25-Dec-2016

 ------------------
 #p CCSD(T)/cc-pVTZ
 ------------------

 ------------
 H2O_H2O_3225
 ------------
 Symbolic Z-matrix:
 Charge =  0 Multiplicity = 1

                         Standard orientation:
 ---------------------------------------------------------------------
 Center     Atomic      Atomic             Coordinates (Angstroms)
 Number     Number       Type             X           Y           Z
 ---------------------------------------------------------------------
      1          8           0        0.092949   -2.373251    0.000000
      2          1           0        0.092949   -1.390649    0.000000
      3          1           0       -0.836544   -2.691917    0.000000
      4          8           0        0.092949    2.240464    0.000000
      5          1           0        0.092949    3.223065    0.000000
      6          1           0       -0.836544    1.921797    0.000000
 ---------------------------------------------------------------------

 SCF Done:  E(RHF) =  -152.107935559     A.U. after   10 cycles
 E2 =    -0.5260226394D+00 EUMP2 =    -0.15263395819857D+03
 CCSD(T)
 CCSD(T)= -0.15266115111D+03

 The electronic state is 1-A'.
 Alpha  occ. eigenvalues --  -20.56557 -20.55198  -1.33853  -1.32499  -0.71284
 Alpha  occ. eigenvalues --   -0.69882  -0.57318  -0.55949  -0.50961  -0.49611
 Alpha virt. eigenvalues --    0.11589   0.15430   0.19194   0.23083   0.53967
 Alpha virt. eigenvalues --    0.54681   0.56456   0.58035   0.67453   0.68846
 Alpha virt. eigenvalues --    0.77942   0.78491   0.79265   0.81207   0.82517

 Mulliken charges:
               1
     1  O   -0.510022
     2  H    0.259228
     3  H    0.249911
     4  O   -0.509003
     5  H    0.259706
     6  H    0.250181
 Sum of Mulliken charges =   0.00000

 Dipole moment (field-independent basis, Debye):
    X=             -3.1697    Y=              2.3696    Z=              0.0000  Tot=              3.9576
 Quadrupole moment (field-independent basis, Debye-Ang):
   XX=            -10.8553   YY=             -9.2303   ZZ=            -14.7124
   XY=              2.1505   XZ=              0.0000   YZ=              0.0000

 Normal termination of Gaussian 16 at Fri Aug 26 20:29:57 2022.
