 Gaussian 16, Revision A.03,
 Gaussian 16:  ES64L-G16RevA.03 25-Dec-2016

 ------------------
 #p CCSD(T)/cc-pVTZ
 ------------------

 ------------
 H2O_H2O_1345
 ------------
 Symbolic Z-matrix:
 Charge =  0 Multiplicity = 1

                         Standard orientation:
 ---------------------------------------------------------------------
 Center     Atomic      Atomic             Coordinates (Angstroms)
 Number     Number       Type             X           Y           Z
 ---------------------------------------------------------------------
      1          8           0        0.026757    1.637329    0.000000
      2          1           0        0.023129    0.654734    0.000000
      3          1           0       -0.901553    1.959425    0.000000
      4          8           0        0.026757   -1.464166    0.000000
      5          1           0        0.974932   -1.721984    0.000000
      6          1           0       -0.524628   -2.277479    0.000000
 ---------------------------------------------------------------------

 SCF Done:  E(RHF) =  -152.113968558     A.U. after   10 cycles
 E2 =    -0.5274433743D+00 EUMP2 =    -0.15264141193275D+03
 CCSD(T)
 CCSD(T)= -0.15266837953D+03

 The electronic state is 1-A'.
 Alpha  occ. eigenvalues --  -20.58149 -20.52714  -1.35491  -1.30209  -0.72877
 Alpha  occ. eigenvalues --   -0.67981  -0.59325  -0.53476  -0.52602  -0.47359
 Alpha virt. eigenvalues --    0.12095   0.17911   0.18879   0.29949   0.49969
 Alpha virt. eigenvalues --    0.54417   0.55844   0.61016   0.68712   0.72963
 Alpha virt. eigenvalues --    0.73664   0.77050   0.81771   0.82743   0.84563

 Mulliken charges:
               1
     1  O   -0.550914
     2  H    0.281105
     3  H    0.249391
     4  O   -0.499618
     5  H    0.264898
     6  H    0.255137
 Sum of Mulliken charges =  -0.00000

 Dipole moment (field-independent basis, Debye):
    X=             -0.8991    Y=             -3.4610    Z=              0.0000  Tot=              3.5759
 Quadrupole moment (field-independent basis, Debye-Ang):
   XX=             -9.2865   YY=             -8.4787   ZZ=            -14.7329
   XY=             -3.9999   XZ=              0.0000   YZ=              0.0000

 Normal termination of Gaussian 16 at Fri Aug 26 23:59:41 2022.
