 Gaussian 16, Revision A.03,
 Gaussian 16:  ES64L-G16RevA.03 25-Dec-2016

 ------------------
 #p CCSD(T)/cc-pVTZ
 ------------------

 ------------
 H2O_H2O_4425
 ------------
 Symbolic Z-matrix:
 Charge =  0 Multiplicity = 1

                         Standard orientation:
 ---------------------------------------------------------------------
 Center     Atomic      Atomic             Coordinates (Angstroms)
 Number     Number       Type             X           Y           Z
 ---------------------------------------------------------------------
      1          8           0        0.092949   -2.851904    0.000000
      2          1           0        0.092949   -1.869302    0.000000
      3          1           0       -0.836544   -3.170570    0.000000
      4          8           0        0.092949    2.719117    0.000000
      5          1           0        0.092949    3.701718    0.000000
      6          1           0       -0.836544    2.400449    0.000000
 ---------------------------------------------------------------------

 SCF Done:  E(RHF) =  -152.107624355     A.U. after   10 cycles
 E2 =    -0.5258816039D+00 EUMP2 =    -0.15263350595842D+03
 CCSD(T)
 CCSD(T)= -0.15266072048D+03

 The electronic state is 1-A'.
 Alpha  occ. eigenvalues --  -20.56226 -20.55346  -1.33527  -1.32647  -0.70943
 Alpha  occ. eigenvalues --   -0.70044  -0.56986  -0.56098  -0.50637  -0.49759
 Alpha virt. eigenvalues --    0.12639   0.14769   0.18848   0.21808   0.53210
 Alpha virt. eigenvalues --    0.54822   0.56537   0.57684   0.66895   0.68467
 Alpha virt. eigenvalues --    0.78255   0.79115   0.79619   0.81435   0.81593

 Mulliken charges:
               1
     1  O   -0.509412
     2  H    0.257267
     3  H    0.252077
     4  O   -0.510440
     5  H    0.258265
     6  H    0.252244
 Sum of Mulliken charges =  -0.00000

 Dipole moment (field-independent basis, Debye):
    X=             -3.1869    Y=              2.3310    Z=              0.0000  Tot=              3.9484
 Quadrupole moment (field-independent basis, Debye-Ang):
   XX=            -10.8455   YY=             -9.2842   ZZ=            -14.7117
   XY=              2.1571   XZ=              0.0000   YZ=              0.0000

 Normal termination of Gaussian 16 at Sun Aug 28 02:45:35 2022.
