 Gaussian 16, Revision A.03,
 Gaussian 16:  ES64L-G16RevA.03 25-Dec-2016

 ------------------
 #p CCSD(T)/cc-pVTZ
 ------------------

 -----------
 H2O_H2O_465
 -----------
 Symbolic Z-matrix:
 Charge =  0 Multiplicity = 1

                         Standard orientation:
 ---------------------------------------------------------------------
 Center     Atomic      Atomic             Coordinates (Angstroms)
 Number     Number       Type             X           Y           Z
 ---------------------------------------------------------------------
      1          8           0        0.045004    1.292164   -0.000000
      2          1           0        0.041608    0.309568   -0.000000
      3          1           0       -0.883382    1.614041   -0.000000
      4          8           0        0.045004   -1.111909    0.000000
      5          1           0        0.860117   -1.660634    0.000000
      6          1           0       -0.738410   -1.705009    0.000000
 ---------------------------------------------------------------------

 SCF Done:  E(RHF) =  -152.097773253     A.U. after   11 cycles
 E2 =    -0.5319933727D+00 EUMP2 =    -0.15262976662551D+03
 CCSD(T)
 CCSD(T)= -0.15265606800D+03

 The electronic state is 1-A'.
 Alpha  occ. eigenvalues --  -20.60380 -20.48347  -1.39014  -1.26969  -0.75478
 Alpha  occ. eigenvalues --   -0.71833  -0.58192  -0.55571  -0.48888  -0.43880
 Alpha virt. eigenvalues --    0.11194   0.17531   0.19935   0.33606   0.47274
 Alpha virt. eigenvalues --    0.53479   0.61214   0.64433   0.70110   0.72220
 Alpha virt. eigenvalues --    0.74657   0.78892   0.81121   0.82391   0.83934

 Mulliken charges:
               1
     1  O   -0.620828
     2  H    0.313230
     3  H    0.225422
     4  O   -0.427174
     5  H    0.260131
     6  H    0.249219
 Sum of Mulliken charges =  -0.00000

 Dipole moment (field-independent basis, Debye):
    X=             -1.4318    Y=             -4.3702    Z=              0.0000  Tot=              4.5988
 Quadrupole moment (field-independent basis, Debye-Ang):
   XX=             -9.1297   YY=             -9.5039   ZZ=            -14.6670
   XY=             -3.0193   XZ=              0.0000   YZ=             -0.0000

 Normal termination of Gaussian 16 at Fri Aug 26 18:27:08 2022.
