 Gaussian 16, Revision A.03,
 Gaussian 16:  ES64L-G16RevA.03 25-Dec-2016

 ------------------
 #p CCSD(T)/cc-pVTZ
 ------------------

 ------------
 H2O_H2O_3108
 ------------
 Symbolic Z-matrix:
 Charge =  0 Multiplicity = 1

                         Standard orientation:
 ---------------------------------------------------------------------
 Center     Atomic      Atomic             Coordinates (Angstroms)
 Number     Number       Type             X           Y           Z
 ---------------------------------------------------------------------
      1          8           0        0.070199    2.343738   -0.000000
      2          1           0        0.069344    1.361137   -0.000000
      3          1           0       -0.859017    2.663213   -0.000000
      4          8           0        0.070199   -2.173494    0.000000
      5          1           0        0.560758   -3.024879    0.000000
      6          1           0       -0.894264   -2.361428    0.000000
 ---------------------------------------------------------------------

 SCF Done:  E(RHF) =  -152.109218639     A.U. after   10 cycles
 E2 =    -0.5259612443D+00 EUMP2 =    -0.15263517988313D+03
 CCSD(T)
 CCSD(T)= -0.15266233747D+03

 The electronic state is 1-A'.
 Alpha  occ. eigenvalues --  -20.56605 -20.54643  -1.33890  -1.31957  -0.71300
 Alpha  occ. eigenvalues --   -0.69345  -0.57405  -0.55432  -0.51012  -0.49085
 Alpha virt. eigenvalues --    0.12329   0.15742   0.19440   0.22442   0.53519
 Alpha virt. eigenvalues --    0.55212   0.56333   0.58418   0.67801   0.69317
 Alpha virt. eigenvalues --    0.77889   0.78812   0.79757   0.80067   0.83024

 Mulliken charges:
               1
     1  O   -0.515741
     2  H    0.263122
     3  H    0.250353
     4  O   -0.512649
     5  H    0.260070
     6  H    0.254845
 Sum of Mulliken charges =  -0.00000

 Dipole moment (field-independent basis, Debye):
    X=             -2.3939    Y=             -3.0555    Z=              0.0000  Tot=              3.8816
 Quadrupole moment (field-independent basis, Debye-Ang):
   XX=             -9.6848   YY=             -7.5076   ZZ=            -14.7175
   XY=             -3.7545   XZ=              0.0000   YZ=             -0.0000

 Normal termination of Gaussian 16 at Fri Aug 26 19:48:43 2022.
