 Gaussian 16, Revision A.03,
 Gaussian 16:  ES64L-G16RevA.03 25-Dec-2016

 ------------------
 #p CCSD(T)/cc-pVTZ
 ------------------

 ------------
 H2O_H2O_3982
 ------------
 Symbolic Z-matrix:
 Charge =  0 Multiplicity = 1

                         Standard orientation:
 ---------------------------------------------------------------------
 Center     Atomic      Atomic             Coordinates (Angstroms)
 Number     Number       Type             X           Y           Z
 ---------------------------------------------------------------------
      1          8           0        0.073528    2.690969    0.000000
      2          1           0        0.072896    1.708367    0.000000
      3          1           0       -0.855760    3.010233    0.000000
      4          8           0        0.073528   -2.524013   -0.000000
      5          1           0        0.507555   -3.405561   -0.000000
      6          1           0       -0.901133   -2.648686   -0.000000
 ---------------------------------------------------------------------

 SCF Done:  E(RHF) =  -152.108355455     A.U. after   10 cycles
 E2 =    -0.5258562052D+00 EUMP2 =    -0.15263421166053D+03
 CCSD(T)
 CCSD(T)= -0.15266140507D+03

 The electronic state is 1-A'.
 Alpha  occ. eigenvalues --  -20.56306 -20.54957  -1.33605  -1.32264  -0.71015
 Alpha  occ. eigenvalues --   -0.69659  -0.57093  -0.55730  -0.50722  -0.49385
 Alpha virt. eigenvalues --    0.12850   0.15118   0.19429   0.21440   0.53316
 Alpha virt. eigenvalues --    0.54993   0.56532   0.57869   0.66700   0.69001
 Alpha virt. eigenvalues --    0.78174   0.79030   0.79472   0.80497   0.82726

 Mulliken charges:
               1
     1  O   -0.512819
     2  H    0.260568
     3  H    0.251846
     4  O   -0.513621
     5  H    0.259332
     6  H    0.254695
 Sum of Mulliken charges =  -0.00000

 Dipole moment (field-independent basis, Debye):
    X=             -2.5173    Y=             -2.9469    Z=             -0.0000  Tot=              3.8757
 Quadrupole moment (field-independent basis, Debye-Ang):
   XX=             -9.8106   YY=             -7.2507   ZZ=            -14.7145
   XY=             -3.8128   XZ=             -0.0000   YZ=              0.0000

 Normal termination of Gaussian 16 at Sat Aug 27 00:49:27 2022.
