 Gaussian 16, Revision A.03,
 Gaussian 16:  ES64L-G16RevA.03 25-Dec-2016

 ------------------
 #p CCSD(T)/cc-pVTZ
 ------------------

 ----------
 H2O_H2O_37
 ----------
 Symbolic Z-matrix:
 Charge =  0 Multiplicity = 1

                         Standard orientation:
 ---------------------------------------------------------------------
 Center     Atomic      Atomic             Coordinates (Angstroms)
 Number     Number       Type             X           Y           Z
 ---------------------------------------------------------------------
      1          8           0        0.056140    1.121807    0.000000
      2          1           0        0.053102    0.139210    0.000000
      3          1           0       -0.872363    1.443346    0.000000
      4          8           0        0.056140   -0.943087   -0.000000
      5          1           0        0.748793   -1.640037   -0.000000
      6          1           0       -0.827774   -1.372276   -0.000000
 ---------------------------------------------------------------------

 SCF Done:  E(RHF) =  -152.033929549     A.U. after   11 cycles
 E2 =    -0.5362749981D+00 EUMP2 =    -0.15257020454696D+03
 CCSD(T)
 CCSD(T)= -0.15259570025D+03

 The electronic state is 1-A'.
 Alpha  occ. eigenvalues --  -20.62211 -20.43833  -1.44310  -1.24309  -0.80373
 Alpha  occ. eigenvalues --   -0.77672  -0.58931  -0.54220  -0.44018  -0.40733
 Alpha virt. eigenvalues --    0.10238   0.16142   0.21401   0.32537   0.47571
 Alpha virt. eigenvalues --    0.51721   0.62688   0.63823   0.70366   0.71052
 Alpha virt. eigenvalues --    0.79009   0.79229   0.81756   0.82732   0.89070

 Mulliken charges:
               1
     1  O   -0.672455
     2  H    0.281538
     3  H    0.196060
     4  O   -0.292906
     5  H    0.244289
     6  H    0.243473
 Sum of Mulliken charges =  -0.00000

 Dipole moment (field-independent basis, Debye):
    X=             -1.6858    Y=             -5.1079    Z=             -0.0000  Tot=              5.3789
 Quadrupole moment (field-independent basis, Debye-Ang):
   XX=             -9.2383   YY=            -10.2796   ZZ=            -14.5427
   XY=             -2.6345   XZ=             -0.0000   YZ=             -0.0000

 Normal termination of Gaussian 16 at Fri Aug 26 15:26:20 2022.
