 Gaussian 16, Revision A.03,
 Gaussian 16:  ES64L-G16RevA.03 25-Dec-2016

 ------------------
 #p CCSD(T)/cc-pVTZ
 ------------------

 ------------
 H2O_H2O_3689
 ------------
 Symbolic Z-matrix:
 Charge =  0 Multiplicity = 1

                         Standard orientation:
 ---------------------------------------------------------------------
 Center     Atomic      Atomic             Coordinates (Angstroms)
 Number     Number       Type             X           Y           Z
 ---------------------------------------------------------------------
      1          8           0        0.048569    2.578613   -0.000000
      2          1           0        0.047055    1.596013   -0.000000
      3          1           0       -0.880432    2.898711   -0.000000
      4          8           0        0.048569   -2.398209    0.000000
      5          1           0        0.827198   -2.997579    0.000000
      6          1           0       -0.770922   -2.940372    0.000000
 ---------------------------------------------------------------------

 SCF Done:  E(RHF) =  -152.108995554     A.U. after   10 cycles
 E2 =    -0.5258421777D+00 EUMP2 =    -0.15263483773181D+03
 CCSD(T)
 CCSD(T)= -0.15266201279D+03

 The electronic state is 1-A'.
 Alpha  occ. eigenvalues --  -20.56380 -20.54718  -1.33673  -1.32030  -0.71076
 Alpha  occ. eigenvalues --   -0.69428  -0.57187  -0.55510  -0.50796  -0.49158
 Alpha virt. eigenvalues --    0.12885   0.15398   0.19594   0.21582   0.53476
 Alpha virt. eigenvalues --    0.54996   0.56524   0.57924   0.66810   0.69268
 Alpha virt. eigenvalues --    0.78104   0.79233   0.79507   0.79684   0.82983

 Mulliken charges:
               1
     1  O   -0.515927
     2  H    0.262430
     3  H    0.252585
     4  O   -0.515598
     5  H    0.259495
     6  H    0.257015
 Sum of Mulliken charges =  -0.00000

 Dipole moment (field-independent basis, Debye):
    X=             -1.6613    Y=             -3.1998    Z=              0.0000  Tot=              3.6053
 Quadrupole moment (field-independent basis, Debye-Ang):
   XX=             -9.1823   YY=             -6.7413   ZZ=            -14.7169
   XY=             -5.0705   XZ=              0.0000   YZ=             -0.0000

 Normal termination of Gaussian 16 at Fri Aug 26 23:07:36 2022.
