 Gaussian 16, Revision A.03,
 Gaussian 16:  ES64L-G16RevA.03 25-Dec-2016

 ------------------
 #p CCSD(T)/cc-pVTZ
 ------------------

 ------------
 H2O_H2O_4262
 ------------
 Symbolic Z-matrix:
 Charge =  0 Multiplicity = 1

                         Standard orientation:
 ---------------------------------------------------------------------
 Center     Atomic      Atomic             Coordinates (Angstroms)
 Number     Number       Type             X           Y           Z
 ---------------------------------------------------------------------
      1          8           0        0.055969    2.807168    0.000000
      2          1           0        0.054814    1.824567    0.000000
      3          1           0       -0.873149    3.126926   -0.000000
      4          8           0        0.055969   -2.628233    0.000000
      5          1           0        0.749957   -3.323854    0.000000
      6          1           0       -0.827121   -3.059116   -0.000000
 ---------------------------------------------------------------------

 SCF Done:  E(RHF) =  -152.108481602     A.U. after   10 cycles
 E2 =    -0.5258196274D+00 EUMP2 =    -0.15263430122968D+03
 CCSD(T)
 CCSD(T)= -0.15266149497D+03

 The electronic state is 1-A'.
 Alpha  occ. eigenvalues --  -20.56235 -20.54903  -1.33534  -1.32211  -0.70939
 Alpha  occ. eigenvalues --   -0.69610  -0.57030  -0.55682  -0.50653  -0.49334
 Alpha virt. eigenvalues --    0.13218   0.15033   0.19652   0.21152   0.53586
 Alpha virt. eigenvalues --    0.54880   0.56618   0.57809   0.66731   0.68913
 Alpha virt. eigenvalues --    0.78237   0.79503   0.79520   0.80005   0.82776

 Mulliken charges:
               1
     1  O   -0.513939
     2  H    0.260914
     3  H    0.252782
     4  O   -0.514712
     5  H    0.258804
     6  H    0.256150
 Sum of Mulliken charges =  -0.00000

 Dipole moment (field-independent basis, Debye):
    X=             -1.9180    Y=             -3.1486    Z=             -0.0000  Tot=              3.6868
 Quadrupole moment (field-independent basis, Debye-Ang):
   XX=             -9.2852   YY=             -6.4529   ZZ=            -14.7150
   XY=             -5.0012   XZ=              0.0000   YZ=             -0.0000

 Normal termination of Gaussian 16 at Sun Aug 28 01:19:28 2022.
