 Gaussian 16, Revision A.03,
 Gaussian 16:  ES64L-G16RevA.03 25-Dec-2016

 ------------------
 #p CCSD(T)/cc-pVTZ
 ------------------

 -----------
 H2O_H2O_714
 -----------
 Symbolic Z-matrix:
 Charge =  0 Multiplicity = 1

                         Standard orientation:
 ---------------------------------------------------------------------
 Center     Atomic      Atomic             Coordinates (Angstroms)
 Number     Number       Type             X           Y           Z
 ---------------------------------------------------------------------
      1          8           0        0.048695    1.391887   -0.000000
      2          1           0        0.045802    0.409290   -0.000000
      3          1           0       -0.879855    1.713289   -0.000000
      4          8           0        0.048695   -1.211620    0.000000
      5          1           0        0.826481   -1.812083    0.000000
      6          1           0       -0.771556   -1.752632    0.000000
 ---------------------------------------------------------------------

 SCF Done:  E(RHF) =  -152.108809703     A.U. after   10 cycles
 E2 =    -0.5301757419D+00 EUMP2 =    -0.15263898544474D+03
 CCSD(T)
 CCSD(T)= -0.15266560621D+03

 The electronic state is 1-A'.
 Alpha  occ. eigenvalues --  -20.59573 -20.50152  -1.37472  -1.28211  -0.74403
 Alpha  occ. eigenvalues --   -0.69396  -0.59364  -0.54365  -0.50785  -0.45245
 Alpha virt. eigenvalues --    0.11530   0.17827   0.19414   0.33154   0.47763
 Alpha virt. eigenvalues --    0.54131   0.59432   0.62069   0.69910   0.72252
 Alpha virt. eigenvalues --    0.72398   0.78085   0.81833   0.82829   0.84440

 Mulliken charges:
               1
     1  O   -0.593040
     2  H    0.311224
     3  H    0.232816
     4  O   -0.467766
     5  H    0.262868
     6  H    0.253897
 Sum of Mulliken charges =  -0.00000

 Dipole moment (field-independent basis, Debye):
    X=             -1.5804    Y=             -4.0543    Z=              0.0000  Tot=              4.3514
 Quadrupole moment (field-independent basis, Debye-Ang):
   XX=             -9.1728   YY=             -9.1268   ZZ=            -14.7033
   XY=             -3.1907   XZ=              0.0000   YZ=             -0.0000

 Normal termination of Gaussian 16 at Fri Aug 26 20:03:12 2022.
