 Gaussian 16, Revision A.03,
 Gaussian 16:  ES64L-G16RevA.03 25-Dec-2016

 ------------------
 #p CCSD(T)/cc-pVTZ
 ------------------

 -----------
 H2O_H2O_666
 -----------
 Symbolic Z-matrix:
 Charge =  0 Multiplicity = 1

                         Standard orientation:
 ---------------------------------------------------------------------
 Center     Atomic      Atomic             Coordinates (Angstroms)
 Number     Number       Type             X           Y           Z
 ---------------------------------------------------------------------
      1          8           0        0.041277    1.371692   -0.000000
      2          1           0        0.037846    0.389096   -0.000000
      3          1           0       -0.887098    1.693602   -0.000000
      4          8           0        0.041277   -1.191892    0.000000
      5          1           0        0.890515   -1.686162    0.000000
      6          1           0       -0.701693   -1.834933    0.000000
 ---------------------------------------------------------------------

 SCF Done:  E(RHF) =  -152.107445862     A.U. after   11 cycles
 E2 =    -0.5304463853D+00 EUMP2 =    -0.15263789224718D+03
 CCSD(T)
 CCSD(T)= -0.15266446020D+03

 The electronic state is 1-A'.
 Alpha  occ. eigenvalues --  -20.59703 -20.49819  -1.37715  -1.27973  -0.74614
 Alpha  occ. eigenvalues --   -0.69691  -0.59258  -0.54562  -0.50426  -0.44993
 Alpha virt. eigenvalues --    0.11514   0.17955   0.19391   0.33369   0.47624
 Alpha virt. eigenvalues --    0.54052   0.59242   0.63649   0.69339   0.72369
 Alpha virt. eigenvalues --    0.72654   0.78229   0.81564   0.82936   0.84279

 Mulliken charges:
               1
     1  O   -0.600320
     2  H    0.311459
     3  H    0.233848
     4  O   -0.461055
     5  H    0.263518
     6  H    0.252550
 Sum of Mulliken charges =  -0.00000

 Dipole moment (field-independent basis, Debye):
    X=             -1.3374    Y=             -4.1017    Z=              0.0000  Tot=              4.3142
 Quadrupole moment (field-independent basis, Debye-Ang):
   XX=             -9.1301   YY=             -9.1971   ZZ=            -14.6978
   XY=             -3.2060   XZ=              0.0000   YZ=             -0.0000

 Normal termination of Gaussian 16 at Fri Aug 26 19:43:33 2022.
