 Gaussian 16, Revision A.03,
 Gaussian 16:  ES64L-G16RevA.03 25-Dec-2016

 ------------------
 #p CCSD(T)/cc-pVTZ
 ------------------

 ------------
 H2O_H2O_1694
 ------------
 Symbolic Z-matrix:
 Charge =  0 Multiplicity = 1

                         Standard orientation:
 ---------------------------------------------------------------------
 Center     Atomic      Atomic             Coordinates (Angstroms)
 Number     Number       Type             X           Y           Z
 ---------------------------------------------------------------------
      1          8           0        0.030260    1.778235    0.000000
      2          1           0        0.027109    0.795638    0.000000
      3          1           0       -0.898206    2.099880    0.000000
      4          8           0        0.030260   -1.602676    0.000000
      5          1           0        0.959698   -1.921505    0.000000
      6          1           0       -0.572762   -2.378480    0.000000
 ---------------------------------------------------------------------

 SCF Done:  E(RHF) =  -152.113353593     A.U. after   10 cycles
 E2 =    -0.5267533242D+00 EUMP2 =    -0.15264010691723D+03
 CCSD(T)
 CCSD(T)= -0.15266713518D+03

 The electronic state is 1-A'.
 Alpha  occ. eigenvalues --  -20.57673 -20.53326  -1.34943  -1.30728  -0.72325
 Alpha  occ. eigenvalues --   -0.68245  -0.58729  -0.54133  -0.52079  -0.47885
 Alpha virt. eigenvalues --    0.12184   0.17426   0.19036   0.27882   0.51147
 Alpha virt. eigenvalues --    0.54352   0.56099   0.59594   0.69011   0.72744
 Alpha virt. eigenvalues --    0.75081   0.77277   0.81138   0.83201   0.84540

 Mulliken charges:
               1
     1  O   -0.537924
     2  H    0.272659
     3  H    0.250377
     4  O   -0.507462
     5  H    0.263613
     6  H    0.258737
 Sum of Mulliken charges =  -0.00000

 Dipole moment (field-independent basis, Debye):
    X=             -1.0217    Y=             -3.3802    Z=             -0.0000  Tot=              3.5312
 Quadrupole moment (field-independent basis, Debye-Ang):
   XX=             -9.2308   YY=             -8.1778   ZZ=            -14.7331
   XY=             -4.2358   XZ=             -0.0000   YZ=             -0.0000

 Normal termination of Gaussian 16 at Sun Aug 28 00:44:49 2022.
