 Gaussian 16, Revision A.03,
 Gaussian 16:  ES64L-G16RevA.03 25-Dec-2016

 ------------------
 #p CCSD(T)/cc-pVTZ
 ------------------

 ------------
 H2O_H2O_4952
 ------------
 Symbolic Z-matrix:
 Charge =  0 Multiplicity = 1

                         Standard orientation:
 ---------------------------------------------------------------------
 Center     Atomic      Atomic             Coordinates (Angstroms)
 Number     Number       Type             X           Y           Z
 ---------------------------------------------------------------------
      1          8           0        0.088228   -3.067582    0.000000
      2          1           0        0.088095   -2.084981    0.000000
      3          1           0       -0.841221   -3.386375    0.000000
      4          8           0        0.088228    2.923255    0.000000
      5          1           0        0.216351    3.897468    0.000000
      6          1           0       -0.874881    2.728507    0.000000
 ---------------------------------------------------------------------

 SCF Done:  E(RHF) =  -152.107704609     A.U. after   10 cycles
 E2 =    -0.5258557942D+00 EUMP2 =    -0.15263356040291D+03
 CCSD(T)
 CCSD(T)= -0.15266077450D+03

 The electronic state is 1-A'.
 Alpha  occ. eigenvalues --  -20.56135 -20.55306  -1.33436  -1.32608  -0.70848
 Alpha  occ. eigenvalues --   -0.70007  -0.56898  -0.56062  -0.50548  -0.49722
 Alpha virt. eigenvalues --    0.13248   0.14569   0.19245   0.21101   0.53510
 Alpha virt. eigenvalues --    0.54692   0.56633   0.57581   0.67111   0.68293
 Alpha virt. eigenvalues --    0.78339   0.79150   0.79725   0.80855   0.81703

 Mulliken charges:
               1
     1  O   -0.510079
     2  H    0.257463
     3  H    0.252597
     4  O   -0.510885
     5  H    0.257661
     6  H    0.253244
 Sum of Mulliken charges =  -0.00000

 Dipole moment (field-independent basis, Debye):
    X=             -3.0290    Y=              2.5245    Z=              0.0000  Tot=              3.9431
 Quadrupole moment (field-independent basis, Debye-Ang):
   XX=            -10.5484   YY=             -8.4148   ZZ=            -14.7122
   XY=              2.7128   XZ=              0.0000   YZ=              0.0000

 Normal termination of Gaussian 16 at Sun Aug 28 07:12:16 2022.
