 Gaussian 16, Revision A.03,
 Gaussian 16:  ES64L-G16RevA.03 25-Dec-2016

 ------------------
 #p CCSD(T)/cc-pVTZ
 ------------------

 -----------
 H2O_H2O_228
 -----------
 Symbolic Z-matrix:
 Charge =  0 Multiplicity = 1

                         Standard orientation:
 ---------------------------------------------------------------------
 Center     Atomic      Atomic             Coordinates (Angstroms)
 Number     Number       Type             X           Y           Z
 ---------------------------------------------------------------------
      1          8           0        0.085623   -1.185725    0.000000
      2          1           0        0.085061   -0.203123    0.000000
      3          1           0       -0.843688   -1.504922    0.000000
      4          8           0        0.085623    1.036177    0.000000
      5          1           0        0.276768    2.000009    0.000000
      6          1           0       -0.888104    0.904413    0.000000
 ---------------------------------------------------------------------

 SCF Done:  E(RHF) =  -152.063799492     A.U. after   11 cycles
 E2 =    -0.5362861751D+00 EUMP2 =    -0.15260008566711D+03
 CCSD(T)
 CCSD(T)= -0.15262602959D+03

 The electronic state is 1-A'.
 Alpha  occ. eigenvalues --  -20.61087 -20.48283  -1.41653  -1.27216  -0.80738
 Alpha  occ. eigenvalues --   -0.70539  -0.57437  -0.56936  -0.48953  -0.44048
 Alpha virt. eigenvalues --    0.10814   0.16131   0.21312   0.32247   0.49277
 Alpha virt. eigenvalues --    0.51520   0.59690   0.65697   0.71521   0.72767
 Alpha virt. eigenvalues --    0.76208   0.77182   0.79836   0.83997   0.85772

 Mulliken charges:
               1
     1  O   -0.599193
     2  H    0.275604
     3  H    0.199700
     4  O   -0.338634
     5  H    0.227842
     6  H    0.234680
 Sum of Mulliken charges =  -0.00000

 Dipole moment (field-independent basis, Debye):
    X=             -2.6782    Y=              4.0153    Z=              0.0000  Tot=              4.8265
 Quadrupole moment (field-independent basis, Debye-Ang):
   XX=            -10.3880   YY=             -9.7249   ZZ=            -14.5731
   XY=              2.3142   XZ=              0.0000   YZ=              0.0000

 Normal termination of Gaussian 16 at Fri Aug 26 16:45:39 2022.
