 Gaussian 16, Revision A.03,
 Gaussian 16:  ES64L-G16RevA.03 25-Dec-2016

 ------------------
 #p CCSD(T)/cc-pVTZ
 ------------------

 ------------
 H2O_H2O_2385
 ------------
 Symbolic Z-matrix:
 Charge =  0 Multiplicity = 1

                         Standard orientation:
 ---------------------------------------------------------------------
 Center     Atomic      Atomic             Coordinates (Angstroms)
 Number     Number       Type             X           Y           Z
 ---------------------------------------------------------------------
      1          8           0        0.063251    2.057401    0.000000
      2          1           0        0.061970    1.074801    0.000000
      3          1           0       -0.865826    2.377279    0.000000
      4          8           0        0.063251   -1.881915    0.000000
      5          1           0        0.660405   -2.662244    0.000000
      6          1           0       -0.868565   -2.193726    0.000000
 ---------------------------------------------------------------------

 SCF Done:  E(RHF) =  -152.110776529     A.U. after   10 cycles
 E2 =    -0.5261973528D+00 EUMP2 =    -0.15263697388177D+03
 CCSD(T)
 CCSD(T)= -0.15266407879D+03

 The electronic state is 1-A'.
 Alpha  occ. eigenvalues --  -20.57031 -20.54150  -1.34293  -1.31481  -0.71696
 Alpha  occ. eigenvalues --   -0.68870  -0.57882  -0.54955  -0.51425  -0.48620
 Alpha virt. eigenvalues --    0.12184   0.16439   0.19352   0.24449   0.52655
 Alpha virt. eigenvalues --    0.55730   0.56035   0.58859   0.68910   0.71135
 Alpha virt. eigenvalues --    0.77185   0.78633   0.80247   0.81711   0.83615

 Mulliken charges:
               1
     1  O   -0.521994
     2  H    0.266753
     3  H    0.248503
     4  O   -0.508807
     5  H    0.260309
     6  H    0.255235
 Sum of Mulliken charges =  -0.00000

 Dipole moment (field-independent basis, Debye):
    X=             -2.1462    Y=             -3.2322    Z=              0.0000  Tot=              3.8799
 Quadrupole moment (field-independent basis, Debye-Ang):
   XX=             -9.4627   YY=             -7.7248   ZZ=            -14.7225
   XY=             -3.7943   XZ=              0.0000   YZ=              0.0000

 Normal termination of Gaussian 16 at Sun Aug 28 06:49:34 2022.
