 Gaussian 16, Revision A.03,
 Gaussian 16:  ES64L-G16RevA.03 25-Dec-2016

 ------------------
 #p CCSD(T)/cc-pVTZ
 ------------------

 ------------
 H2O_H2O_2599
 ------------
 Symbolic Z-matrix:
 Charge =  0 Multiplicity = 1

                         Standard orientation:
 ---------------------------------------------------------------------
 Center     Atomic      Atomic             Coordinates (Angstroms)
 Number     Number       Type             X           Y           Z
 ---------------------------------------------------------------------
      1          8           0       -0.013545    2.128368    0.000000
      2          1           0       -0.010255    1.145772    0.000000
      3          1           0        0.914876    2.450145    0.000000
      4          8           0       -0.013545   -1.969115    0.000000
      5          1           0       -0.996140   -1.972405    0.000000
      6          1           0        0.308232   -2.897536    0.000000
 ---------------------------------------------------------------------

 SCF Done:  E(RHF) =  -152.110403208     A.U. after   10 cycles
 E2 =    -0.5260402302D+00 EUMP2 =    -0.15263644343831D+03
 CCSD(T)
 CCSD(T)= -0.15266356801D+03

 The electronic state is 1-A'.
 Alpha  occ. eigenvalues --  -20.56835 -20.54489  -1.34117  -1.31814  -0.71533
 Alpha  occ. eigenvalues --   -0.69224  -0.57683  -0.55304  -0.51245  -0.48957
 Alpha virt. eigenvalues --    0.12166   0.16249   0.19250   0.24180   0.54069
 Alpha virt. eigenvalues --    0.55448   0.56180   0.58483   0.68668   0.70345
 Alpha virt. eigenvalues --    0.77498   0.79183   0.79907   0.80731   0.83517

 Mulliken charges:
               1
     1  O   -0.523264
     2  H    0.264080
     3  H    0.254852
     4  O   -0.512975
     5  H    0.258787
     6  H    0.258520
 Sum of Mulliken charges =  -0.00000

 Dipole moment (field-independent basis, Debye):
    X=              0.4675    Y=             -2.9003    Z=              0.0000  Tot=              2.9377
 Quadrupole moment (field-independent basis, Debye-Ang):
   XX=             -9.6488   YY=             -8.1247   ZZ=            -14.7211
   XY=              5.7475   XZ=              0.0000   YZ=              0.0000

 CCSD(T)=-152.663568\RMSD=6.700e-09\PG=CS [SG(H4O2)]\\@
 Normal termination of Gaussian 16 at Fri Aug 26 15:54:19 2022.
