 Gaussian 16, Revision A.03,
 Gaussian 16:  ES64L-G16RevA.03 25-Dec-2016

 ------------------
 #p CCSD(T)/cc-pVTZ
 ------------------

 -----------
 H2O_H2O_736
 -----------
 Symbolic Z-matrix:
 Charge =  0 Multiplicity = 1

                         Standard orientation:
 ---------------------------------------------------------------------
 Center     Atomic      Atomic             Coordinates (Angstroms)
 Number     Number       Type             X           Y           Z
 ---------------------------------------------------------------------
      1          8           0        0.059723    1.400264    0.000000
      2          1           0        0.057567    0.417664    0.000000
      3          1           0       -0.869069    1.720968    0.000000
      4          8           0        0.059723   -1.222929   -0.000000
      5          1           0        0.705975   -1.963107   -0.000000
      6          1           0       -0.850036   -1.594204   -0.000000
 ---------------------------------------------------------------------

 SCF Done:  E(RHF) =  -152.108742804     A.U. after   10 cycles
 E2 =    -0.5301764236D+00 EUMP2 =    -0.15263891922727D+03
 CCSD(T)
 CCSD(T)= -0.15266557161D+03

 The electronic state is 1-A'.
 Alpha  occ. eigenvalues --  -20.59499 -20.50498  -1.37365  -1.28486  -0.74468
 Alpha  occ. eigenvalues --   -0.69140  -0.59426  -0.54260  -0.51148  -0.45523
 Alpha virt. eigenvalues --    0.11496   0.17492   0.19603   0.32933   0.47934
 Alpha virt. eigenvalues --    0.54126   0.60146   0.60583   0.70394   0.72378
 Alpha virt. eigenvalues --    0.72668   0.77751   0.81453   0.83116   0.84398

 Mulliken charges:
               1
     1  O   -0.585273
     2  H    0.308634
     3  H    0.230415
     4  O   -0.462661
     5  H    0.257385
     6  H    0.251501
 Sum of Mulliken charges =   0.00000

 Dipole moment (field-independent basis, Debye):
    X=             -1.9388    Y=             -3.9602    Z=             -0.0000  Tot=              4.4093
 Quadrupole moment (field-independent basis, Debye-Ang):
   XX=             -9.3684   YY=             -9.0803   ZZ=            -14.7018
   XY=             -3.1057   XZ=             -0.0000   YZ=              0.0000

 Normal termination of Gaussian 16 at Fri Aug 26 20:11:29 2022.
