 Gaussian 16, Revision A.03,
 Gaussian 16:  ES64L-G16RevA.03 25-Dec-2016

 ------------------
 #p CCSD(T)/cc-pVTZ
 ------------------

 ------------
 H2O_H2O_1035
 ------------
 Symbolic Z-matrix:
 Charge =  0 Multiplicity = 1

                         Standard orientation:
 ---------------------------------------------------------------------
 Center     Atomic      Atomic             Coordinates (Angstroms)
 Number     Number       Type             X           Y           Z
 ---------------------------------------------------------------------
      1          8           0        0.063294    1.518887    0.000000
      2          1           0        0.061532    0.536287    0.000000
      3          1           0       -0.865626    1.839220   -0.000000
      4          8           0        0.063294   -1.343463    0.000000
      5          1           0        0.660065   -2.124084    0.000000
      6          1           0       -0.868674   -1.654815   -0.000000
 ---------------------------------------------------------------------

 SCF Done:  E(RHF) =  -152.112639262     A.U. after   10 cycles
 E2 =    -0.5286478787D+00 EUMP2 =    -0.15264128714029D+03
 CCSD(T)
 CCSD(T)= -0.15266815349D+03

 The electronic state is 1-A'.
 Alpha  occ. eigenvalues --  -20.58760 -20.51925  -1.36252  -1.29571  -0.73565
 Alpha  occ. eigenvalues --   -0.68114  -0.59653  -0.53298  -0.52634  -0.46674
 Alpha virt. eigenvalues --    0.11724   0.17453   0.19369   0.31577   0.48330
 Alpha virt. eigenvalues --    0.54657   0.58097   0.59672   0.69832   0.72743
 Alpha virt. eigenvalues --    0.72770   0.76930   0.82116   0.82515   0.84576

 Mulliken charges:
               1
     1  O   -0.559749
     2  H    0.295355
     3  H    0.236605
     4  O   -0.484157
     5  H    0.258093
     6  H    0.253852
 Sum of Mulliken charges =  -0.00000

 Dipole moment (field-independent basis, Debye):
    X=             -2.0878    Y=             -3.6691    Z=             -0.0000  Tot=              4.2216
 Quadrupole moment (field-independent basis, Debye-Ang):
   XX=             -9.4728   YY=             -8.7354   ZZ=            -14.7224
   XY=             -3.2107   XZ=             -0.0000   YZ=             -0.0000

 Normal termination of Gaussian 16 at Fri Aug 26 22:03:39 2022.
