 Gaussian 16, Revision A.03,
 Gaussian 16:  ES64L-G16RevA.03 25-Dec-2016

 ------------------
 #p CCSD(T)/cc-pVTZ
 ------------------

 ------------
 H2O_H2O_1787
 ------------
 Symbolic Z-matrix:
 Charge =  0 Multiplicity = 1

                         Standard orientation:
 ---------------------------------------------------------------------
 Center     Atomic      Atomic             Coordinates (Angstroms)
 Number     Number       Type             X           Y           Z
 ---------------------------------------------------------------------
      1          8           0        0.056029    1.819910    0.000000
      2          1           0        0.054216    0.837310    0.000000
      3          1           0       -0.872875    2.140291    0.000000
      4          8           0        0.056029   -1.641051   -0.000000
      5          1           0        0.749550   -2.337135   -0.000000
      6          1           0       -0.827349   -2.071341   -0.000000
 ---------------------------------------------------------------------

 SCF Done:  E(RHF) =  -152.112774113     A.U. after   10 cycles
 E2 =    -0.5266930282D+00 EUMP2 =    -0.15263946714163D+03
 CCSD(T)
 CCSD(T)= -0.15266651013D+03

 The electronic state is 1-A'.
 Alpha  occ. eigenvalues --  -20.57590 -20.53456  -1.34847  -1.30837  -0.72224
 Alpha  occ. eigenvalues --   -0.68309  -0.58581  -0.54259  -0.51983  -0.47986
 Alpha virt. eigenvalues --    0.12097   0.17137   0.19157   0.27281   0.50728
 Alpha virt. eigenvalues --    0.55020   0.56315   0.58998   0.69108   0.72450
 Alpha virt. eigenvalues --    0.75482   0.77151   0.80997   0.83259   0.84411

 Mulliken charges:
               1
     1  O   -0.531947
     2  H    0.271890
     3  H    0.246392
     4  O   -0.506338
     5  H    0.263147
     6  H    0.256856
 Sum of Mulliken charges =  -0.00000

 Dipole moment (field-independent basis, Debye):
    X=             -1.8875    Y=             -3.4163    Z=             -0.0000  Tot=              3.9030
 Quadrupole moment (field-independent basis, Debye-Ang):
   XX=             -9.2956   YY=             -8.0538   ZZ=            -14.7311
   XY=             -3.7303   XZ=             -0.0000   YZ=              0.0000

 Normal termination of Gaussian 16 at Sun Aug 28 01:34:44 2022.
