 Gaussian 16, Revision A.03,
 Gaussian 16:  ES64L-G16RevA.03 25-Dec-2016

 ------------------
 #p CCSD(T)/cc-pVTZ
 ------------------

 -----------
 H2O_H2O_805
 -----------
 Symbolic Z-matrix:
 Charge =  0 Multiplicity = 1

                         Standard orientation:
 ---------------------------------------------------------------------
 Center     Atomic      Atomic             Coordinates (Angstroms)
 Number     Number       Type             X           Y           Z
 ---------------------------------------------------------------------
      1          8           0        0.079879   -1.420218    0.000000
      2          1           0        0.079050   -0.437617    0.000000
      3          1           0       -0.849345   -1.739668    0.000000
      4          8           0        0.079879    1.261212    0.000000
      5          1           0        0.394942    2.191933    0.000000
      6          1           0       -0.902715    1.257403    0.000000
 ---------------------------------------------------------------------

 SCF Done:  E(RHF) =  -152.107081957     A.U. after   10 cycles
 E2 =    -0.5302343088D+00 EUMP2 =    -0.15263731626603D+03
 CCSD(T)
 CCSD(T)= -0.15266408497D+03

 The electronic state is 1-A'.
 Alpha  occ. eigenvalues --  -20.59227 -20.51788  -1.37064  -1.29564  -0.74901
 Alpha  occ. eigenvalues --   -0.68323  -0.59679  -0.53921  -0.52473  -0.46608
 Alpha virt. eigenvalues --    0.11438   0.16800   0.20126   0.32126   0.48211
 Alpha virt. eigenvalues --    0.53710   0.58835   0.61417   0.69615   0.72106
 Alpha virt. eigenvalues --    0.74319   0.77564   0.80321   0.82934   0.83751

 Mulliken charges:
               1
     1  O   -0.561663
     2  H    0.294876
     3  H    0.227857
     4  O   -0.438763
     5  H    0.237587
     6  H    0.240106
 Sum of Mulliken charges =  -0.00000

 Dipole moment (field-independent basis, Debye):
    X=             -2.6039    Y=              3.4926    Z=              0.0000  Tot=              4.3564
 Quadrupole moment (field-independent basis, Debye-Ang):
   XX=            -10.1367   YY=             -9.0274   ZZ=            -14.6912
   XY=              2.7182   XZ=              0.0000   YZ=              0.0000

 Normal termination of Gaussian 16 at Fri Aug 26 20:37:16 2022.
