 Gaussian 16, Revision A.03,
 Gaussian 16:  ES64L-G16RevA.03 25-Dec-2016

 ------------------
 #p CCSD(T)/cc-pVTZ
 ------------------

 -----------
 H2O_H2O_334
 -----------
 Symbolic Z-matrix:
 Charge =  0 Multiplicity = 1

                         Standard orientation:
 ---------------------------------------------------------------------
 Center     Atomic      Atomic             Coordinates (Angstroms)
 Number     Number       Type             X           Y           Z
 ---------------------------------------------------------------------
      1          8           0        0.066844    1.238344   -0.000000
      2          1           0        0.064914    0.255745   -0.000000
      3          1           0       -0.862022    1.558836   -0.000000
      4          8           0        0.066844   -1.065369    0.000000
      5          1           0        0.611142   -1.883443    0.000000
      6          1           0       -0.883536   -1.314940    0.000000
 ---------------------------------------------------------------------

 SCF Done:  E(RHF) =  -152.085097950     A.U. after   11 cycles
 E2 =    -0.5337394330D+00 EUMP2 =    -0.15261883738326D+03
 CCSD(T)
 CCSD(T)= -0.15264494024D+03

 The electronic state is 1-A'.
 Alpha  occ. eigenvalues --  -20.60843 -20.47812  -1.40187  -1.26703  -0.77346
 Alpha  occ. eigenvalues --   -0.72363  -0.57390  -0.56331  -0.48363  -0.43531
 Alpha virt. eigenvalues --    0.10905   0.16727   0.20588   0.33075   0.48308
 Alpha virt. eigenvalues --    0.52811   0.60716   0.63895   0.71960   0.72106
 Alpha virt. eigenvalues --    0.76307   0.79096   0.79766   0.83723   0.84154

 Mulliken charges:
               1
     1  O   -0.618536
     2  H    0.301340
     3  H    0.212340
     4  O   -0.380271
     5  H    0.242227
     6  H    0.242899
 Sum of Mulliken charges =  -0.00000

 Dipole moment (field-independent basis, Debye):
    X=             -2.0950    Y=             -4.3839    Z=              0.0000  Tot=              4.8587
 Quadrupole moment (field-independent basis, Debye-Ang):
   XX=             -9.5543   YY=             -9.6419   ZZ=            -14.6283
   XY=             -2.7920   XZ=              0.0000   YZ=             -0.0000

 Normal termination of Gaussian 16 at Fri Aug 26 17:30:36 2022.
