 Gaussian 16, Revision A.03,
 Gaussian 16:  ES64L-G16RevA.03 25-Dec-2016

 ------------------
 #p CCSD(T)/cc-pVTZ
 ------------------

 -----------
 H2O_H2O_629
 -----------
 Symbolic Z-matrix:
 Charge =  0 Multiplicity = 1

                         Standard orientation:
 ---------------------------------------------------------------------
 Center     Atomic      Atomic             Coordinates (Angstroms)
 Number     Number       Type             X           Y           Z
 ---------------------------------------------------------------------
      1          8           0        0.082827   -1.347949    0.000000
      2          1           0        0.082150   -0.365347    0.000000
      3          1           0       -0.846446   -1.667256    0.000000
      4          8           0        0.082827    1.193481    0.000000
      5          1           0        0.336490    2.142776    0.000000
      6          1           0       -0.897424    1.125568    0.000000
 ---------------------------------------------------------------------

 SCF Done:  E(RHF) =  -152.100760039     A.U. after   11 cycles
 E2 =    -0.5316798733D+00 EUMP2 =    -0.15263243991194D+03
 CCSD(T)
 CCSD(T)= -0.15265905503D+03

 The electronic state is 1-A'.
 Alpha  occ. eigenvalues --  -20.59693 -20.51129  -1.37962  -1.29113  -0.76173
 Alpha  occ. eigenvalues --   -0.68592  -0.59480  -0.54587  -0.51816  -0.46110
 Alpha virt. eigenvalues --    0.11285   0.16634   0.20459   0.32527   0.48368
 Alpha virt. eigenvalues --    0.53001   0.58952   0.63238   0.70348   0.71848
 Alpha virt. eigenvalues --    0.74109   0.78219   0.79093   0.83523   0.83573

 Mulliken charges:
               1
     1  O   -0.570330
     2  H    0.294598
     3  H    0.221379
     4  O   -0.414605
     5  H    0.233875
     6  H    0.235083
 Sum of Mulliken charges =  -0.00000

 Dipole moment (field-independent basis, Debye):
    X=             -2.6730    Y=              3.5649    Z=              0.0000  Tot=              4.4558
 Quadrupole moment (field-independent basis, Debye-Ang):
   XX=            -10.2833   YY=             -9.2165   ZZ=            -14.6661
   XY=              2.5600   XZ=              0.0000   YZ=              0.0000

 Normal termination of Gaussian 16 at Fri Aug 26 19:30:11 2022.
