 Gaussian 16, Revision A.03,
 Gaussian 16:  ES64L-G16RevA.03 25-Dec-2016

 ------------------
 #p CCSD(T)/cc-pVTZ
 ------------------

 -----------
 H2O_H2O_984
 -----------
 Symbolic Z-matrix:
 Charge =  0 Multiplicity = 1

                         Standard orientation:
 ---------------------------------------------------------------------
 Center     Atomic      Atomic             Coordinates (Angstroms)
 Number     Number       Type             X           Y           Z
 ---------------------------------------------------------------------
      1          8           0        0.066813    1.497638   -0.000000
      2          1           0        0.065237    0.515038   -0.000000
      3          1           0       -0.862168    1.817794    0.000000
      4          8           0        0.066813   -1.324615   -0.000000
      5          1           0        0.611406   -2.142492   -0.000000
      6          1           0       -0.883476   -1.574529    0.000000
 ---------------------------------------------------------------------

 SCF Done:  E(RHF) =  -152.111899232     A.U. after   10 cycles
 E2 =    -0.5289228735D+00 EUMP2 =    -0.15264082210566D+03
 CCSD(T)
 CCSD(T)= -0.15266766768D+03

 The electronic state is 1-A'.
 Alpha  occ. eigenvalues --  -20.58861 -20.51854  -1.36405  -1.29529  -0.73766
 Alpha  occ. eigenvalues --   -0.68188  -0.59669  -0.53425  -0.52554  -0.46621
 Alpha virt. eigenvalues --    0.11663   0.17320   0.19507   0.31760   0.48243
 Alpha virt. eigenvalues --    0.54552   0.58706   0.59567   0.69818   0.72639
 Alpha virt. eigenvalues --    0.73332   0.76897   0.81854   0.82605   0.84418

 Mulliken charges:
               1
     1  O   -0.561119
     2  H    0.296482
     3  H    0.234876
     4  O   -0.475991
     5  H    0.254098
     6  H    0.251652
 Sum of Mulliken charges =  -0.00000

 Dipole moment (field-independent basis, Debye):
    X=             -2.1984    Y=             -3.6528    Z=              0.0000  Tot=              4.2633
 Quadrupole moment (field-independent basis, Debye-Ang):
   XX=             -9.5841   YY=             -8.7950   ZZ=            -14.7175
   XY=             -3.1221   XZ=             -0.0000   YZ=              0.0000

 Normal termination of Gaussian 16 at Fri Aug 26 21:44:13 2022.
