 Gaussian 16, Revision A.03,
 Gaussian 16:  ES64L-G16RevA.03 25-Dec-2016

 ------------------
 #p CCSD(T)/cc-pVTZ
 ------------------

 ------------
 H2O_H2O_2203
 ------------
 Symbolic Z-matrix:
 Charge =  0 Multiplicity = 1

                         Standard orientation:
 ---------------------------------------------------------------------
 Center     Atomic      Atomic             Coordinates (Angstroms)
 Number     Number       Type             X           Y           Z
 ---------------------------------------------------------------------
      1          8           0        0.085605   -1.973527    0.000000
      2          1           0        0.085276   -0.990926    0.000000
      3          1           0       -0.843781   -2.292505    0.000000
      4          8           0        0.085605    1.823940    0.000000
      5          1           0        0.276978    2.787725    0.000000
      6          1           0       -0.888153    1.692407    0.000000
 ---------------------------------------------------------------------

 SCF Done:  E(RHF) =  -152.109628433     A.U. after   10 cycles
 E2 =    -0.5264482651D+00 EUMP2 =    -0.15263607669796D+03
 CCSD(T)
 CCSD(T)= -0.15266319899D+03

 The electronic state is 1-A'.
 Alpha  occ. eigenvalues --  -20.57147 -20.54576  -1.34429  -1.31894  -0.71891
 Alpha  occ. eigenvalues --   -0.69252  -0.57958  -0.55338  -0.51540  -0.49016
 Alpha virt. eigenvalues --    0.11690   0.16179   0.19771   0.24870   0.52650
 Alpha virt. eigenvalues --    0.55779   0.56538   0.57749   0.68585   0.72497
 Alpha virt. eigenvalues --    0.76751   0.79272   0.79971   0.81347   0.83359

 Mulliken charges:
               1
     1  O   -0.516921
     2  H    0.265303
     3  H    0.245939
     4  O   -0.503308
     5  H    0.259053
     6  H    0.249934
 Sum of Mulliken charges =  -0.00000

 Dipole moment (field-independent basis, Debye):
    X=             -2.8953    Y=              2.7687    Z=              0.0000  Tot=              4.0061
 Quadrupole moment (field-independent basis, Debye-Ang):
   XX=            -10.4244   YY=             -8.5769   ZZ=            -14.7178
   XY=              2.6959   XZ=              0.0000   YZ=              0.0000

 Normal termination of Gaussian 16 at Sun Aug 28 05:24:33 2022.
