 Gaussian 16, Revision A.03,
 Gaussian 16:  ES64L-G16RevA.03 25-Dec-2016

 ------------------
 #p CCSD(T)/cc-pVTZ
 ------------------

 -----------
 H2O_H2O_918
 -----------
 Symbolic Z-matrix:
 Charge =  0 Multiplicity = 1

                         Standard orientation:
 ---------------------------------------------------------------------
 Center     Atomic      Atomic             Coordinates (Angstroms)
 Number     Number       Type             X           Y           Z
 ---------------------------------------------------------------------
      1          8           0        0.033918    1.470122    0.000000
      2          1           0        0.030283    0.487527    0.000000
      3          1           0       -0.894389    1.792225    0.000000
      4          8           0        0.033918   -1.292696    0.000000
      5          1           0        0.940327   -1.672077    0.000000
      6          1           0       -0.618915   -2.027078    0.000000
 ---------------------------------------------------------------------

 SCF Done:  E(RHF) =  -152.112535276     A.U. after   10 cycles
 E2 =    -0.5289841611D+00 EUMP2 =    -0.15264151943742D+03
 CCSD(T)
 CCSD(T)= -0.15266830618D+03

 The electronic state is 1-A'.
 Alpha  occ. eigenvalues --  -20.59010 -20.51210  -1.36617  -1.28999  -0.73836
 Alpha  occ. eigenvalues --   -0.68253  -0.59797  -0.53631  -0.51880  -0.46099
 Alpha virt. eigenvalues --    0.11822   0.18404   0.18762   0.32475   0.48355
 Alpha virt. eigenvalues --    0.54572   0.56863   0.62930   0.68486   0.72285
 Alpha virt. eigenvalues --    0.72586   0.77575   0.81944   0.82940   0.84555

 Mulliken charges:
               1
     1  O   -0.578081
     2  H    0.300028
     3  H    0.242271
     4  O   -0.482989
     5  H    0.265259
     6  H    0.253512
 Sum of Mulliken charges =  -0.00000

 Dipole moment (field-independent basis, Debye):
    X=             -1.1185    Y=             -3.8099    Z=              0.0000  Tot=              3.9707
 Quadrupole moment (field-independent basis, Debye-Ang):
   XX=             -9.1744   YY=             -8.8724   ZZ=            -14.7199
   XY=             -3.4908   XZ=             -0.0000   YZ=              0.0000

 Normal termination of Gaussian 16 at Fri Aug 26 21:20:10 2022.
