 Gaussian 16, Revision A.03,
 Gaussian 16:  ES64L-G16RevA.03 25-Dec-2016

 ------------------
 #p CCSD(T)/cc-pVTZ
 ------------------

 ------------
 H2O_H2O_3626
 ------------
 Symbolic Z-matrix:
 Charge =  0 Multiplicity = 1

                         Standard orientation:
 ---------------------------------------------------------------------
 Center     Atomic      Atomic             Coordinates (Angstroms)
 Number     Number       Type             X           Y           Z
 ---------------------------------------------------------------------
      1          8           0        0.090684   -2.536019    0.000000
      2          1           0        0.090606   -1.553417    0.000000
      3          1           0       -0.838784   -2.854759    0.000000
      4          8           0        0.090684    2.397309    0.000000
      5          1           0        0.154872    3.377813    0.000000
      6          1           0       -0.857640    2.140042    0.000000
 ---------------------------------------------------------------------

 SCF Done:  E(RHF) =  -152.107917134     A.U. after   10 cycles
 E2 =    -0.5259378227D+00 EUMP2 =    -0.15263385495699D+03
 CCSD(T)
 CCSD(T)= -0.15266105477D+03

 The electronic state is 1-A'.
 Alpha  occ. eigenvalues --  -20.56416 -20.55190  -1.33715  -1.32493  -0.71136
 Alpha  occ. eigenvalues --   -0.69882  -0.57181  -0.55946  -0.50825  -0.49606
 Alpha virt. eigenvalues --    0.11987   0.15222   0.19023   0.22452   0.53306
 Alpha virt. eigenvalues --    0.54949   0.56466   0.57956   0.66877   0.68882
 Alpha virt. eigenvalues --    0.78079   0.78788   0.79263   0.81338   0.82460

 Mulliken charges:
               1
     1  O   -0.510187
     2  H    0.258805
     3  H    0.250865
     4  O   -0.510661
     5  H    0.259480
     6  H    0.251697
 Sum of Mulliken charges =  -0.00000

 Dipole moment (field-independent basis, Debye):
    X=             -3.0996    Y=              2.4583    Z=              0.0000  Tot=              3.9561
 Quadrupole moment (field-independent basis, Debye-Ang):
   XX=            -10.7053   YY=             -8.9071   ZZ=            -14.7126
   XY=              2.3874   XZ=              0.0000   YZ=              0.0000

 Normal termination of Gaussian 16 at Fri Aug 26 22:45:27 2022.
