 Gaussian 16, Revision A.03,
 Gaussian 16:  ES64L-G16RevA.03 25-Dec-2016

 ------------------
 #p CCSD(T)/cc-pVTZ
 ------------------

 ------------
 H2O_H2O_1257
 ------------
 Symbolic Z-matrix:
 Charge =  0 Multiplicity = 1

                         Standard orientation:
 ---------------------------------------------------------------------
 Center     Atomic      Atomic             Coordinates (Angstroms)
 Number     Number       Type             X           Y           Z
 ---------------------------------------------------------------------
      1          8           0        0.073566    1.603995   -0.000000
      2          1           0        0.072482    0.621394   -0.000000
      3          1           0       -0.855575    1.923686    0.000000
      4          8           0        0.073566   -1.437106   -0.000000
      5          1           0        0.507188   -2.318853   -0.000000
      6          1           0       -0.901152   -1.561332    0.000000
 ---------------------------------------------------------------------

 SCF Done:  E(RHF) =  -152.112264564     A.U. after   10 cycles
 E2 =    -0.5279513291D+00 EUMP2 =    -0.15264021589353D+03
 CCSD(T)
 CCSD(T)= -0.15266718457D+03

 The electronic state is 1-A'.
 Alpha  occ. eigenvalues --  -20.58305 -20.52917  -1.35689  -1.30405  -0.73163
 Alpha  occ. eigenvalues --   -0.68155  -0.59325  -0.53650  -0.52765  -0.47521
 Alpha virt. eigenvalues --    0.11742   0.17028   0.19573   0.29981   0.48838
 Alpha virt. eigenvalues --    0.54874   0.57873   0.58827   0.69722   0.73306
 Alpha virt. eigenvalues --    0.74142   0.76524   0.81705   0.82344   0.84226

 Mulliken charges:
               1
     1  O   -0.542117
     2  H    0.283892
     3  H    0.238432
     4  O   -0.484175
     5  H    0.252362
     6  H    0.251605
 Sum of Mulliken charges =  -0.00000

 Dipole moment (field-independent basis, Debye):
    X=             -2.4452    Y=             -3.3644    Z=              0.0000  Tot=              4.1592
 Quadrupole moment (field-independent basis, Debye-Ang):
   XX=             -9.8435   YY=             -8.6024   ZZ=            -14.7237
   XY=             -3.0563   XZ=              0.0000   YZ=              0.0000

 Normal termination of Gaussian 16 at Fri Aug 26 23:26:05 2022.
