 Gaussian 16, Revision A.03,
 Gaussian 16:  ES64L-G16RevA.03 25-Dec-2016

 ------------------
 #p CCSD(T)/cc-pVTZ
 ------------------

 ------------
 H2O_H2O_1066
 ------------
 Symbolic Z-matrix:
 Charge =  0 Multiplicity = 1

                         Standard orientation:
 ---------------------------------------------------------------------
 Center     Atomic      Atomic             Coordinates (Angstroms)
 Number     Number       Type             X           Y           Z
 ---------------------------------------------------------------------
      1          8           0        0.041242    1.531258   -0.000000
      2          1           0        0.038191    0.548661   -0.000000
      3          1           0       -0.887257    1.852809   -0.000000
      4          8           0        0.041242   -1.351426    0.000000
      5          1           0        0.890672   -1.845367    0.000000
      6          1           0       -0.701479   -1.994755    0.000000
 ---------------------------------------------------------------------

 SCF Done:  E(RHF) =  -152.113820954     A.U. after   10 cycles
 E2 =    -0.5283605573D+00 EUMP2 =    -0.15264218151161D+03
 CCSD(T)
 CCSD(T)= -0.15266904889D+03

 The electronic state is 1-A'.
 Alpha  occ. eigenvalues --  -20.58703 -20.51746  -1.36160  -1.29403  -0.73386
 Alpha  occ. eigenvalues --   -0.68004  -0.59709  -0.53233  -0.52461  -0.46524
 Alpha virt. eigenvalues --    0.11888   0.18191   0.18806   0.31672   0.48686
 Alpha virt. eigenvalues --    0.54715   0.56370   0.61322   0.68835   0.71714
 Alpha virt. eigenvalues --    0.72877   0.77405   0.82390   0.82595   0.84855

 Mulliken charges:
               1
     1  O   -0.565580
     2  H    0.294902
     3  H    0.242430
     4  O   -0.495659
     5  H    0.266354
     6  H    0.257553
 Sum of Mulliken charges =  -0.00000

 Dipole moment (field-independent basis, Debye):
    X=             -1.3654    Y=             -3.7487    Z=              0.0000  Tot=              3.9896
 Quadrupole moment (field-independent basis, Debye-Ang):
   XX=             -9.1454   YY=             -8.6976   ZZ=            -14.7290
   XY=             -3.5239   XZ=              0.0000   YZ=              0.0000

 Normal termination of Gaussian 16 at Fri Aug 26 22:15:09 2022.
