 Gaussian 16, Revision A.03,
 Gaussian 16:  ES64L-G16RevA.03 25-Dec-2016

 ------------------
 #p CCSD(T)/cc-pVTZ
 ------------------

 ------------
 H2O_H2O_2495
 ------------
 Symbolic Z-matrix:
 Charge =  0 Multiplicity = 1

                         Standard orientation:
 ---------------------------------------------------------------------
 Center     Atomic      Atomic             Coordinates (Angstroms)
 Number     Number       Type             X           Y           Z
 ---------------------------------------------------------------------
      1          8           0        0.026684    2.096058   -0.000000
      2          1           0        0.023884    1.113461   -0.000000
      3          1           0       -0.901897    2.417372   -0.000000
      4          8           0        0.026684   -1.922850    0.000000
      5          1           0        0.975076   -2.179869    0.000000
      6          1           0       -0.524016   -2.736629    0.000000
 ---------------------------------------------------------------------

 SCF Done:  E(RHF) =  -152.110963739     A.U. after   10 cycles
 E2 =    -0.5260775811D+00 EUMP2 =    -0.15263704131986D+03
 CCSD(T)
 CCSD(T)= -0.15266414853D+03

 The electronic state is 1-A'.
 Alpha  occ. eigenvalues --  -20.56928 -20.54205  -1.34196  -1.31538  -0.71597
 Alpha  occ. eigenvalues --   -0.68944  -0.57794  -0.55028  -0.51331  -0.48684
 Alpha virt. eigenvalues --    0.12311   0.16446   0.19281   0.24274   0.53217
 Alpha virt. eigenvalues --    0.55495   0.56386   0.58665   0.68966   0.70724
 Alpha virt. eigenvalues --    0.77361   0.78943   0.80167   0.81149   0.83672

 Mulliken charges:
               1
     1  O   -0.524686
     2  H    0.265967
     3  H    0.252874
     4  O   -0.512196
     5  H    0.260230
     6  H    0.257811
 Sum of Mulliken charges =  -0.00000

 Dipole moment (field-independent basis, Debye):
    X=             -0.9093    Y=             -3.1741    Z=              0.0000  Tot=              3.3018
 Quadrupole moment (field-independent basis, Debye-Ang):
   XX=             -9.2885   YY=             -7.7207   ZZ=            -14.7232
   XY=             -5.0636   XZ=              0.0000   YZ=             -0.0000

 Normal termination of Gaussian 16 at Sun Aug 28 07:43:42 2022.
