 Gaussian 16, Revision A.03,
 Gaussian 16:  ES64L-G16RevA.03 25-Dec-2016

 ------------------
 #p CCSD(T)/cc-pVTZ
 ------------------

 ------------
 H2O_H2O_2104
 ------------
 Symbolic Z-matrix:
 Charge =  0 Multiplicity = 1

                         Standard orientation:
 ---------------------------------------------------------------------
 Center     Atomic      Atomic             Coordinates (Angstroms)
 Number     Number       Type             X           Y           Z
 ---------------------------------------------------------------------
      1          8           0        0.082810   -1.936310    0.000000
      2          1           0        0.082347   -0.953709    0.000000
      3          1           0       -0.846533   -2.255415    0.000000
      4          8           0        0.082810    1.781807    0.000000
      5          1           0        0.336679    2.731047    0.000000
      6          1           0       -0.897457    1.714108    0.000000
 ---------------------------------------------------------------------

 SCF Done:  E(RHF) =  -152.110093996     A.U. after   10 cycles
 E2 =    -0.5265094359D+00 EUMP2 =    -0.15263660343141D+03
 CCSD(T)
 CCSD(T)= -0.15266371164D+03

 The electronic state is 1-A'.
 Alpha  occ. eigenvalues --  -20.57235 -20.54403  -1.34515  -1.31729  -0.71972
 Alpha  occ. eigenvalues --   -0.69092  -0.58068  -0.55171  -0.51627  -0.48854
 Alpha virt. eigenvalues --    0.11760   0.16311   0.19709   0.25266   0.52205
 Alpha virt. eigenvalues --    0.55760   0.56471   0.57858   0.68710   0.72834
 Alpha virt. eigenvalues --    0.76492   0.78964   0.80146   0.82460   0.83318

 Mulliken charges:
               1
     1  O   -0.518833
     2  H    0.266309
     3  H    0.245517
     4  O   -0.503045
     5  H    0.259176
     6  H    0.250876
 Sum of Mulliken charges =  -0.00000

 Dipole moment (field-independent basis, Debye):
    X=             -2.7983    Y=              2.8774    Z=              0.0000  Tot=              4.0137
 Quadrupole moment (field-independent basis, Debye-Ang):
   XX=            -10.2721   YY=             -8.4494   ZZ=            -14.7197
   XY=              2.8518   XZ=              0.0000   YZ=              0.0000

 Normal termination of Gaussian 16 at Sun Aug 28 04:20:52 2022.
