 Gaussian 16, Revision A.03,
 Gaussian 16:  ES64L-G16RevA.03 25-Dec-2016

 ------------------
 #p CCSD(T)/cc-pVTZ
 ------------------

 ------------
 H2O_H2O_2837
 ------------
 Symbolic Z-matrix:
 Charge =  0 Multiplicity = 1

                         Standard orientation:
 ---------------------------------------------------------------------
 Center     Atomic      Atomic             Coordinates (Angstroms)
 Number     Number       Type             X           Y           Z
 ---------------------------------------------------------------------
      1          8           0        0.055996    2.238751   -0.000000
      2          1           0        0.054537    1.256151   -0.000000
      3          1           0       -0.873022    2.558798   -0.000000
      4          8           0        0.055996   -2.059851    0.000000
      5          1           0        0.749768   -2.755686    0.000000
      6          1           0       -0.827226   -2.490459    0.000000
 ---------------------------------------------------------------------

 SCF Done:  E(RHF) =  -152.110038985     A.U. after   10 cycles
 E2 =    -0.5259946989D+00 EUMP2 =    -0.15263603368365D+03
 CCSD(T)
 CCSD(T)= -0.15266316723D+03

 The electronic state is 1-A'.
 Alpha  occ. eigenvalues --  -20.56740 -20.54373  -1.34014  -1.31695  -0.71415
 Alpha  occ. eigenvalues --   -0.69085  -0.57565  -0.55179  -0.51144  -0.48831
 Alpha virt. eigenvalues --    0.12399   0.16068   0.19423   0.23057   0.53111
 Alpha virt. eigenvalues --    0.55530   0.56251   0.58779   0.68803   0.69380
 Alpha virt. eigenvalues --    0.77724   0.79083   0.79589   0.80000   0.83325

 Mulliken charges:
               1
     1  O   -0.519405
     2  H    0.265032
     3  H    0.250590
     4  O   -0.512739
     5  H    0.260260
     6  H    0.256261
 Sum of Mulliken charges =   0.00000

 Dipole moment (field-independent basis, Debye):
    X=             -1.9069    Y=             -3.2389    Z=              0.0000  Tot=              3.7586
 Quadrupole moment (field-independent basis, Debye-Ang):
   XX=             -9.2881   YY=             -7.3404   ZZ=            -14.7203
   XY=             -4.2717   XZ=              0.0000   YZ=             -0.0000

 Normal termination of Gaussian 16 at Fri Aug 26 17:40:04 2022.
