 Gaussian 16, Revision A.03,
 Gaussian 16:  ES64L-G16RevA.03 25-Dec-2016

 ------------------
 #p CCSD(T)/cc-pVTZ
 ------------------

 ------------
 H2O_H2O_1946
 ------------
 Symbolic Z-matrix:
 Charge =  0 Multiplicity = 1

                         Standard orientation:
 ---------------------------------------------------------------------
 Center     Atomic      Atomic             Coordinates (Angstroms)
 Number     Number       Type             X           Y           Z
 ---------------------------------------------------------------------
      1          8           0       -0.023269    1.875128    0.000000
      2          1           0       -0.019963    0.892532    0.000000
      3          1           0        0.905146    2.196920    0.000000
      4          8           0       -0.023269   -1.704774    0.000000
      5          1           0       -0.986341   -1.899712    0.000000
      6          1           0        0.473465   -2.552571    0.000000
 ---------------------------------------------------------------------

 SCF Done:  E(RHF) =  -152.112398815     A.U. after   10 cycles
 E2 =    -0.5264425906D+00 EUMP2 =    -0.15263884140536D+03
 CCSD(T)
 CCSD(T)= -0.15266590311D+03

 The electronic state is 1-A'.
 Alpha  occ. eigenvalues --  -20.57375 -20.53766  -1.34642  -1.31131  -0.72047
 Alpha  occ. eigenvalues --   -0.68573  -0.58344  -0.54584  -0.51777  -0.48286
 Alpha virt. eigenvalues --    0.12224   0.17053   0.19167   0.26543   0.52279
 Alpha virt. eigenvalues --    0.54571   0.56110   0.59102   0.68968   0.72839
 Alpha virt. eigenvalues --    0.76016   0.78110   0.80688   0.83392   0.84210

 Mulliken charges:
               1
     1  O   -0.532174
     2  H    0.268547
     3  H    0.252516
     4  O   -0.509094
     5  H    0.261851
     6  H    0.258354
 Sum of Mulliken charges =   0.00000

 Dipole moment (field-independent basis, Debye):
    X=              0.7913    Y=             -3.2146    Z=              0.0000  Tot=              3.3105
 Quadrupole moment (field-independent basis, Debye-Ang):
   XX=             -9.3627   YY=             -8.1094   ZZ=            -14.7290
   XY=              4.6672   XZ=              0.0000   YZ=              0.0000

 Normal termination of Gaussian 16 at Sun Aug 28 03:03:30 2022.
