 Gaussian 16, Revision A.03,
 Gaussian 16:  ES64L-G16RevA.03 25-Dec-2016

 ------------------
 #p CCSD(T)/cc-pVTZ
 ------------------

 ------------
 H2O_H2O_4998
 ------------
 Symbolic Z-matrix:
 Charge =  0 Multiplicity = 1

                         Standard orientation:
 ---------------------------------------------------------------------
 Center     Atomic      Atomic             Coordinates (Angstroms)
 Number     Number       Type             X           Y           Z
 ---------------------------------------------------------------------
      1          8           0       -0.016568    3.087928    0.000000
      2          1           0       -0.014413    2.105329    0.000000
      3          1           0        0.912224    3.408632    0.000000
      4          8           0       -0.016568   -2.924515    0.000000
      5          1           0       -0.996922   -2.990928    0.000000
      6          1           0        0.364196   -3.830343    0.000000
 ---------------------------------------------------------------------

 SCF Done:  E(RHF) =  -152.108234225     A.U. after   10 cycles
 E2 =    -0.5258013353D+00 EUMP2 =    -0.15263403556057D+03
 CCSD(T)
 CCSD(T)= -0.15266123923D+03

 The electronic state is 1-A'.
 Alpha  occ. eigenvalues --  -20.56104 -20.55144  -1.33407  -1.32449  -0.70813
 Alpha  occ. eigenvalues --   -0.69856  -0.56891  -0.55919  -0.50525  -0.49571
 Alpha virt. eigenvalues --    0.13485   0.14698   0.19580   0.20962   0.53640
 Alpha virt. eigenvalues --    0.54761   0.56725   0.57695   0.67094   0.68388
 Alpha virt. eigenvalues --    0.78357   0.79291   0.79749   0.80723   0.81909

 Mulliken charges:
               1
     1  O   -0.513398
     2  H    0.258566
     3  H    0.254807
     4  O   -0.513820
     5  H    0.256570
     6  H    0.257275
 Sum of Mulliken charges =  -0.00000

 Dipole moment (field-independent basis, Debye):
    X=              0.5701    Y=             -2.8568    Z=              0.0000  Tot=              2.9131
 Quadrupole moment (field-independent basis, Debye-Ang):
   XX=             -9.5443   YY=             -7.0063   ZZ=            -14.7142
   XY=              8.1087   XZ=              0.0000   YZ=              0.0000

 Normal termination of Gaussian 16 at Sun Aug 28 07:33:39 2022.
