 Gaussian 16, Revision A.03,
 Gaussian 16:  ES64L-G16RevA.03 25-Dec-2016

 ------------------
 #p CCSD(T)/cc-pVTZ
 ------------------

 ------------
 H2O_H2O_1084
 ------------
 Symbolic Z-matrix:
 Charge =  0 Multiplicity = 1

                         Standard orientation:
 ---------------------------------------------------------------------
 Center     Atomic      Atomic             Coordinates (Angstroms)
 Number     Number       Type             X           Y           Z
 ---------------------------------------------------------------------
      1          8           0        0.066809    1.537529    0.000000
      2          1           0        0.065277    0.554929    0.000000
      3          1           0       -0.862186    1.857644   -0.000000
      4          8           0        0.066809   -1.364500    0.000000
      5          1           0        0.611438   -2.182353    0.000000
      6          1           0       -0.883470   -1.614455   -0.000000
 ---------------------------------------------------------------------

 SCF Done:  E(RHF) =  -152.112560711     A.U. after   10 cycles
 E2 =    -0.5284882646D+00 EUMP2 =    -0.15264104897550D+03
 CCSD(T)
 CCSD(T)= -0.15266794316D+03

 The electronic state is 1-A'.
 Alpha  occ. eigenvalues --  -20.58649 -20.52196  -1.36112  -1.29797  -0.73486
 Alpha  occ. eigenvalues --   -0.68080  -0.59600  -0.53165  -0.52912  -0.46903
 Alpha virt. eigenvalues --    0.11725   0.17316   0.19437   0.31219   0.48414
 Alpha virt. eigenvalues --    0.54704   0.58139   0.59390   0.69802   0.72859
 Alpha virt. eigenvalues --    0.73268   0.76716   0.82076   0.82377   0.84476

 Mulliken charges:
               1
     1  O   -0.554779
     2  H    0.292307
     3  H    0.236801
     4  O   -0.482700
     5  H    0.255515
     6  H    0.252855
 Sum of Mulliken charges =   0.00000

 Dipole moment (field-independent basis, Debye):
    X=             -2.2078    Y=             -3.5865    Z=             -0.0000  Tot=              4.2116
 Quadrupole moment (field-independent basis, Debye-Ang):
   XX=             -9.5848   YY=             -8.6974   ZZ=            -14.7226
   XY=             -3.1651   XZ=              0.0000   YZ=             -0.0000

 Normal termination of Gaussian 16 at Fri Aug 26 22:21:46 2022.
