 Gaussian 16, Revision A.03,
 Gaussian 16:  ES64L-G16RevA.03 25-Dec-2016

 ------------------
 #p CCSD(T)/cc-pVTZ
 ------------------

 ------------
 H2O_H2O_3730
 ------------
 Symbolic Z-matrix:
 Charge =  0 Multiplicity = 1

                         Standard orientation:
 ---------------------------------------------------------------------
 Center     Atomic      Atomic             Coordinates (Angstroms)
 Number     Number       Type             X           Y           Z
 ---------------------------------------------------------------------
      1          8           0        0.079848    2.586965    0.000000
      2          1           0        0.079405    1.604364    0.000000
      3          1           0       -0.849501    2.906051    0.000000
      4          8           0        0.079848   -2.427896   -0.000000
      5          1           0        0.395276   -3.358494   -0.000000
      6          1           0       -0.902747   -2.424474   -0.000000
 ---------------------------------------------------------------------

 SCF Done:  E(RHF) =  -152.108327848     A.U. after   10 cycles
 E2 =    -0.5258903668D+00 EUMP2 =    -0.15263421821482D+03
 CCSD(T)
 CCSD(T)= -0.15266140886D+03

 The electronic state is 1-A'.
 Alpha  occ. eigenvalues --  -20.56378 -20.54981  -1.33676  -1.32288  -0.71089
 Alpha  occ. eigenvalues --   -0.69680  -0.57159  -0.55752  -0.50791  -0.49407
 Alpha virt. eigenvalues --    0.12504   0.15238   0.19295   0.21792   0.53251
 Alpha virt. eigenvalues --    0.55050   0.56474   0.57969   0.66773   0.69070
 Alpha virt. eigenvalues --    0.78110   0.78804   0.79450   0.80768   0.82696

 Mulliken charges:
               1
     1  O   -0.512293
     2  H    0.260394
     3  H    0.251272
     4  O   -0.512788
     5  H    0.259600
     6  H    0.253814
 Sum of Mulliken charges =  -0.00000

 Dipole moment (field-independent basis, Debye):
    X=             -2.7308    Y=             -2.8171    Z=              0.0000  Tot=              3.9235
 Quadrupole moment (field-independent basis, Debye-Ang):
   XX=            -10.0972   YY=             -7.7690   ZZ=            -14.7143
   XY=             -3.3130   XZ=             -0.0000   YZ=              0.0000

 CCSD(T)=-152.6614089\RMSD=7.191e-09\PG=CS [SG(H4O2)]\\@
 Normal termination of Gaussian 16 at Fri Aug 26 23:21:15 2022.
