 Gaussian 16, Revision A.03,
 Gaussian 16:  ES64L-G16RevA.03 25-Dec-2016

 ------------------
 #p CCSD(T)/cc-pVTZ
 ------------------

 ------------
 H2O_H2O_2501
 ------------
 Symbolic Z-matrix:
 Charge =  0 Multiplicity = 1

                         Standard orientation:
 ---------------------------------------------------------------------
 Center     Atomic      Atomic             Coordinates (Angstroms)
 Number     Number       Type             X           Y           Z
 ---------------------------------------------------------------------
      1          8           0        0.090685   -2.087280    0.000000
      2          1           0        0.090590   -1.104679    0.000000
      3          1           0       -0.838777   -2.406037    0.000000
      4          8           0        0.090685    1.948574    0.000000
      5          1           0        0.154856    2.929077    0.000000
      6          1           0       -0.857634    1.691289    0.000000
 ---------------------------------------------------------------------

 SCF Done:  E(RHF) =  -152.108675804     A.U. after   10 cycles
 E2 =    -0.5262860635D+00 EUMP2 =    -0.15263496186801D+03
 CCSD(T)
 CCSD(T)= -0.15266211747D+03

 The electronic state is 1-A'.
 Alpha  occ. eigenvalues --  -20.56924 -20.54930  -1.34213  -1.32235  -0.71670
 Alpha  occ. eigenvalues --   -0.69595  -0.57698  -0.55681  -0.51320  -0.49350
 Alpha virt. eigenvalues --    0.11524   0.15882   0.19769   0.24064   0.53616
 Alpha virt. eigenvalues --    0.55600   0.56515   0.57861   0.68433   0.70857
 Alpha virt. eigenvalues --    0.77340   0.79017   0.79588   0.80237   0.83186

 Mulliken charges:
               1
     1  O   -0.513123
     2  H    0.262837
     3  H    0.247300
     4  O   -0.504867
     5  H    0.259294
     6  H    0.248560
 Sum of Mulliken charges =  -0.00000

 Dipole moment (field-independent basis, Debye):
    X=             -3.0752    Y=              2.5290    Z=              0.0000  Tot=              3.9815
 Quadrupole moment (field-independent basis, Debye-Ang):
   XX=            -10.7226   YY=             -8.9394   ZZ=            -14.7143
   XY=              2.3448   XZ=              0.0000   YZ=              0.0000

 Normal termination of Gaussian 16 at Fri Aug 26 15:12:07 2022.
