 Gaussian 16, Revision A.03,
 Gaussian 16:  ES64L-G16RevA.03 25-Dec-2016

 ------------------
 #p CCSD(T)/cc-pVTZ
 ------------------

 ------------
 H2O_H2O_1111
 ------------
 Symbolic Z-matrix:
 Charge =  0 Multiplicity = 1

                         Standard orientation:
 ---------------------------------------------------------------------
 Center     Atomic      Atomic             Coordinates (Angstroms)
 Number     Number       Type             X           Y           Z
 ---------------------------------------------------------------------
      1          8           0        0.059703    1.549855   -0.000000
      2          1           0        0.057768    0.567256   -0.000000
      3          1           0       -0.869161    1.870352   -0.000000
      4          8           0        0.059703   -1.372494    0.000000
      5          1           0        0.706121   -2.112527    0.000000
      6          1           0       -0.849972   -1.743974    0.000000
 ---------------------------------------------------------------------

 SCF Done:  E(RHF) =  -152.113312719     A.U. after   10 cycles
 E2 =    -0.5283069877D+00 EUMP2 =    -0.15264161970676D+03
 CCSD(T)
 CCSD(T)= -0.15266851606D+03

 The electronic state is 1-A'.
 Alpha  occ. eigenvalues --  -20.58612 -20.52088  -1.36043  -1.29690  -0.73337
 Alpha  occ. eigenvalues --   -0.68023  -0.59603  -0.53116  -0.52812  -0.46805
 Alpha virt. eigenvalues --    0.11798   0.17571   0.19228   0.31228   0.48511
 Alpha virt. eigenvalues --    0.54761   0.57385   0.59755   0.69785   0.72185
 Alpha virt. eigenvalues --    0.72968   0.76934   0.82267   0.82467   0.84733

 Mulliken charges:
               1
     1  O   -0.556656
     2  H    0.292619
     3  H    0.238693
     4  O   -0.491951
     5  H    0.261469
     6  H    0.255827
 Sum of Mulliken charges =  -0.00000

 Dipole moment (field-independent basis, Debye):
    X=             -1.9759    Y=             -3.6620    Z=              0.0000  Tot=              4.1611
 Quadrupole moment (field-independent basis, Debye-Ang):
   XX=             -9.3764   YY=             -8.6515   ZZ=            -14.7273
   XY=             -3.3091   XZ=              0.0000   YZ=             -0.0000

 Normal termination of Gaussian 16 at Fri Aug 26 22:31:53 2022.
