 Gaussian 16, Revision A.03,
 Gaussian 16:  ES64L-G16RevA.03 25-Dec-2016

 ------------------
 #p CCSD(T)/cc-pVTZ
 ------------------

 ------------
 H2O_H2O_3959
 ------------
 Symbolic Z-matrix:
 Charge =  0 Multiplicity = 1

                         Standard orientation:
 ---------------------------------------------------------------------
 Center     Atomic      Atomic             Coordinates (Angstroms)
 Number     Number       Type             X           Y           Z
 ---------------------------------------------------------------------
      1          8           0        0.066749    2.684346   -0.000000
      2          1           0        0.065893    1.701745   -0.000000
      3          1           0       -0.862466    3.003822   -0.000000
      4          8           0        0.066749   -2.511225    0.000000
      5          1           0        0.611942   -3.328703    0.000000
      6          1           0       -0.883356   -2.761835    0.000000
 ---------------------------------------------------------------------

 SCF Done:  E(RHF) =  -152.108512661     A.U. after   10 cycles
 E2 =    -0.5258461058D+00 EUMP2 =    -0.15263435876642D+03
 CCSD(T)
 CCSD(T)= -0.15266154833D+03

 The electronic state is 1-A'.
 Alpha  occ. eigenvalues --  -20.56309 -20.54887  -1.33607  -1.32195  -0.71015
 Alpha  occ. eigenvalues --   -0.69591  -0.57102  -0.55665  -0.50726  -0.49318
 Alpha virt. eigenvalues --    0.12935   0.15164   0.19527   0.21380   0.53403
 Alpha virt. eigenvalues --    0.54970   0.56544   0.57863   0.66691   0.69065
 Alpha virt. eigenvalues --    0.78170   0.79078   0.79535   0.80209   0.82805

 Mulliken charges:
               1
     1  O   -0.513647
     2  H    0.261131
     3  H    0.252051
     4  O   -0.514304
     5  H    0.259367
     6  H    0.255402
 Sum of Mulliken charges =  -0.00000

 Dipole moment (field-independent basis, Debye):
    X=             -2.2851    Y=             -3.0572    Z=              0.0000  Tot=              3.8169
 Quadrupole moment (field-independent basis, Debye-Ang):
   XX=             -9.5612   YY=             -6.9374   ZZ=            -14.7151
   XY=             -4.2366   XZ=              0.0000   YZ=             -0.0000

 Normal termination of Gaussian 16 at Sat Aug 27 00:41:34 2022.
