 Gaussian 16, Revision A.03,
 Gaussian 16:  ES64L-G16RevA.03 25-Dec-2016

 ------------------
 #p CCSD(T)/cc-pVTZ
 ------------------

 ------------
 H2O_H2O_3818
 ------------
 Symbolic Z-matrix:
 Charge =  0 Multiplicity = 1

                         Standard orientation:
 ---------------------------------------------------------------------
 Center     Atomic      Atomic             Coordinates (Angstroms)
 Number     Number       Type             X           Y           Z
 ---------------------------------------------------------------------
      1          8           0        0.033769    2.626919    0.000000
      2          1           0        0.031790    1.644319    0.000000
      3          1           0       -0.895081    2.947456    0.000000
      4          8           0        0.033769   -2.449379   -0.000000
      5          1           0        0.940816   -2.827232   -0.000000
      6          1           0       -0.617824   -3.184860   -0.000000
 ---------------------------------------------------------------------

 SCF Done:  E(RHF) =  -152.108952742     A.U. after   10 cycles
 E2 =    -0.5258217682D+00 EUMP2 =    -0.15263477450982D+03
 CCSD(T)
 CCSD(T)= -0.15266195321D+03

 The electronic state is 1-A'.
 Alpha  occ. eigenvalues --  -20.56336 -20.54777  -1.33632  -1.32089  -0.71035
 Alpha  occ. eigenvalues --   -0.69491  -0.57145  -0.55570  -0.50755  -0.49218
 Alpha virt. eigenvalues --    0.12946   0.15321   0.19566   0.21527   0.53444
 Alpha virt. eigenvalues --    0.55031   0.56572   0.57872   0.66723   0.69188
 Alpha virt. eigenvalues --    0.78142   0.79093   0.79626   0.79913   0.82929

 Mulliken charges:
               1
     1  O   -0.516153
     2  H    0.261887
     3  H    0.253584
     4  O   -0.516065
     5  H    0.258843
     6  H    0.257904
 Sum of Mulliken charges =  -0.00000

 Dipole moment (field-independent basis, Debye):
    X=             -1.1562    Y=             -3.1416    Z=             -0.0000  Tot=              3.3476
 Quadrupole moment (field-independent basis, Debye-Ang):
   XX=             -9.1862   YY=             -6.7905   ZZ=            -14.7167
   XY=             -5.8918   XZ=             -0.0000   YZ=              0.0000

 CCSD(T)=-152.6619532\RMSD=7.048e-09\PG=CS [SG(H4O2)]\\@
 Normal termination of Gaussian 16 at Fri Aug 26 23:51:30 2022.
