 Gaussian 16, Revision A.03,
 Gaussian 16:  ES64L-G16RevA.03 25-Dec-2016

 ------------------
 #p CCSD(T)/cc-pVTZ
 ------------------

 ------------
 H2O_H2O_1462
 ------------
 Symbolic Z-matrix:
 Charge =  0 Multiplicity = 1

                         Standard orientation:
 ---------------------------------------------------------------------
 Center     Atomic      Atomic             Coordinates (Angstroms)
 Number     Number       Type             X           Y           Z
 ---------------------------------------------------------------------
      1          8           0        0.056042    1.690267   -0.000000
      2          1           0        0.054082    0.707667   -0.000000
      3          1           0       -0.872814    2.010786   -0.000000
      4          8           0        0.056042   -1.511424    0.000000
      5          1           0        0.749460   -2.207613    0.000000
      6          1           0       -0.827400   -1.941582    0.000000
 ---------------------------------------------------------------------

 SCF Done:  E(RHF) =  -152.113642085     A.U. after   10 cycles
 E2 =    -0.5272595957D+00 EUMP2 =    -0.15264090168069D+03
 CCSD(T)
 CCSD(T)= -0.15266789572D+03

 The electronic state is 1-A'.
 Alpha  occ. eigenvalues --  -20.58014 -20.52915  -1.35307  -1.30365  -0.72653
 Alpha  occ. eigenvalues --   -0.68037  -0.59097  -0.53693  -0.52431  -0.47509
 Alpha virt. eigenvalues --    0.11989   0.17459   0.19093   0.29165   0.49578
 Alpha virt. eigenvalues --    0.54885   0.56348   0.59344   0.69363   0.72127
 Alpha virt. eigenvalues --    0.74167   0.76718   0.81558   0.82962   0.84757

 Mulliken charges:
               1
     1  O   -0.541059
     2  H    0.279173
     3  H    0.243871
     4  O   -0.503976
     5  H    0.264355
     6  H    0.257636
 Sum of Mulliken charges =  -0.00000

 Dipole moment (field-independent basis, Debye):
    X=             -1.8755    Y=             -3.5206    Z=              0.0000  Tot=              3.9890
 Quadrupole moment (field-independent basis, Debye-Ang):
   XX=             -9.2971   YY=             -8.3154   ZZ=            -14.7339
   XY=             -3.5583   XZ=              0.0000   YZ=             -0.0000

 CCSD(T)=-152.6678957\RMSD=6.742e-09\PG=CS [SG(H4O2)]\\@
 Normal termination of Gaussian 16 at Sat Aug 27 00:43:52 2022.
