 Gaussian 16, Revision A.03,
 Gaussian 16:  ES64L-G16RevA.03 25-Dec-2016

 ------------------
 #p CCSD(T)/cc-pVTZ
 ------------------

 ------------
 H2O_H2O_1393
 ------------
 Symbolic Z-matrix:
 Charge =  0 Multiplicity = 1

                         Standard orientation:
 ---------------------------------------------------------------------
 Center     Atomic      Atomic             Coordinates (Angstroms)
 Number     Number       Type             X           Y           Z
 ---------------------------------------------------------------------
      1          8           0        0.033879    1.659603   -0.000000
      2          1           0        0.030682    0.677006   -0.000000
      3          1           0       -0.894573    1.981291   -0.000000
      4          8           0        0.033879   -1.482147    0.000000
      5          1           0        0.940457   -1.861123    0.000000
      6          1           0       -0.618627   -2.216819    0.000000
 ---------------------------------------------------------------------

 SCF Done:  E(RHF) =  -152.114135498     A.U. after   10 cycles
 E2 =    -0.5273350510D+00 EUMP2 =    -0.15264147054944D+03
 CCSD(T)
 CCSD(T)= -0.15266844556D+03

 The electronic state is 1-A'.
 Alpha  occ. eigenvalues --  -20.58097 -20.52722  -1.35413  -1.30203  -0.72757
 Alpha  occ. eigenvalues --   -0.67963  -0.59249  -0.53496  -0.52535  -0.47354
 Alpha virt. eigenvalues --    0.12086   0.17868   0.18862   0.29690   0.49958
 Alpha virt. eigenvalues --    0.54409   0.55914   0.60478   0.68749   0.72330
 Alpha virt. eigenvalues --    0.73877   0.77032   0.81731   0.82893   0.84758

 Mulliken charges:
               1
     1  O   -0.548273
     2  H    0.280639
     3  H    0.247884
     4  O   -0.503910
     5  H    0.265483
     6  H    0.258176
 Sum of Mulliken charges =  -0.00000

 Dipole moment (field-independent basis, Debye):
    X=             -1.1356    Y=             -3.5252    Z=              0.0000  Tot=              3.7036
 Quadrupole moment (field-independent basis, Debye-Ang):
   XX=             -9.1857   YY=             -8.3939   ZZ=            -14.7349
   XY=             -3.8990   XZ=              0.0000   YZ=             -0.0000

 CCSD(T)=-152.6684456\RMSD=6.505e-09\PG=CS [SG(H4O2)]\\@
 Normal termination of Gaussian 16 at Sat Aug 27 00:18:45 2022.
