 Gaussian 16, Revision A.03,
 Gaussian 16:  ES64L-G16RevA.03 25-Dec-2016

 ------------------
 #p CCSD(T)/cc-pVTZ
 ------------------

 ------------
 H2O_H2O_3808
 ------------
 Symbolic Z-matrix:
 Charge =  0 Multiplicity = 1

                         Standard orientation:
 ---------------------------------------------------------------------
 Center     Atomic      Atomic             Coordinates (Angstroms)
 Number     Number       Type             X           Y           Z
 ---------------------------------------------------------------------
      1          8           0        0.070190    2.622959   -0.000000
      2          1           0        0.069429    1.640358   -0.000000
      3          1           0       -0.859056    2.942345   -0.000000
      4          8           0        0.070190   -2.452701    0.000000
      5          1           0        0.560832   -3.304039    0.000000
      6          1           0       -0.894253   -2.640727    0.000000
 ---------------------------------------------------------------------

 SCF Done:  E(RHF) =  -152.108544385     A.U. after   10 cycles
 E2 =    -0.5258625616D+00 EUMP2 =    -0.15263440694683D+03
 CCSD(T)
 CCSD(T)= -0.15266159364D+03

 The electronic state is 1-A'.
 Alpha  occ. eigenvalues --  -20.56352 -20.54877  -1.33648  -1.32186  -0.71057
 Alpha  occ. eigenvalues --   -0.69580  -0.57142  -0.55655  -0.50767  -0.49308
 Alpha virt. eigenvalues --    0.12777   0.15242   0.19468   0.21533   0.53340
 Alpha virt. eigenvalues --    0.55018   0.56506   0.57919   0.66729   0.69129
 Alpha virt. eigenvalues --    0.78132   0.78916   0.79543   0.80303   0.82814

 Mulliken charges:
               1
     1  O   -0.513560
     2  H    0.261217
     3  H    0.251718
     4  O   -0.514015
     5  H    0.259576
     6  H    0.255064
 Sum of Mulliken charges =  -0.00000

 Dipole moment (field-independent basis, Debye):
    X=             -2.4015    Y=             -3.0130    Z=             -0.0000  Tot=              3.8529
 Quadrupole moment (field-independent basis, Debye-Ang):
   XX=             -9.6810   YY=             -7.1613   ZZ=            -14.7152
   XY=             -3.9763   XZ=              0.0000   YZ=             -0.0000

 CCSD(T)=-152.6615936\RMSD=7.142e-09\PG=CS [SG(H4O2)]\\@
 Normal termination of Gaussian 16 at Fri Aug 26 23:47:35 2022.
