 Gaussian 16, Revision A.03,
 Gaussian 16:  ES64L-G16RevA.03 25-Dec-2016

 ------------------
 #p CCSD(T)/cc-pVTZ
 ------------------

 ------------
 H2O_H2O_3917
 ------------
 Symbolic Z-matrix:
 Charge =  0 Multiplicity = 1

                         Standard orientation:
 ---------------------------------------------------------------------
 Center     Atomic      Atomic             Coordinates (Angstroms)
 Number     Number       Type             X           Y           Z
 ---------------------------------------------------------------------
      1          8           0        0.037423    2.667590    0.000000
      2          1           0        0.035596    1.684990    0.000000
      3          1           0       -0.891476    2.987985    0.000000
      4          8           0        0.037423   -2.488607   -0.000000
      5          1           0        0.917882   -2.924839   -0.000000
      6          1           0       -0.660772   -3.180003   -0.000000
 ---------------------------------------------------------------------

 SCF Done:  E(RHF) =  -152.108860341     A.U. after   10 cycles
 E2 =    -0.5258180066D+00 EUMP2 =    -0.15263467834775D+03
 CCSD(T)
 CCSD(T)= -0.15266186033D+03

 The electronic state is 1-A'.
 Alpha  occ. eigenvalues --  -20.56310 -20.54796  -1.33607  -1.32107  -0.71010
 Alpha  occ. eigenvalues --   -0.69508  -0.57117  -0.55586  -0.50730  -0.49235
 Alpha virt. eigenvalues --    0.13026   0.15258   0.19606   0.21415   0.53501
 Alpha virt. eigenvalues --    0.54971   0.56584   0.57849   0.66689   0.69142
 Alpha virt. eigenvalues --    0.78165   0.79247   0.79611   0.79823   0.82907

 Mulliken charges:
               1
     1  O   -0.515746
     2  H    0.261765
     3  H    0.253423
     4  O   -0.515915
     5  H    0.258857
     6  H    0.257616
 Sum of Mulliken charges =   0.00000

 Dipole moment (field-independent basis, Debye):
    X=             -1.2815    Y=             -3.1628    Z=             -0.0000  Tot=              3.4125
 Quadrupole moment (field-independent basis, Debye-Ang):
   XX=             -9.1592   YY=             -6.6613   ZZ=            -14.7164
   XY=             -5.7808   XZ=             -0.0000   YZ=              0.0000

 CCSD(T)=-152.6618603\RMSD=7.067e-09\PG=CS [SG(H4O2)]\\@
 Normal termination of Gaussian 16 at Sat Aug 27 00:27:29 2022.
