 Gaussian 16, Revision A.03,
 Gaussian 16:  ES64L-G16RevA.03 25-Dec-2016

 ------------------
 #p CCSD(T)/cc-pVTZ
 ------------------

 ------------
 H2O_H2O_2984
 ------------
 Symbolic Z-matrix:
 Charge =  0 Multiplicity = 1

                         Standard orientation:
 ---------------------------------------------------------------------
 Center     Atomic      Atomic             Coordinates (Angstroms)
 Number     Number       Type             X           Y           Z
 ---------------------------------------------------------------------
      1          8           0        0.066762    2.295431    0.000000
      2          1           0        0.065756    1.312830    0.000000
      3          1           0       -0.862404    2.615049    0.000000
      4          8           0        0.066762   -2.122330   -0.000000
      5          1           0        0.611830   -2.939892   -0.000000
      6          1           0       -0.883382   -2.372794   -0.000000
 ---------------------------------------------------------------------

 SCF Done:  E(RHF) =  -152.109502489     A.U. after   10 cycles
 E2 =    -0.5259811223D+00 EUMP2 =    -0.15263548361174D+03
 CCSD(T)
 CCSD(T)= -0.15266263194D+03

 The electronic state is 1-A'.
 Alpha  occ. eigenvalues --  -20.56664 -20.54546  -1.33944  -1.31863  -0.71352
 Alpha  occ. eigenvalues --   -0.69250  -0.57471  -0.55340  -0.51069  -0.48993
 Alpha virt. eigenvalues --    0.12332   0.15869   0.19441   0.22682   0.53437
 Alpha virt. eigenvalues --    0.55329   0.56286   0.58566   0.68209   0.69332
 Alpha virt. eigenvalues --    0.77822   0.78945   0.79845   0.79864   0.83123

 Mulliken charges:
               1
     1  O   -0.516943
     2  H    0.263872
     3  H    0.250226
     4  O   -0.512482
     5  H    0.260116
     6  H    0.255210
 Sum of Mulliken charges =  -0.00000

 Dipole moment (field-independent basis, Debye):
    X=             -2.2752    Y=             -3.1181    Z=             -0.0000  Tot=              3.8599
 Quadrupole moment (field-independent basis, Debye-Ang):
   XX=             -9.5656   YY=             -7.4609   ZZ=            -14.7184
   XY=             -3.8815   XZ=             -0.0000   YZ=              0.0000

 Normal termination of Gaussian 16 at Fri Aug 26 18:59:53 2022.
