 Gaussian 16, Revision A.03,
 Gaussian 16:  ES64L-G16RevA.03 25-Dec-2016

 ------------------
 #p CCSD(T)/cc-pVTZ
 ------------------

 ------------
 H2O_H2O_3673
 ------------
 Symbolic Z-matrix:
 Charge =  0 Multiplicity = 1

                         Standard orientation:
 ---------------------------------------------------------------------
 Center     Atomic      Atomic             Coordinates (Angstroms)
 Number     Number       Type             X           Y           Z
 ---------------------------------------------------------------------
      1          8           0       -0.016606    2.559410    0.000000
      2          1           0       -0.013992    1.576812    0.000000
      3          1           0        0.912036    2.880547    0.000000
      4          8           0       -0.016606   -2.396011    0.000000
      5          1           0       -0.996930   -2.462884    0.000000
      6          1           0        0.364580   -3.301662    0.000000
 ---------------------------------------------------------------------

 SCF Done:  E(RHF) =  -152.108989516     A.U. after   10 cycles
 E2 =    -0.5258292790D+00 EUMP2 =    -0.15263481879485D+03
 CCSD(T)
 CCSD(T)= -0.15266199599D+03

 The electronic state is 1-A'.
 Alpha  occ. eigenvalues --  -20.56371 -20.54867  -1.33668  -1.32179  -0.71075
 Alpha  occ. eigenvalues --   -0.69586  -0.57180  -0.55661  -0.50791  -0.49308
 Alpha virt. eigenvalues --    0.12641   0.15387   0.19275   0.22011   0.53257
 Alpha virt. eigenvalues --    0.55266   0.56575   0.57904   0.66804   0.69175
 Alpha virt. eigenvalues --    0.78107   0.78796   0.79537   0.80654   0.82861

 Mulliken charges:
               1
     1  O   -0.516571
     2  H    0.260991
     3  H    0.254794
     4  O   -0.516020
     5  H    0.257899
     6  H    0.258907
 Sum of Mulliken charges =  -0.00000

 Dipole moment (field-independent basis, Debye):
    X=              0.5706    Y=             -2.8956    Z=              0.0000  Tot=              2.9513
 Quadrupole moment (field-independent basis, Debye-Ang):
   XX=             -9.5428   YY=             -7.5489   ZZ=            -14.7167
   XY=              6.7184   XZ=              0.0000   YZ=              0.0000

 Normal termination of Gaussian 16 at Fri Aug 26 23:01:40 2022.
