 Gaussian 16, Revision A.03,
 Gaussian 16:  ES64L-G16RevA.03 25-Dec-2016

 ------------------
 #p CCSD(T)/cc-pVTZ
 ------------------

 ------------
 H2O_H2O_4689
 ------------
 Symbolic Z-matrix:
 Charge =  0 Multiplicity = 1

                         Standard orientation:
 ---------------------------------------------------------------------
 Center     Atomic      Atomic             Coordinates (Angstroms)
 Number     Number       Type             X           Y           Z
 ---------------------------------------------------------------------
      1          8           0        0.048550    2.977500    0.000000
      2          1           0        0.047245    1.994899    0.000000
      3          1           0       -0.880519    3.297400    0.000000
      4          8           0        0.048550   -2.797076   -0.000000
      5          1           0        0.827305   -3.396281   -0.000000
      6          1           0       -0.770826   -3.339413   -0.000000
 ---------------------------------------------------------------------

 SCF Done:  E(RHF) =  -152.108330276     A.U. after   10 cycles
 E2 =    -0.5258080774D+00 EUMP2 =    -0.15263413835348D+03
 CCSD(T)
 CCSD(T)= -0.15266133827D+03

 The electronic state is 1-A'.
 Alpha  occ. eigenvalues --  -20.56154 -20.54981  -1.33455  -1.32288  -0.70860
 Alpha  occ. eigenvalues --   -0.69690  -0.56945  -0.55758  -0.50574  -0.49410
 Alpha virt. eigenvalues --    0.13448   0.14857   0.19721   0.20970   0.53692
 Alpha virt. eigenvalues --    0.54829   0.56688   0.57787   0.66936   0.68646
 Alpha virt. eigenvalues --    0.78311   0.79448   0.79719   0.80295   0.82521

 Mulliken charges:
               1
     1  O   -0.513509
     2  H    0.260072
     3  H    0.253360
     4  O   -0.514228
     5  H    0.258028
     6  H    0.256276
 Sum of Mulliken charges =  -0.00000

 Dipole moment (field-independent basis, Debye):
    X=             -1.6658    Y=             -3.1624    Z=             -0.0000  Tot=              3.5743
 Quadrupole moment (field-independent basis, Debye-Ang):
   XX=             -9.1821   YY=             -6.0928   ZZ=            -14.7145
   XY=             -5.6835   XZ=             -0.0000   YZ=              0.0000

 Normal termination of Gaussian 16 at Sun Aug 28 05:05:54 2022.
