 Gaussian 16, Revision A.03,
 Gaussian 16:  ES64L-G16RevA.03 25-Dec-2016

 ------------------
 #p CCSD(T)/cc-pVTZ
 ------------------

 ------------
 H2O_H2O_3652
 ------------
 Symbolic Z-matrix:
 Charge =  0 Multiplicity = 1

                         Standard orientation:
 ---------------------------------------------------------------------
 Center     Atomic      Atomic             Coordinates (Angstroms)
 Number     Number       Type             X           Y           Z
 ---------------------------------------------------------------------
      1          8           0        0.088231   -2.549039    0.000000
      2          1           0        0.088069   -1.566438    0.000000
      3          1           0       -0.841210   -2.867859    0.000000
      4          8           0        0.088231    2.404717    0.000000
      5          1           0        0.216325    3.378933    0.000000
      6          1           0       -0.874873    2.209941    0.000000
 ---------------------------------------------------------------------

 SCF Done:  E(RHF) =  -152.108033074     A.U. after   10 cycles
 E2 =    -0.5259246972D+00 EUMP2 =    -0.15263395777085D+03
 CCSD(T)
 CCSD(T)= -0.15266115482D+03

 The electronic state is 1-A'.
 Alpha  occ. eigenvalues --  -20.56406 -20.55130  -1.33705  -1.32434  -0.71124
 Alpha  occ. eigenvalues --   -0.69825  -0.57176  -0.55891  -0.50816  -0.49550
 Alpha virt. eigenvalues --    0.12131   0.15227   0.19091   0.22246   0.53271
 Alpha virt. eigenvalues --    0.54994   0.56463   0.57973   0.66844   0.68944
 Alpha virt. eigenvalues --    0.78087   0.78784   0.79316   0.81235   0.82523

 Mulliken charges:
               1
     1  O   -0.510750
     2  H    0.259246
     3  H    0.250944
     4  O   -0.511238
     5  H    0.259521
     6  H    0.252277
 Sum of Mulliken charges =  -0.00000

 Dipole moment (field-independent basis, Debye):
    X=             -3.0162    Y=              2.5574    Z=              0.0000  Tot=              3.9544
 Quadrupole moment (field-independent basis, Debye-Ang):
   XX=            -10.5546   YY=             -8.5871   ZZ=            -14.7131
   XY=              2.6218   XZ=              0.0000   YZ=              0.0000

 CCSD(T)=-152.6611548\RMSD=7.250e-09\PG=CS [SG(H4O2)]\\@
 Normal termination of Gaussian 16 at Fri Aug 26 22:54:00 2022.
