 Gaussian 16, Revision A.03,
 Gaussian 16:  ES64L-G16RevA.03 25-Dec-2016

 ------------------
 #p CCSD(T)/cc-pVTZ
 ------------------

 ------------
 H2O_H2O_2315
 ------------
 Symbolic Z-matrix:
 Charge =  0 Multiplicity = 1

                         Standard orientation:
 ---------------------------------------------------------------------
 Center     Atomic      Atomic             Coordinates (Angstroms)
 Number     Number       Type             X           Y           Z
 ---------------------------------------------------------------------
      1          8           0        0.044886    2.030143    0.000000
      2          1           0        0.042781    1.047544    0.000000
      3          1           0       -0.883923    2.350799    0.000000
      4          8           0        0.044886   -1.849771    0.000000
      5          1           0        0.860718   -2.397424    0.000000
      6          1           0       -0.737749   -2.443899    0.000000
 ---------------------------------------------------------------------

 SCF Done:  E(RHF) =  -152.111441100     A.U. after   10 cycles
 E2 =    -0.5261841864D+00 EUMP2 =    -0.15263762528593D+03
 CCSD(T)
 CCSD(T)= -0.15266471660D+03

 The electronic state is 1-A'.
 Alpha  occ. eigenvalues --  -20.57083 -20.53967  -1.34339  -1.31308  -0.71729
 Alpha  occ. eigenvalues --   -0.68712  -0.57967  -0.54789  -0.51477  -0.48456
 Alpha virt. eigenvalues --    0.12303   0.16653   0.19263   0.24859   0.52346
 Alpha virt. eigenvalues --    0.55412   0.56393   0.58980   0.69042   0.71536
 Alpha virt. eigenvalues --    0.77055   0.78293   0.80406   0.82278   0.83614

 Mulliken charges:
               1
     1  O   -0.525560
     2  H    0.267542
     3  H    0.250176
     4  O   -0.510019
     5  H    0.260938
     6  H    0.256924
 Sum of Mulliken charges =  -0.00000

 Dipole moment (field-independent basis, Debye):
    X=             -1.5228    Y=             -3.3361    Z=              0.0000  Tot=              3.6672
 Quadrupole moment (field-independent basis, Debye-Ang):
   XX=             -9.1586   YY=             -7.6409   ZZ=            -14.7251
   XY=             -4.3349   XZ=              0.0000   YZ=              0.0000

 Normal termination of Gaussian 16 at Sun Aug 28 06:15:43 2022.
