 Gaussian 16, Revision A.03,
 Gaussian 16:  ES64L-G16RevA.03 25-Dec-2016

 ------------------
 #p CCSD(T)/cc-pVTZ
 ------------------

 -----------
 H2O_H2O_925
 -----------
 Symbolic Z-matrix:
 Charge =  0 Multiplicity = 1

                         Standard orientation:
 ---------------------------------------------------------------------
 Center     Atomic      Atomic             Coordinates (Angstroms)
 Number     Number       Type             X           Y           Z
 ---------------------------------------------------------------------
      1          8           0        0.092949   -1.455833    0.000000
      2          1           0        0.092949   -0.473232    0.000000
      3          1           0       -0.836544   -1.774500    0.000000
      4          8           0        0.092949    1.323046    0.000000
      5          1           0        0.092949    2.305648    0.000000
      6          1           0       -0.836544    1.004380    0.000000
 ---------------------------------------------------------------------

 SCF Done:  E(RHF) =  -152.104362034     A.U. after   10 cycles
 E2 =    -0.5301142546D+00 EUMP2 =    -0.15263447628848D+03
 CCSD(T)
 CCSD(T)= -0.15266141250D+03

 The electronic state is 1-A'.
 Alpha  occ. eigenvalues --  -20.58847 -20.53380  -1.36639  -1.30945  -0.75152
 Alpha  occ. eigenvalues --   -0.68088  -0.59632  -0.54096  -0.53454  -0.47987
 Alpha virt. eigenvalues --    0.11437   0.16385   0.20837   0.30875   0.48165
 Alpha virt. eigenvalues --    0.52754   0.58386   0.61421   0.68325   0.71370
 Alpha virt. eigenvalues --    0.73786   0.78395   0.79663   0.81911   0.82846

 Mulliken charges:
               1
     1  O   -0.536195
     2  H    0.284014
     3  H    0.228564
     4  O   -0.441259
     5  H    0.236152
     6  H    0.228724
 Sum of Mulliken charges =  -0.00000

 Dipole moment (field-independent basis, Debye):
    X=             -3.0515    Y=              2.8506    Z=              0.0000  Tot=              4.1759
 Quadrupole moment (field-independent basis, Debye-Ang):
   XX=            -10.9028   YY=             -9.2564   ZZ=            -14.6827
   XY=              2.0735   XZ=              0.0000   YZ=              0.0000

 Normal termination of Gaussian 16 at Fri Aug 26 21:22:35 2022.
