 Gaussian 16, Revision A.03,
 Gaussian 16:  ES64L-G16RevA.03 25-Dec-2016

 ------------------
 #p CCSD(T)/cc-pVTZ
 ------------------

 -----------
 H2O_H2O_124
 -----------
 Symbolic Z-matrix:
 Charge =  0 Multiplicity = 1

                         Standard orientation:
 ---------------------------------------------------------------------
 Center     Atomic      Atomic             Coordinates (Angstroms)
 Number     Number       Type             X           Y           Z
 ---------------------------------------------------------------------
      1          8           0       -0.013792   -1.141115   -0.000000
      2          1           0       -0.007444   -0.158534   -0.000000
      3          1           0        0.913622   -1.465780   -0.000000
      4          8           0       -0.013792    0.981947    0.000000
      5          1           0       -0.996374    0.988295   -0.000000
      6          1           0        0.310873    1.909362    0.000000
 ---------------------------------------------------------------------

 SCF Done:  E(RHF) =  -152.047097067     A.U. after   11 cycles
 E2 =    -0.5361422484D+00 EUMP2 =    -0.15258323931587D+03
 CCSD(T)
 CCSD(T)= -0.15260884316D+03

 The electronic state is 1-A'.
 Alpha  occ. eigenvalues --  -20.61504 -20.45613  -1.43145  -1.25374  -0.81850
 Alpha  occ. eigenvalues --   -0.72252  -0.57921  -0.56696  -0.45732  -0.42101
 Alpha virt. eigenvalues --    0.10865   0.17210   0.20639   0.33701   0.47869
 Alpha virt. eigenvalues --    0.51587   0.59934   0.69277   0.71104   0.72379
 Alpha virt. eigenvalues --    0.76447   0.76471   0.80057   0.85691   0.86119

 Mulliken charges:
               1
     1  O   -0.670079
     2  H    0.272907
     3  H    0.228491
     4  O   -0.325493
     5  H    0.265647
     6  H    0.228528
 Sum of Mulliken charges =  -0.00000

 Dipole moment (field-independent basis, Debye):
    X=              0.4153    Y=              4.4941    Z=              0.0000  Tot=              4.5132
 Quadrupole moment (field-independent basis, Debye-Ang):
   XX=             -9.5064   YY=             -9.9803   ZZ=            -14.5562
   XY=             -2.9666   XZ=             -0.0000   YZ=             -0.0000

 Normal termination of Gaussian 16 at Fri Aug 26 16:01:30 2022.
