 Gaussian 16, Revision A.03,
 Gaussian 16:  ES64L-G16RevA.03 25-Dec-2016

 ------------------
 #p CCSD(T)/cc-pVTZ
 ------------------

 -----------
 H2O_H2O_950
 -----------
 Symbolic Z-matrix:
 Charge =  0 Multiplicity = 1

                         Standard orientation:
 ---------------------------------------------------------------------
 Center     Atomic      Atomic             Coordinates (Angstroms)
 Number     Number       Type             X           Y           Z
 ---------------------------------------------------------------------
      1          8           0        0.092949   -1.465805    0.000000
      2          1           0        0.092949   -0.483204    0.000000
      3          1           0       -0.836544   -1.784472    0.000000
      4          8           0        0.092949    1.333018    0.000000
      5          1           0        0.092949    2.315619    0.000000
      6          1           0       -0.836544    1.014351    0.000000
 ---------------------------------------------------------------------

 SCF Done:  E(RHF) =  -152.104811533     A.U. after   10 cycles
 E2 =    -0.5299614287D+00 EUMP2 =    -0.15263477296194D+03
 CCSD(T)
 CCSD(T)= -0.15266172292D+03

 The electronic state is 1-A'.
 Alpha  occ. eigenvalues --  -20.58792 -20.53455  -1.36548  -1.31003  -0.75015
 Alpha  occ. eigenvalues --   -0.68133  -0.59595  -0.54169  -0.53384  -0.48048
 Alpha virt. eigenvalues --    0.11442   0.16384   0.20821   0.30752   0.48190
 Alpha virt. eigenvalues --    0.52820   0.58348   0.61216   0.68274   0.71429
 Alpha virt. eigenvalues --    0.73796   0.78381   0.79770   0.81834   0.82872

 Mulliken charges:
               1
     1  O   -0.535119
     2  H    0.283535
     3  H    0.229230
     4  O   -0.443196
     5  H    0.236397
     6  H    0.229153
 Sum of Mulliken charges =  -0.00000

 Dipole moment (field-independent basis, Debye):
    X=             -3.0544    Y=              2.8340    Z=              0.0000  Tot=              4.1666
 Quadrupole moment (field-independent basis, Debye-Ang):
   XX=            -10.9033   YY=             -9.2472   ZZ=            -14.6847
   XY=              2.0763   XZ=              0.0000   YZ=              0.0000

 Normal termination of Gaussian 16 at Fri Aug 26 21:31:24 2022.
