 Gaussian 16, Revision A.03,
 Gaussian 16:  ES64L-G16RevA.03 25-Dec-2016

 ------------------
 #p CCSD(T)/cc-pVTZ
 ------------------

 -----------
 H2O_H2O_543
 -----------
 Symbolic Z-matrix:
 Charge =  0 Multiplicity = 1

                         Standard orientation:
 ---------------------------------------------------------------------
 Center     Atomic      Atomic             Coordinates (Angstroms)
 Number     Number       Type             X           Y           Z
 ---------------------------------------------------------------------
      1          8           0        0.033958    1.320529    0.000000
      2          1           0        0.029882    0.337936    0.000000
      3          1           0       -0.894205    1.643048    0.000000
      4          8           0        0.033958   -1.143134   -0.000000
      5          1           0        0.940196   -1.522922   -0.000000
      6          1           0       -0.619204   -1.877222   -0.000000
 ---------------------------------------------------------------------

 SCF Done:  E(RHF) =  -152.102028336     A.U. after   11 cycles
 E2 =    -0.5313550772D+00 EUMP2 =    -0.15263338341315D+03
 CCSD(T)
 CCSD(T)= -0.15265979953D+03

 The electronic state is 1-A'.
 Alpha  occ. eigenvalues --  -20.60069 -20.49017  -1.38453  -1.27428  -0.75378
 Alpha  occ. eigenvalues --   -0.70525  -0.58836  -0.55126  -0.49558  -0.44397
 Alpha virt. eigenvalues --    0.11392   0.17879   0.19609   0.33710   0.47377
 Alpha virt. eigenvalues --    0.53743   0.59590   0.66208   0.69048   0.72280
 Alpha virt. eigenvalues --    0.73775   0.78251   0.80668   0.83299   0.83938

 Mulliken charges:
               1
     1  O   -0.614797
     2  H    0.309402
     3  H    0.232843
     4  O   -0.436746
     5  H    0.262269
     6  H    0.247029
 Sum of Mulliken charges =  -0.00000

 Dipole moment (field-independent basis, Debye):
    X=             -1.0928    Y=             -4.2045    Z=             -0.0000  Tot=              4.3442
 Quadrupole moment (field-independent basis, Debye-Ang):
   XX=             -9.1530   YY=             -9.3696   ZZ=            -14.6784
   XY=             -3.1508   XZ=             -0.0000   YZ=              0.0000

 Normal termination of Gaussian 16 at Fri Aug 26 18:56:58 2022.
