 Gaussian 16, Revision A.03,
 Gaussian 16:  ES64L-G16RevA.03 25-Dec-2016

 ------------------
 #p CCSD(T)/cc-pVTZ
 ------------------

 ------------
 H2O_H2O_2316
 ------------
 Symbolic Z-matrix:
 Charge =  0 Multiplicity = 1

                         Standard orientation:
 ---------------------------------------------------------------------
 Center     Atomic      Atomic             Coordinates (Angstroms)
 Number     Number       Type             X           Y           Z
 ---------------------------------------------------------------------
      1          8           0        0.041170    2.029886    0.000000
      2          1           0        0.038903    1.047287    0.000000
      3          1           0       -0.887585    2.350695    0.000000
      4          8           0        0.041170   -1.849988   -0.000000
      5          1           0        0.890994   -2.343251   -0.000000
      6          1           0       -0.701037   -2.493910   -0.000000
 ---------------------------------------------------------------------

 SCF Done:  E(RHF) =  -152.111476111     A.U. after   10 cycles
 E2 =    -0.5261771721D+00 EUMP2 =    -0.15263765328312D+03
 CCSD(T)
 CCSD(T)= -0.15266474418D+03

 The electronic state is 1-A'.
 Alpha  occ. eigenvalues --  -20.57079 -20.53970  -1.34336  -1.31311  -0.71726
 Alpha  occ. eigenvalues --   -0.68717  -0.57966  -0.54793  -0.51474  -0.48460
 Alpha virt. eigenvalues --    0.12312   0.16663   0.19257   0.24871   0.52414
 Alpha virt. eigenvalues --    0.55383   0.56428   0.58935   0.69050   0.71541
 Alpha virt. eigenvalues --    0.77056   0.78322   0.80402   0.82305   0.83620

 Mulliken charges:
               1
     1  O   -0.525928
     2  H    0.267478
     3  H    0.250631
     4  O   -0.510285
     5  H    0.260942
     6  H    0.257162
 Sum of Mulliken charges =  -0.00000

 Dipole moment (field-independent basis, Debye):
    X=             -1.3971    Y=             -3.3270    Z=             -0.0000  Tot=              3.6084
 Quadrupole moment (field-independent basis, Debye-Ang):
   XX=             -9.1503   YY=             -7.6518   ZZ=            -14.7252
   XY=             -4.4438   XZ=             -0.0000   YZ=              0.0000

 1638\MP4DQ=-152.6466091\MP4SDQ=-152.6496763\CCSD=-152.6490752\CCSD(T)=
 Normal termination of Gaussian 16 at Sun Aug 28 06:16:10 2022.
