 Gaussian 16, Revision A.03,
 Gaussian 16:  ES64L-G16RevA.03 25-Dec-2016

 ------------------
 #p CCSD(T)/cc-pVTZ
 ------------------

 ------------
 H2O_H2O_2701
 ------------
 Symbolic Z-matrix:
 Charge =  0 Multiplicity = 1

                         Standard orientation:
 ---------------------------------------------------------------------
 Center     Atomic      Atomic             Coordinates (Angstroms)
 Number     Number       Type             X           Y           Z
 ---------------------------------------------------------------------
      1          8           0        0.090685   -2.167056    0.000000
      2          1           0        0.090593   -1.184455    0.000000
      3          1           0       -0.838778   -2.485809    0.000000
      4          8           0        0.090685    2.028349    0.000000
      5          1           0        0.154859    3.008852    0.000000
      6          1           0       -0.857635    1.771068    0.000000
 ---------------------------------------------------------------------

 SCF Done:  E(RHF) =  -152.108485487     A.U. after   10 cycles
 E2 =    -0.5261820978D+00 EUMP2 =    -0.15263466758493D+03
 CCSD(T)
 CCSD(T)= -0.15266183363D+03

 The electronic state is 1-A'.
 Alpha  occ. eigenvalues --  -20.56804 -20.54993  -1.34094  -1.32296  -0.71539
 Alpha  occ. eigenvalues --   -0.69666  -0.57573  -0.55746  -0.51202  -0.49411
 Alpha virt. eigenvalues --    0.11546   0.15767   0.19619   0.23647   0.54054
 Alpha virt. eigenvalues --    0.55183   0.56484   0.58050   0.68479   0.69728
 Alpha virt. eigenvalues --    0.77596   0.78652   0.79491   0.80648   0.82920

 Mulliken charges:
               1
     1  O   -0.512303
     2  H    0.261851
     3  H    0.248173
     4  O   -0.506566
     5  H    0.259509
     6  H    0.249336
 Sum of Mulliken charges =  -0.00000

 Dipole moment (field-independent basis, Debye):
    X=             -3.0808    Y=              2.5111    Z=              0.0000  Tot=              3.9745
 Quadrupole moment (field-independent basis, Debye-Ang):
   XX=            -10.7183   YY=             -8.9345   ZZ=            -14.7139
   XY=              2.3530   XZ=              0.0000   YZ=              0.0000

 CCSD(T)=-152.6618336\RMSD=7.155e-09\PG=CS [SG(H4O2)]\\@
 Normal termination of Gaussian 16 at Fri Aug 26 16:40:25 2022.
