 Gaussian 16, Revision A.03,
 Gaussian 16:  ES64L-G16RevA.03 25-Dec-2016

 ------------------
 #p CCSD(T)/cc-pVTZ
 ------------------

 ------------
 H2O_H2O_1202
 ------------
 Symbolic Z-matrix:
 Charge =  0 Multiplicity = 1

                         Standard orientation:
 ---------------------------------------------------------------------
 Center     Atomic      Atomic             Coordinates (Angstroms)
 Number     Number       Type             X           Y           Z
 ---------------------------------------------------------------------
      1          8           0        0.088238   -1.571780    0.000000
      2          1           0        0.087971   -0.589179    0.000000
      3          1           0       -0.841168   -1.890699    0.000000
      4          8           0        0.088238    1.427477    0.000000
      5          1           0        0.216230    2.401707    0.000000
      6          1           0       -0.874844    1.232598    0.000000
 ---------------------------------------------------------------------

 SCF Done:  E(RHF) =  -152.109283186     A.U. after   10 cycles
 E2 =    -0.5284849194D+00 EUMP2 =    -0.15263776810584D+03
 CCSD(T)
 CCSD(T)= -0.15266477959D+03

 The electronic state is 1-A'.
 Alpha  occ. eigenvalues --  -20.58335 -20.53626  -1.35807  -1.31077  -0.73666
 Alpha  occ. eigenvalues --   -0.68435  -0.59254  -0.54340  -0.52813  -0.48164
 Alpha virt. eigenvalues --    0.11532   0.16511   0.20307   0.29664   0.48859
 Alpha virt. eigenvalues --    0.54006   0.58062   0.59219   0.68395   0.72670
 Alpha virt. eigenvalues --    0.74428   0.77684   0.81093   0.81540   0.83421

 Mulliken charges:
               1
     1  O   -0.532293
     2  H    0.280171
     3  H    0.235417
     4  O   -0.464329
     5  H    0.240603
     6  H    0.240432
 Sum of Mulliken charges =  -0.00000

 Dipole moment (field-independent basis, Debye):
    X=             -2.9243    Y=              2.9298    Z=              0.0000  Tot=              4.1395
 Quadrupole moment (field-independent basis, Debye-Ang):
   XX=            -10.6052   YY=             -8.9545   ZZ=            -14.7073
   XY=              2.4183   XZ=              0.0000   YZ=              0.0000

 Normal termination of Gaussian 16 at Fri Aug 26 23:05:52 2022.
