 Gaussian 16, Revision A.03,
 Gaussian 16:  ES64L-G16RevA.03 25-Dec-2016

 ------------------
 #p CCSD(T)/cc-pVTZ
 ------------------

 -----------
 H2O_H2O_368
 -----------
 Symbolic Z-matrix:
 Charge =  0 Multiplicity = 1

                         Standard orientation:
 ---------------------------------------------------------------------
 Center     Atomic      Atomic             Coordinates (Angstroms)
 Number     Number       Type             X           Y           Z
 ---------------------------------------------------------------------
      1          8           0        0.033980    1.250718   -0.000000
      2          1           0        0.029659    0.268126   -0.000000
      3          1           0       -0.894103    1.573468   -0.000000
      4          8           0        0.033980   -1.073340    0.000000
      5          1           0        0.940124   -1.453353    0.000000
      6          1           0       -0.619364   -1.807265    0.000000
 ---------------------------------------------------------------------

 SCF Done:  E(RHF) =  -152.089492402     A.U. after   11 cycles
 E2 =    -0.5328520469D+00 EUMP2 =    -0.15262234444914D+03
 CCSD(T)
 CCSD(T)= -0.15264848285D+03

 The electronic state is 1-A'.
 Alpha  occ. eigenvalues --  -20.60709 -20.47509  -1.39856  -1.26436  -0.76551
 Alpha  occ. eigenvalues --   -0.72517  -0.57701  -0.56152  -0.47960  -0.43288
 Alpha virt. eigenvalues --    0.11092   0.17507   0.20101   0.33801   0.47047
 Alpha virt. eigenvalues --    0.53175   0.60753   0.67315   0.69674   0.72067
 Alpha virt. eigenvalues --    0.76304   0.78583   0.79933   0.83180   0.83835

 Mulliken charges:
               1
     1  O   -0.635086
     2  H    0.305595
     3  H    0.226029
     4  O   -0.400768
     5  H    0.261085
     6  H    0.243144
 Sum of Mulliken charges =  -0.00000

 Dipole moment (field-independent basis, Debye):
    X=             -1.0739    Y=             -4.4642    Z=              0.0000  Tot=              4.5915
 Quadrupole moment (field-independent basis, Debye-Ang):
   XX=             -9.1378   YY=             -9.6511   ZZ=            -14.6447
   XY=             -2.9836   XZ=              0.0000   YZ=              0.0000

 Normal termination of Gaussian 16 at Fri Aug 26 17:44:46 2022.
