 Gaussian 16, Revision A.03,
 Gaussian 16:  ES64L-G16RevA.03 25-Dec-2016

 ------------------
 #p CCSD(T)/cc-pVTZ
 ------------------

 ------------
 H2O_H2O_3727
 ------------
 Symbolic Z-matrix:
 Charge =  0 Multiplicity = 1

                         Standard orientation:
 ---------------------------------------------------------------------
 Center     Atomic      Atomic             Coordinates (Angstroms)
 Number     Number       Type             X           Y           Z
 ---------------------------------------------------------------------
      1          8           0        0.088230   -2.578955    0.000000
      2          1           0        0.088071   -1.596354    0.000000
      3          1           0       -0.841211   -2.897773    0.000000
      4          8           0        0.088230    2.434632    0.000000
      5          1           0        0.216328    3.408849    0.000000
      6          1           0       -0.874874    2.239859    0.000000
 ---------------------------------------------------------------------

 SCF Done:  E(RHF) =  -152.108000514     A.U. after   10 cycles
 E2 =    -0.5259157069D+00 EUMP2 =    -0.15263391622089D+03
 CCSD(T)
 CCSD(T)= -0.15266111516D+03

 The electronic state is 1-A'.
 Alpha  occ. eigenvalues --  -20.56384 -20.55144  -1.33683  -1.32448  -0.71101
 Alpha  occ. eigenvalues --   -0.69839  -0.57153  -0.55904  -0.50795  -0.49563
 Alpha virt. eigenvalues --    0.12194   0.15182   0.19070   0.22174   0.53219
 Alpha virt. eigenvalues --    0.54999   0.56471   0.57947   0.66800   0.68917
 Alpha virt. eigenvalues --    0.78108   0.78854   0.79304   0.81249   0.82505

 Mulliken charges:
               1
     1  O   -0.510678
     2  H    0.259112
     3  H    0.251085
     4  O   -0.511332
     5  H    0.259441
     6  H    0.252371
 Sum of Mulliken charges =  -0.00000

 Dipole moment (field-independent basis, Debye):
    X=             -3.0172    Y=              2.5545    Z=              0.0000  Tot=              3.9533
 Quadrupole moment (field-independent basis, Debye-Ang):
   XX=            -10.5540   YY=             -8.5781   ZZ=            -14.7130
   XY=              2.6270   XZ=              0.0000   YZ=              0.0000

 CCSD(T)=-152.6611152\RMSD=7.251e-09\PG=CS [SG(H4O2)]\\@
 Normal termination of Gaussian 16 at Fri Aug 26 23:20:13 2022.
