 Gaussian 16, Revision A.03,
 Gaussian 16:  ES64L-G16RevA.03 25-Dec-2016

 ------------------
 #p CCSD(T)/cc-pVTZ
 ------------------

 ------------
 H2O_H2O_1272
 ------------
 Symbolic Z-matrix:
 Charge =  0 Multiplicity = 1

                         Standard orientation:
 ---------------------------------------------------------------------
 Center     Atomic      Atomic             Coordinates (Angstroms)
 Number     Number       Type             X           Y           Z
 ---------------------------------------------------------------------
      1          8           0       -0.019975    1.604094    0.000000
      2          1           0       -0.015896    0.621502    0.000000
      3          1           0        0.908187    1.926616    0.000000
      4          8           0       -0.019975   -1.437045    0.000000
      5          1           0       -0.993630   -1.569343    0.000000
      6          1           0        0.420937   -2.315169    0.000000
 ---------------------------------------------------------------------

 SCF Done:  E(RHF) =  -152.113549512     A.U. after   10 cycles
 E2 =    -0.5276524634D+00 EUMP2 =    -0.15264120197491D+03
 CCSD(T)
 CCSD(T)= -0.15266815859D+03

 The electronic state is 1-A'.
 Alpha  occ. eigenvalues --  -20.58238 -20.52703  -1.35626  -1.30220  -0.73095
 Alpha  occ. eigenvalues --   -0.67995  -0.59443  -0.53442  -0.52716  -0.47365
 Alpha virt. eigenvalues --    0.12091   0.17912   0.18959   0.30366   0.49860
 Alpha virt. eigenvalues --    0.54542   0.55732   0.61655   0.68677   0.73345
 Alpha virt. eigenvalues --    0.73725   0.76898   0.81819   0.82454   0.84376

 Mulliken charges:
               1
     1  O   -0.554497
     2  H    0.281843
     3  H    0.250962
     4  O   -0.491418
     5  H    0.263793
     6  H    0.249318
 Sum of Mulliken charges =  -0.00000

 Dipole moment (field-independent basis, Debye):
    X=              0.6754    Y=             -3.3724    Z=              0.0000  Tot=              3.4394
 Quadrupole moment (field-independent basis, Debye-Ang):
   XX=             -9.4434   YY=             -8.6024   ZZ=            -14.7289
   XY=              4.0943   XZ=              0.0000   YZ=              0.0000

 Normal termination of Gaussian 16 at Fri Aug 26 23:31:34 2022.
