 Gaussian 16, Revision A.03,
 Gaussian 16:  ES64L-G16RevA.03 25-Dec-2016

 ------------------
 #p CCSD(T)/cc-pVTZ
 ------------------

 -----------
 H2O_H2O_278
 -----------
 Symbolic Z-matrix:
 Charge =  0 Multiplicity = 1

                         Standard orientation:
 ---------------------------------------------------------------------
 Center     Atomic      Atomic             Coordinates (Angstroms)
 Number     Number       Type             X           Y           Z
 ---------------------------------------------------------------------
      1          8           0        0.085622   -1.205669    0.000000
      2          1           0        0.085071   -0.223068    0.000000
      3          1           0       -0.843692   -1.524857    0.000000
      4          8           0        0.085622    1.056121    0.000000
      5          1           0        0.276777    2.019949    0.000000
      6          1           0       -0.888106    0.924366    0.000000
 ---------------------------------------------------------------------

 SCF Done:  E(RHF) =  -152.071126483     A.U. after   11 cycles
 E2 =    -0.5356292605D+00 EUMP2 =    -0.15260675574305D+03
 CCSD(T)
 CCSD(T)= -0.15263281018D+03

 The electronic state is 1-A'.
 Alpha  occ. eigenvalues --  -20.60887 -20.48775  -1.41015  -1.27537  -0.80041
 Alpha  occ. eigenvalues --   -0.70129  -0.57849  -0.56562  -0.49462  -0.44397
 Alpha virt. eigenvalues --    0.10890   0.16214   0.21195   0.32374   0.49170
 Alpha virt. eigenvalues --    0.51692   0.59567   0.65575   0.71606   0.72826
 Alpha virt. eigenvalues --    0.76336   0.76513   0.79598   0.83616   0.85434

 Mulliken charges:
               1
     1  O   -0.594296
     2  H    0.279067
     3  H    0.203021
     4  O   -0.349554
     5  H    0.227987
     6  H    0.233775
 Sum of Mulliken charges =  -0.00000

 Dipole moment (field-independent basis, Debye):
    X=             -2.6913    Y=              3.9309    Z=              0.0000  Tot=              4.7639
 Quadrupole moment (field-independent basis, Debye-Ang):
   XX=            -10.3974   YY=             -9.6515   ZZ=            -14.5880
   XY=              2.3337   XZ=              0.0000   YZ=              0.0000

 Normal termination of Gaussian 16 at Fri Aug 26 17:07:20 2022.
