 Gaussian 16, Revision A.03,
 Gaussian 16:  ES64L-G16RevA.03 25-Dec-2016

 ------------------
 #p CCSD(T)/cc-pVTZ
 ------------------

 ------------
 H2O_H2O_1237
 ------------
 Symbolic Z-matrix:
 Charge =  0 Multiplicity = 1

                         Standard orientation:
 ---------------------------------------------------------------------
 Center     Atomic      Atomic             Coordinates (Angstroms)
 Number     Number       Type             X           Y           Z
 ---------------------------------------------------------------------
      1          8           0        0.056053    1.600513    0.000000
      2          1           0        0.053976    0.617914    0.000000
      3          1           0       -0.872765    1.921142   -0.000000
      4          8           0        0.056053   -1.421683    0.000000
      5          1           0        0.749388   -2.117954    0.000000
      6          1           0       -0.827441   -1.851738   -0.000000
 ---------------------------------------------------------------------

 SCF Done:  E(RHF) =  -152.113814572     A.U. after   10 cycles
 E2 =    -0.5278504406D+00 EUMP2 =    -0.15264166501231D+03
 CCSD(T)
 CCSD(T)= -0.15266860360D+03

 The electronic state is 1-A'.
 Alpha  occ. eigenvalues --  -20.58379 -20.52389  -1.35741  -1.29926  -0.73044
 Alpha  occ. eigenvalues --   -0.67951  -0.59460  -0.53136  -0.52842  -0.47057
 Alpha virt. eigenvalues --    0.11893   0.17636   0.19097   0.30545   0.48885
 Alpha virt. eigenvalues --    0.54846   0.56650   0.59727   0.69584   0.71844
 Alpha virt. eigenvalues --    0.73344   0.76860   0.82040   0.82687   0.84860

 Mulliken charges:
               1
     1  O   -0.550952
     2  H    0.287431
     3  H    0.241317
     4  O   -0.499247
     5  H    0.264006
     6  H    0.257444
 Sum of Mulliken charges =  -0.00000

 Dipole moment (field-independent basis, Debye):
    X=             -1.8639    Y=             -3.6220    Z=             -0.0000  Tot=              4.0735
 Quadrupole moment (field-independent basis, Debye-Ang):
   XX=             -9.2965   YY=             -8.5203   ZZ=            -14.7320
   XY=             -3.4358   XZ=              0.0000   YZ=             -0.0000

 Normal termination of Gaussian 16 at Fri Aug 26 23:18:32 2022.
