 Gaussian 16, Revision A.03,
 Gaussian 16:  ES64L-G16RevA.03 25-Dec-2016

 ------------------
 #p CCSD(T)/cc-pVTZ
 ------------------

 ------------
 H2O_H2O_4964
 ------------
 Symbolic Z-matrix:
 Charge =  0 Multiplicity = 1

                         Standard orientation:
 ---------------------------------------------------------------------
 Center     Atomic      Atomic             Coordinates (Angstroms)
 Number     Number       Type             X           Y           Z
 ---------------------------------------------------------------------
      1          8           0        0.048545    3.087194    0.000000
      2          1           0        0.047289    2.104593    0.000000
      3          1           0       -0.880539    3.407049    0.000000
      4          8           0        0.048545   -2.906765   -0.000000
      5          1           0        0.827330   -3.505932   -0.000000
      6          1           0       -0.770804   -3.449142   -0.000000
 ---------------------------------------------------------------------

 SCF Done:  E(RHF) =  -152.108222898     A.U. after   10 cycles
 E2 =    -0.5258088584D+00 EUMP2 =    -0.15263403175642D+03
 CCSD(T)
 CCSD(T)= -0.15266123486D+03

 The electronic state is 1-A'.
 Alpha  occ. eigenvalues --  -20.56113 -20.55034  -1.33415  -1.32340  -0.70820
 Alpha  occ. eigenvalues --   -0.69742  -0.56900  -0.55807  -0.50533  -0.49461
 Alpha virt. eigenvalues --    0.13542   0.14761   0.19747   0.20883   0.53732
 Alpha virt. eigenvalues --    0.54798   0.56721   0.57761   0.67076   0.68501
 Alpha virt. eigenvalues --    0.78350   0.79400   0.79762   0.80518   0.82197

 Mulliken charges:
               1
     1  O   -0.513048
     2  H    0.259514
     3  H    0.253500
     4  O   -0.513685
     5  H    0.257658
     6  H    0.256060
 Sum of Mulliken charges =  -0.00000

 Dipole moment (field-independent basis, Debye):
    X=             -1.6666    Y=             -3.1565    Z=             -0.0000  Tot=              3.5695
 Quadrupole moment (field-independent basis, Debye-Ang):
   XX=             -9.1821   YY=             -5.9116   ZZ=            -14.7142
   XY=             -5.8520   XZ=             -0.0000   YZ=              0.0000

 650702\MP4DQ=-152.6431567\MP4SDQ=-152.6462046\CCSD=-152.64562\CCSD(T)=
 Normal termination of Gaussian 16 at Sun Aug 28 07:16:22 2022.
