 Gaussian 16, Revision A.03,
 Gaussian 16:  ES64L-G16RevA.03 25-Dec-2016

 ------------------
 #p CCSD(T)/cc-pVTZ
 ------------------

 ------------
 H2O_H2O_2876
 ------------
 Symbolic Z-matrix:
 Charge =  0 Multiplicity = 1

                         Standard orientation:
 ---------------------------------------------------------------------
 Center     Atomic      Atomic             Coordinates (Angstroms)
 Number     Number       Type             X           Y           Z
 ---------------------------------------------------------------------
      1          8           0        0.090685   -2.236860    0.000000
      2          1           0        0.090596   -1.254258    0.000000
      3          1           0       -0.838779   -2.555610    0.000000
      4          8           0        0.090685    2.098152    0.000000
      5          1           0        0.154862    3.078656    0.000000
      6          1           0       -0.857637    1.840874    0.000000
 ---------------------------------------------------------------------

 SCF Done:  E(RHF) =  -152.108339521     A.U. after   10 cycles
 E2 =    -0.5261111191D+00 EUMP2 =    -0.15263445064036D+03
 CCSD(T)
 CCSD(T)= -0.15266162496D+03

 The electronic state is 1-A'.
 Alpha  occ. eigenvalues --  -20.56711 -20.55040  -1.34003  -1.32343  -0.71440
 Alpha  occ. eigenvalues --   -0.69719  -0.57479  -0.55795  -0.51112  -0.49458
 Alpha virt. eigenvalues --    0.11583   0.15665   0.19485   0.23347   0.54350
 Alpha virt. eigenvalues --    0.54757   0.56466   0.58122   0.68319   0.69118
 Alpha virt. eigenvalues --    0.77749   0.78520   0.79427   0.80899   0.82751

 Mulliken charges:
               1
     1  O   -0.511675
     2  H    0.261053
     3  H    0.248837
     4  O   -0.507809
     5  H    0.259657
     6  H    0.249936
 Sum of Mulliken charges =  -0.00000

 Dipole moment (field-independent basis, Debye):
    X=             -3.0852    Y=              2.4978    Z=              0.0000  Tot=              3.9695
 Quadrupole moment (field-independent basis, Debye-Ang):
   XX=            -10.7151   YY=             -8.9301   ZZ=            -14.7136
   XY=              2.3598   XZ=              0.0000   YZ=              0.0000

 CCSD(T)=-152.661625\RMSD=7.185e-09\PG=CS [SG(H4O2)]\\@
 Normal termination of Gaussian 16 at Fri Aug 26 17:56:23 2022.
