 Gaussian 16, Revision A.03,
 Gaussian 16:  ES64L-G16RevA.03 25-Dec-2016

 ------------------
 #p CCSD(T)/cc-pVTZ
 ------------------

 ------------
 H2O_H2O_2879
 ------------
 Symbolic Z-matrix:
 Charge =  0 Multiplicity = 1

                         Standard orientation:
 ---------------------------------------------------------------------
 Center     Atomic      Atomic             Coordinates (Angstroms)
 Number     Number       Type             X           Y           Z
 ---------------------------------------------------------------------
      1          8           0        0.082805   -2.245446    0.000000
      2          1           0        0.082408   -1.262845    0.000000
      3          1           0       -0.846559   -2.564488    0.000000
      4          8           0        0.082805    2.090931    0.000000
      5          1           0        0.336738    3.040155    0.000000
      6          1           0       -0.897467    2.023297    0.000000
 ---------------------------------------------------------------------

 SCF Done:  E(RHF) =  -152.108918552     A.U. after   10 cycles
 E2 =    -0.5260668250D+00 EUMP2 =    -0.15263498537709D+03
 CCSD(T)
 CCSD(T)= -0.15266214441D+03

 The electronic state is 1-A'.
 Alpha  occ. eigenvalues --  -20.56713 -20.54792  -1.33999  -1.32102  -0.71423
 Alpha  occ. eigenvalues --   -0.69482  -0.57498  -0.55565  -0.51115  -0.49224
 Alpha virt. eigenvalues --    0.11906   0.15782   0.19458   0.23038   0.54105
 Alpha virt. eigenvalues --    0.54965   0.56388   0.58346   0.68370   0.69275
 Alpha virt. eigenvalues --    0.77754   0.78763   0.79639   0.80712   0.82865

 Mulliken charges:
               1
     1  O   -0.514128
     2  H    0.262523
     3  H    0.249072
     4  O   -0.509527
     5  H    0.259714
     6  H    0.252346
 Sum of Mulliken charges =  -0.00000

 Dipole moment (field-independent basis, Debye):
    X=             -2.8184    Y=              2.7868    Z=              0.0000  Tot=              3.9636
 Quadrupole moment (field-independent basis, Debye-Ang):
   XX=            -10.2568   YY=             -8.2370   ZZ=            -14.7160
   XY=              2.9664   XZ=              0.0000   YZ=              0.0000

 Normal termination of Gaussian 16 at Fri Aug 26 17:57:57 2022.
