 Gaussian 16, Revision A.03,
 Gaussian 16:  ES64L-G16RevA.03 25-Dec-2016

 ------------------
 #p CCSD(T)/cc-pVTZ
 ------------------

 ------------
 H2O_H2O_2630
 ------------
 Symbolic Z-matrix:
 Charge =  0 Multiplicity = 1

                         Standard orientation:
 ---------------------------------------------------------------------
 Center     Atomic      Atomic             Coordinates (Angstroms)
 Number     Number       Type             X           Y           Z
 ---------------------------------------------------------------------
      1          8           0        0.079856    2.148193   -0.000000
      2          1           0        0.079318    1.165591   -0.000000
      3          1           0       -0.849463    2.467367   -0.000000
      4          8           0        0.079856   -1.989139    0.000000
      5          1           0        0.395194   -2.919767    0.000000
      6          1           0       -0.902740   -1.985622    0.000000
 ---------------------------------------------------------------------

 SCF Done:  E(RHF) =  -152.109437632     A.U. after   10 cycles
 E2 =    -0.5261481648D+00 EUMP2 =    -0.15263558579682D+03
 CCSD(T)
 CCSD(T)= -0.15266272570D+03

 The electronic state is 1-A'.
 Alpha  occ. eigenvalues --  -20.56854 -20.54613  -1.34134  -1.31928  -0.71558
 Alpha  occ. eigenvalues --   -0.69304  -0.57653  -0.55392  -0.51253  -0.49053
 Alpha virt. eigenvalues --    0.11925   0.16003   0.19506   0.23575   0.53769
 Alpha virt. eigenvalues --    0.55324   0.56323   0.58392   0.68733   0.70021
 Alpha virt. eigenvalues --    0.77529   0.79091   0.79820   0.80609   0.83055

 Mulliken charges:
               1
     1  O   -0.516255
     2  H    0.264077
     3  H    0.248291
     4  O   -0.508295
     5  H    0.259541
     6  H    0.252641
 Sum of Mulliken charges =  -0.00000

 Dipole moment (field-independent basis, Debye):
    X=             -2.7134    Y=             -2.8937    Z=              0.0000  Tot=              3.9669
 Quadrupole moment (field-independent basis, Debye-Ang):
   XX=            -10.1088   YY=             -8.1353   ZZ=            -14.7177
   XY=             -3.1098   XZ=              0.0000   YZ=             -0.0000

 Normal termination of Gaussian 16 at Fri Aug 26 16:09:37 2022.
