 Gaussian 16, Revision A.03,
 Gaussian 16:  ES64L-G16RevA.03 25-Dec-2016

 ------------------
 #p CCSD(T)/cc-pVTZ
 ------------------

 ------------
 H2O_H2O_1034
 ------------
 Symbolic Z-matrix:
 Charge =  0 Multiplicity = 1

                         Standard orientation:
 ---------------------------------------------------------------------
 Center     Atomic      Atomic             Coordinates (Angstroms)
 Number     Number       Type             X           Y           Z
 ---------------------------------------------------------------------
      1          8           0        0.066811    1.517584    0.000000
      2          1           0        0.065257    0.534983    0.000000
      3          1           0       -0.862178    1.837719    0.000000
      4          8           0        0.066811   -1.344557    0.000000
      5          1           0        0.611423   -2.162422    0.000000
      6          1           0       -0.883473   -1.594492    0.000000
 ---------------------------------------------------------------------

 SCF Done:  E(RHF) =  -152.112276229     A.U. after   10 cycles
 E2 =    -0.5286975567D+00 EUMP2 =    -0.15264097378556D+03
 CCSD(T)
 CCSD(T)= -0.15266784505D+03

 The electronic state is 1-A'.
 Alpha  occ. eigenvalues --  -20.58753 -20.52032  -1.36253  -1.29667  -0.73621
 Alpha  occ. eigenvalues --   -0.68123  -0.59642  -0.53291  -0.52739  -0.46767
 Alpha virt. eigenvalues --    0.11695   0.17320   0.19470   0.31496   0.48322
 Alpha virt. eigenvalues --    0.54632   0.58412   0.59472   0.69804   0.72742
 Alpha virt. eigenvalues --    0.73301   0.76800   0.81981   0.82479   0.84449

 Mulliken charges:
               1
     1  O   -0.557853
     2  H    0.294400
     3  H    0.235873
     4  O   -0.479493
     5  H    0.254792
     6  H    0.252281
 Sum of Mulliken charges =  -0.00000

 Dipole moment (field-independent basis, Debye):
    X=             -2.2032    Y=             -3.6185    Z=              0.0000  Tot=              4.2365
 Quadrupole moment (field-independent basis, Debye-Ang):
   XX=             -9.5845   YY=             -8.7454   ZZ=            -14.7202
   XY=             -3.1438   XZ=              0.0000   YZ=              0.0000

 Normal termination of Gaussian 16 at Fri Aug 26 22:03:11 2022.
