 Gaussian 16, Revision A.03,
 Gaussian 16:  ES64L-G16RevA.03 25-Dec-2016

 ------------------
 #p CCSD(T)/cc-pVTZ
 ------------------

 -----------
 H2O_H2O_315
 -----------
 Symbolic Z-matrix:
 Charge =  0 Multiplicity = 1

                         Standard orientation:
 ---------------------------------------------------------------------
 Center     Atomic      Atomic             Coordinates (Angstroms)
 Number     Number       Type             X           Y           Z
 ---------------------------------------------------------------------
      1          8           0        0.045021    1.232324   -0.000000
      2          1           0        0.041447    0.249730   -0.000000
      3          1           0       -0.883307    1.554369   -0.000000
      4          8           0        0.045021   -1.052086    0.000000
      5          1           0        0.860033   -1.600959    0.000000
      6          1           0       -0.738501   -1.645044    0.000000
 ---------------------------------------------------------------------

 SCF Done:  E(RHF) =  -152.084651918     A.U. after   11 cycles
 E2 =    -0.5333227708D+00 EUMP2 =    -0.15261797468837D+03
 CCSD(T)
 CCSD(T)= -0.15264401896D+03

 The electronic state is 1-A'.
 Alpha  occ. eigenvalues --  -20.60967 -20.46939  -1.40370  -1.26069  -0.76338
 Alpha  occ. eigenvalues --   -0.74043  -0.57048  -0.56538  -0.47399  -0.42859
 Alpha virt. eigenvalues --    0.10913   0.17190   0.20366   0.33548   0.47055
 Alpha virt. eigenvalues --    0.52972   0.62146   0.65199   0.70385   0.71939
 Alpha virt. eigenvalues --    0.77334   0.79563   0.80600   0.82143   0.83944

 Mulliken charges:
               1
     1  O   -0.638595
     2  H    0.308413
     3  H    0.218425
     4  O   -0.392298
     5  H    0.257886
     6  H    0.246169
 Sum of Mulliken charges =   0.00000

 Dipole moment (field-independent basis, Debye):
    X=             -1.4085    Y=             -4.6106    Z=              0.0000  Tot=              4.8209
 Quadrupole moment (field-independent basis, Debye-Ang):
   XX=             -9.1191   YY=             -9.7620   ZZ=            -14.6347
   XY=             -2.8921   XZ=              0.0000   YZ=             -0.0000

 Normal termination of Gaussian 16 at Fri Aug 26 17:22:33 2022.
