 Gaussian 16, Revision A.03,
 Gaussian 16:  ES64L-G16RevA.03 25-Dec-2016

 ------------------
 #p CCSD(T)/cc-pVTZ
 ------------------

 ------------
 H2O_H2O_1258
 ------------
 Symbolic Z-matrix:
 Charge =  0 Multiplicity = 1

                         Standard orientation:
 ---------------------------------------------------------------------
 Center     Atomic      Atomic             Coordinates (Angstroms)
 Number     Number       Type             X           Y           Z
 ---------------------------------------------------------------------
      1          8           0        0.070234    1.605786    0.000000
      2          1           0        0.068965    0.623185    0.000000
      3          1           0       -0.858846    1.925653    0.000000
      4          8           0        0.070234   -1.435601   -0.000000
      5          1           0        0.560436   -2.287193   -0.000000
      6          1           0       -0.894306   -1.623128   -0.000000
 ---------------------------------------------------------------------

 SCF Done:  E(RHF) =  -152.112666235     A.U. after   10 cycles
 E2 =    -0.5279061379D+00 EUMP2 =    -0.15264057237313D+03
 CCSD(T)
 CCSD(T)= -0.15266753442D+03

 The electronic state is 1-A'.
 Alpha  occ. eigenvalues --  -20.58314 -20.52795  -1.35689  -1.30292  -0.73117
 Alpha  occ. eigenvalues --   -0.68102  -0.59350  -0.53533  -0.52773  -0.47413
 Alpha virt. eigenvalues --    0.11779   0.17147   0.19462   0.30086   0.48820
 Alpha virt. eigenvalues --    0.54899   0.57630   0.58992   0.69796   0.73344
 Alpha virt. eigenvalues --    0.73689   0.76496   0.81781   0.82453   0.84377

 Mulliken charges:
               1
     1  O   -0.543863
     2  H    0.284629
     3  H    0.238986
     4  O   -0.488176
     5  H    0.255382
     6  H    0.253042
 Sum of Mulliken charges =  -0.00000

 Dipole moment (field-independent basis, Debye):
    X=             -2.3351    Y=             -3.4317    Z=             -0.0000  Tot=              4.1508
 Quadrupole moment (field-independent basis, Debye-Ang):
   XX=             -9.7086   YY=             -8.5680   ZZ=            -14.7260
   XY=             -3.1516   XZ=             -0.0000   YZ=             -0.0000

 CCSD(T)=-152.6675344\RMSD=7.140e-09\PG=CS [SG(H4O2)]\\@
 Normal termination of Gaussian 16 at Fri Aug 26 23:26:28 2022.
