 Gaussian 16, Revision A.03,
 Gaussian 16:  ES64L-G16RevA.03 25-Dec-2016

 ------------------
 #p CCSD(T)/cc-pVTZ
 ------------------

 -----------
 H2O_H2O_445
 -----------
 Symbolic Z-matrix:
 Charge =  0 Multiplicity = 1

                         Standard orientation:
 ---------------------------------------------------------------------
 Center     Atomic      Atomic             Coordinates (Angstroms)
 Number     Number       Type             X           Y           Z
 ---------------------------------------------------------------------
      1          8           0        0.026854    1.278313    0.000000
      2          1           0        0.022133    0.295723    0.000000
      3          1           0       -0.901097    1.601441    0.000000
      4          8           0        0.026854   -1.105209    0.000000
      5          1           0        0.974741   -1.364083    0.000000
      6          1           0       -0.525437   -1.917910    0.000000
 ---------------------------------------------------------------------

 SCF Done:  E(RHF) =  -152.095164627     A.U. after   11 cycles
 E2 =    -0.5322605433D+00 EUMP2 =    -0.15262742516988D+03
 CCSD(T)
 CCSD(T)= -0.15265369686D+03

 The electronic state is 1-A'.
 Alpha  occ. eigenvalues --  -20.60368 -20.48378  -1.39190  -1.27025  -0.76444
 Alpha  occ. eigenvalues --   -0.70945  -0.58493  -0.55637  -0.48844  -0.43949
 Alpha virt. eigenvalues --    0.11296   0.17777   0.19816   0.33923   0.47323
 Alpha virt. eigenvalues --    0.53374   0.59566   0.68165   0.69496   0.72166
 Alpha virt. eigenvalues --    0.74947   0.77731   0.79588   0.83820   0.83908

 Mulliken charges:
               1
     1  O   -0.626164
     2  H    0.302818
     3  H    0.232936
     4  O   -0.410621
     5  H    0.261154
     6  H    0.239877
 Sum of Mulliken charges =  -0.00000

 Dipole moment (field-independent basis, Debye):
    X=             -0.8600    Y=             -4.2497    Z=              0.0000  Tot=              4.3358
 Quadrupole moment (field-independent basis, Debye-Ang):
   XX=             -9.2390   YY=             -9.4999   ZZ=            -14.6570
   XY=             -3.1202   XZ=              0.0000   YZ=              0.0000

 Normal termination of Gaussian 16 at Fri Aug 26 18:18:43 2022.
