 Gaussian 16, Revision A.03,
 Gaussian 16:  ES64L-G16RevA.03 25-Dec-2016

 ------------------
 #p CCSD(T)/cc-pVTZ
 ------------------

 ------------
 H2O_H2O_4588
 ------------
 Symbolic Z-matrix:
 Charge =  0 Multiplicity = 1

                         Standard orientation:
 ---------------------------------------------------------------------
 Center     Atomic      Atomic             Coordinates (Angstroms)
 Number     Number       Type             X           Y           Z
 ---------------------------------------------------------------------
      1          8           0        0.052270    2.937341    0.000000
      2          1           0        0.051058    1.954740    0.000000
      3          1           0       -0.876829    3.257153    0.000000
      4          8           0        0.052270   -2.757417   -0.000000
      5          1           0        0.790229   -3.406201   -0.000000
      6          1           0       -0.800776   -3.245083   -0.000000
 ---------------------------------------------------------------------

 SCF Done:  E(RHF) =  -152.108348231     A.U. after   10 cycles
 E2 =    -0.5258111354D+00 EUMP2 =    -0.15263415936675D+03
 CCSD(T)
 CCSD(T)= -0.15266135836D+03

 The electronic state is 1-A'.
 Alpha  occ. eigenvalues --  -20.56171 -20.54966  -1.33473  -1.32273  -0.70877
 Alpha  occ. eigenvalues --   -0.69674  -0.56963  -0.55743  -0.50591  -0.49396
 Alpha virt. eigenvalues --    0.13398   0.14891   0.19703   0.21005   0.53668
 Alpha virt. eigenvalues --    0.54840   0.56671   0.57790   0.66883   0.68703
 Alpha virt. eigenvalues --    0.78295   0.79462   0.79683   0.80221   0.82611

 Mulliken charges:
               1
     1  O   -0.513518
     2  H    0.260253
     3  H    0.253163
     4  O   -0.514287
     5  H    0.258241
     6  H    0.256148
 Sum of Mulliken charges =  -0.00000

 Dipole moment (field-independent basis, Debye):
    X=             -1.7929    Y=             -3.1562    Z=             -0.0000  Tot=              3.6299
 Quadrupole moment (field-independent basis, Debye-Ang):
   XX=             -9.2250   YY=             -6.1889   ZZ=            -14.7146
   XY=             -5.3958   XZ=             -0.0000   YZ=              0.0000

 Normal termination of Gaussian 16 at Sun Aug 28 04:10:10 2022.
