 Gaussian 16, Revision A.03,
 Gaussian 16:  ES64L-G16RevA.03 25-Dec-2016

 ------------------
 #p CCSD(T)/cc-pVTZ
 ------------------

 ------------
 H2O_H2O_2878
 ------------
 Symbolic Z-matrix:
 Charge =  0 Multiplicity = 1

                         Standard orientation:
 ---------------------------------------------------------------------
 Center     Atomic      Atomic             Coordinates (Angstroms)
 Number     Number       Type             X           Y           Z
 ---------------------------------------------------------------------
      1          8           0        0.085602   -2.242773    0.000000
      2          1           0        0.085314   -1.260172    0.000000
      3          1           0       -0.843798   -2.561712    0.000000
      4          8           0        0.085602    2.093179    0.000000
      5          1           0        0.277015    3.056956    0.000000
      6          1           0       -0.888162    1.961685    0.000000
 ---------------------------------------------------------------------

 SCF Done:  E(RHF) =  -152.108736249     A.U. after   10 cycles
 E2 =    -0.5260806988D+00 EUMP2 =    -0.15263481694754D+03
 CCSD(T)
 CCSD(T)= -0.15266198059D+03

 The electronic state is 1-A'.
 Alpha  occ. eigenvalues --  -20.56712 -20.54869  -1.34000  -1.32177  -0.71429
 Alpha  occ. eigenvalues --   -0.69556  -0.57491  -0.55637  -0.51114  -0.49297
 Alpha virt. eigenvalues --    0.11805   0.15743   0.19468   0.23113   0.54242
 Alpha virt. eigenvalues --    0.54853   0.56424   0.58267   0.68357   0.69229
 Alpha virt. eigenvalues --    0.77753   0.78686   0.79573   0.80821   0.82812

 Mulliken charges:
               1
     1  O   -0.513336
     2  H    0.262059
     3  H    0.248968
     4  O   -0.508968
     5  H    0.259670
     6  H    0.251606
 Sum of Mulliken charges =  -0.00000

 Dipole moment (field-independent basis, Debye):
    X=             -2.9132    Y=              2.6967    Z=              0.0000  Tot=              3.9698
 Quadrupole moment (field-independent basis, Debye-Ang):
   XX=            -10.4107   YY=             -8.4449   ZZ=            -14.7153
   XY=              2.7700   XZ=              0.0000   YZ=              0.0000

 CCSD(T)=-152.6619806\RMSD=7.101e-09\PG=CS [SG(H4O2)]\\@
 Normal termination of Gaussian 16 at Fri Aug 26 17:57:26 2022.
