 Gaussian 16, Revision A.03,
 Gaussian 16:  ES64L-G16RevA.03 25-Dec-2016

 ------------------
 #p CCSD(T)/cc-pVTZ
 ------------------

 ------------
 H2O_H2O_1738
 ------------
 Symbolic Z-matrix:
 Charge =  0 Multiplicity = 1

                         Standard orientation:
 ---------------------------------------------------------------------
 Center     Atomic      Atomic             Coordinates (Angstroms)
 Number     Number       Type             X           Y           Z
 ---------------------------------------------------------------------
      1          8           0        0.052344    1.800499    0.000000
      2          1           0        0.050326    0.817899    0.000000
      3          1           0       -0.876493    2.121073    0.000000
      4          8           0        0.052344   -1.620661    0.000000
      5          1           0        0.789772   -2.270050    0.000000
      6          1           0       -0.801102   -2.107628    0.000000
 ---------------------------------------------------------------------

 SCF Done:  E(RHF) =  -152.113062479     A.U. after   10 cycles
 E2 =    -0.5267466075D+00 EUMP2 =    -0.15263980908619D+03
 CCSD(T)
 CCSD(T)= -0.15266684402D+03

 The electronic state is 1-A'.
 Alpha  occ. eigenvalues --  -20.57648 -20.53351  -1.34906  -1.30742  -0.72274
 Alpha  occ. eigenvalues --   -0.68238  -0.58663  -0.54155  -0.52043  -0.47893
 Alpha virt. eigenvalues --    0.12109   0.17246   0.19106   0.27596   0.50619
 Alpha virt. eigenvalues --    0.54879   0.56315   0.59109   0.69094   0.72346
 Alpha virt. eigenvalues --    0.75292   0.77000   0.81097   0.83231   0.84542

 Mulliken charges:
               1
     1  O   -0.533921
     2  H    0.272805
     3  H    0.246638
     4  O   -0.506719
     5  H    0.263658
     6  H    0.257540
 Sum of Mulliken charges =  -0.00000

 Dipole moment (field-independent basis, Debye):
    X=             -1.7622    Y=             -3.4492    Z=              0.0000  Tot=              3.8733
 Quadrupole moment (field-independent basis, Debye-Ang):
   XX=             -9.2334   YY=             -8.0766   ZZ=            -14.7323
   XY=             -3.7878   XZ=             -0.0000   YZ=              0.0000

 Normal termination of Gaussian 16 at Sun Aug 28 01:06:57 2022.
