 Gaussian 16, Revision A.03,
 Gaussian 16:  ES64L-G16RevA.03 25-Dec-2016

 ------------------
 #p CCSD(T)/cc-pVTZ
 ------------------

 ------------
 H2O_H2O_3401
 ------------
 Symbolic Z-matrix:
 Charge =  0 Multiplicity = 1

                         Standard orientation:
 ---------------------------------------------------------------------
 Center     Atomic      Atomic             Coordinates (Angstroms)
 Number     Number       Type             X           Y           Z
 ---------------------------------------------------------------------
      1          8           0        0.090684   -2.446271    0.000000
      2          1           0        0.090603   -1.463670    0.000000
      3          1           0       -0.838782   -2.765014    0.000000
      4          8           0        0.090684    2.307562    0.000000
      5          1           0        0.154869    3.288066    0.000000
      6          1           0       -0.857639    2.050292    0.000000
 ---------------------------------------------------------------------

 SCF Done:  E(RHF) =  -152.108014013     A.U. after   10 cycles
 E2 =    -0.5259734879D+00 EUMP2 =    -0.15263398750084D+03
 CCSD(T)
 CCSD(T)= -0.15266118122D+03

 The electronic state is 1-A'.
 Alpha  occ. eigenvalues --  -20.56490 -20.55152  -1.33787  -1.32454  -0.71211
 Alpha  occ. eigenvalues --   -0.69841  -0.57256  -0.55908  -0.50897  -0.49568
 Alpha virt. eigenvalues --    0.11821   0.15355   0.19129   0.22683   0.53596
 Alpha virt. eigenvalues --    0.54872   0.56453   0.58030   0.67123   0.68929
 Alpha virt. eigenvalues --    0.78009   0.78601   0.79301   0.81264   0.82514

 Mulliken charges:
               1
     1  O   -0.510436
     2  H    0.259279
     3  H    0.250374
     4  O   -0.510165
     5  H    0.259663
     6  H    0.251285
 Sum of Mulliken charges =  -0.00000

 Dipole moment (field-independent basis, Debye):
    X=             -3.0959    Y=              2.4678    Z=              0.0000  Tot=              3.9591
 Quadrupole moment (field-independent basis, Debye-Ang):
   XX=            -10.7076   YY=             -8.9150   ZZ=            -14.7129
   XY=              2.3793   XZ=              0.0000   YZ=              0.0000

 Normal termination of Gaussian 16 at Fri Aug 26 21:29:43 2022.
