 Gaussian 16, Revision A.03,
 Gaussian 16:  ES64L-G16RevA.03 25-Dec-2016

 ------------------
 #p CCSD(T)/cc-pVTZ
 ------------------

 ------------
 H2O_H2O_2481
 ------------
 Symbolic Z-matrix:
 Charge =  0 Multiplicity = 1

                         Standard orientation:
 ---------------------------------------------------------------------
 Center     Atomic      Atomic             Coordinates (Angstroms)
 Number     Number       Type             X           Y           Z
 ---------------------------------------------------------------------
      1          8           0        0.076765    2.090612    0.000000
      2          1           0        0.076081    1.108011    0.000000
      3          1           0       -0.852506    2.409925    0.000000
      4          8           0        0.076765   -1.927415   -0.000000
      5          1           0        0.452158   -2.835482   -0.000000
      6          1           0       -0.903966   -1.988025   -0.000000
 ---------------------------------------------------------------------

 SCF Done:  E(RHF) =  -152.109884888     A.U. after   10 cycles
 E2 =    -0.5262046482D+00 EUMP2 =    -0.15263608953632D+03
 CCSD(T)
 CCSD(T)= -0.15266321502D+03

 The electronic state is 1-A'.
 Alpha  occ. eigenvalues --  -20.56953 -20.54459  -1.34227  -1.31779  -0.71650
 Alpha  occ. eigenvalues --   -0.69156  -0.57768  -0.55244  -0.51349  -0.48908
 Alpha virt. eigenvalues --    0.11970   0.16165   0.19490   0.24006   0.53355
 Alpha virt. eigenvalues --    0.55567   0.56210   0.58423   0.68773   0.70723
 Alpha virt. eigenvalues --    0.77335   0.79125   0.79975   0.80977   0.83215

 Mulliken charges:
               1
     1  O   -0.518057
     2  H    0.265141
     3  H    0.247854
     4  O   -0.507637
     5  H    0.259573
     6  H    0.253126
 Sum of Mulliken charges =  -0.00000

 Dipole moment (field-independent basis, Debye):
    X=             -2.6056    Y=             -2.9880    Z=             -0.0000  Tot=              3.9645
 Quadrupole moment (field-independent basis, Debye-Ang):
   XX=             -9.9636   YY=             -8.0476   ZZ=            -14.7192
   XY=             -3.2478   XZ=             -0.0000   YZ=              0.0000

 Normal termination of Gaussian 16 at Sun Aug 28 07:38:52 2022.
