 Gaussian 16, Revision A.03,
 Gaussian 16:  ES64L-G16RevA.03 25-Dec-2016

 ------------------
 #p CCSD(T)/cc-pVTZ
 ------------------

 -----------
 H2O_H2O_690
 -----------
 Symbolic Z-matrix:
 Charge =  0 Multiplicity = 1

                         Standard orientation:
 ---------------------------------------------------------------------
 Center     Atomic      Atomic             Coordinates (Angstroms)
 Number     Number       Type             X           Y           Z
 ---------------------------------------------------------------------
      1          8           0        0.044983    1.381921    0.000000
      2          1           0        0.041823    0.399325    0.000000
      3          1           0       -0.883481    1.703575   -0.000000
      4          8           0        0.044983   -1.201645    0.000000
      5          1           0        0.860226   -1.750174    0.000000
      6          1           0       -0.738290   -1.794933   -0.000000
 ---------------------------------------------------------------------

 SCF Done:  E(RHF) =  -152.108199360     A.U. after   11 cycles
 E2 =    -0.5303034305D+00 EUMP2 =    -0.15263850279073D+03
 CCSD(T)
 CCSD(T)= -0.15266509734D+03

 The electronic state is 1-A'.
 Alpha  occ. eigenvalues --  -20.59639 -20.49977  -1.37591  -1.28084  -0.74491
 Alpha  occ. eigenvalues --   -0.69555  -0.59308  -0.54463  -0.50598  -0.45111
 Alpha virt. eigenvalues --    0.11522   0.17900   0.19396   0.33263   0.47689
 Alpha virt. eigenvalues --    0.54092   0.59340   0.62816   0.69628   0.72385
 Alpha virt. eigenvalues --    0.72426   0.78182   0.81755   0.82833   0.84372

 Mulliken charges:
               1
     1  O   -0.596783
     2  H    0.311642
     3  H    0.233292
     4  O   -0.465060
     5  H    0.263389
     6  H    0.253521
 Sum of Mulliken charges =  -0.00000

 Dipole moment (field-independent basis, Debye):
    X=             -1.4585    Y=             -4.0829    Z=             -0.0000  Tot=              4.3356
 Quadrupole moment (field-independent basis, Debye-Ang):
   XX=             -9.1424   YY=             -9.1628   ZZ=            -14.7009
   XY=             -3.1993   XZ=              0.0000   YZ=             -0.0000

 Normal termination of Gaussian 16 at Fri Aug 26 19:52:12 2022.
