 Gaussian 16, Revision A.03,
 Gaussian 16:  ES64L-G16RevA.03 25-Dec-2016

 ------------------
 #p CCSD(T)/cc-pVTZ
 ------------------

 -----------
 H2O_H2O_719
 -----------
 Symbolic Z-matrix:
 Charge =  0 Multiplicity = 1

                         Standard orientation:
 ---------------------------------------------------------------------
 Center     Atomic      Atomic             Coordinates (Angstroms)
 Number     Number       Type             X           Y           Z
 ---------------------------------------------------------------------
      1          8           0        0.030344    1.389303    0.000000
      2          1           0        0.026252    0.406710    0.000000
      3          1           0       -0.897814    1.711838   -0.000000
      4          8           0        0.030344   -1.213802    0.000000
      5          1           0        0.959476   -1.533522    0.000000
      6          1           0       -0.573421   -1.989028   -0.000000
 ---------------------------------------------------------------------

 SCF Done:  E(RHF) =  -152.108621409     A.U. after   10 cycles
 E2 =    -0.5301111030D+00 EUMP2 =    -0.15263873251205D+03
 CCSD(T)
 CCSD(T)= -0.15266535955D+03

 The electronic state is 1-A'.
 Alpha  occ. eigenvalues --  -20.59507 -20.50256  -1.37439  -1.28305  -0.74637
 Alpha  occ. eigenvalues --   -0.69003  -0.59590  -0.54315  -0.50856  -0.45354
 Alpha virt. eigenvalues --    0.11651   0.18217   0.19140   0.33329   0.47841
 Alpha virt. eigenvalues --    0.54197   0.58016   0.65168   0.68429   0.72368
 Alpha virt. eigenvalues --    0.72912   0.77724   0.81120   0.83404   0.84185

 Mulliken charges:
               1
     1  O   -0.596562
     2  H    0.305405
     3  H    0.239471
     4  O   -0.459731
     5  H    0.263252
     6  H    0.248165
 Sum of Mulliken charges =  -0.00000

 Dipole moment (field-independent basis, Debye):
    X=             -0.9918    Y=             -3.9550    Z=             -0.0000  Tot=              4.0774
 Quadrupole moment (field-independent basis, Debye-Ang):
   XX=             -9.2063   YY=             -9.1176   ZZ=            -14.7009
   XY=             -3.3521   XZ=             -0.0000   YZ=             -0.0000

 Normal termination of Gaussian 16 at Fri Aug 26 20:05:10 2022.
