 Gaussian 16, Revision A.03,
 Gaussian 16:  ES64L-G16RevA.03 25-Dec-2016

 ------------------
 #p CCSD(T)/cc-pVTZ
 ------------------

 -----------
 H2O_H2O_511
 -----------
 Symbolic Z-matrix:
 Charge =  0 Multiplicity = 1

                         Standard orientation:
 ---------------------------------------------------------------------
 Center     Atomic      Atomic             Coordinates (Angstroms)
 Number     Number       Type             X           Y           Z
 ---------------------------------------------------------------------
      1          8           0        0.059737    1.310507    0.000000
      2          1           0        0.057423    0.327908    0.000000
      3          1           0       -0.869003    1.631361   -0.000000
      4          8           0        0.059737   -1.133191    0.000000
      5          1           0        0.705870   -1.873473    0.000000
      6          1           0       -0.850081   -1.504321   -0.000000
 ---------------------------------------------------------------------

 SCF Done:  E(RHF) =  -152.099939815     A.U. after   11 cycles
 E2 =    -0.5318477657D+00 EUMP2 =    -0.15263178758030D+03
 CCSD(T)
 CCSD(T)= -0.15265817102D+03

 The electronic state is 1-A'.
 Alpha  occ. eigenvalues --  -20.60204 -20.49023  -1.38671  -1.27457  -0.75529
 Alpha  occ. eigenvalues --   -0.70967  -0.58494  -0.55289  -0.49617  -0.44396
 Alpha virt. eigenvalues --    0.11208   0.17235   0.20031   0.33328   0.47829
 Alpha virt. eigenvalues --    0.53526   0.61198   0.62388   0.71349   0.72232
 Alpha virt. eigenvalues --    0.73868   0.78615   0.80610   0.83105   0.84112

 Mulliken charges:
               1
     1  O   -0.607107
     2  H    0.311290
     3  H    0.222656
     4  O   -0.427783
     5  H    0.252962
     6  H    0.247981
 Sum of Mulliken charges =  -0.00000

 Dipole moment (field-independent basis, Debye):
    X=             -1.9053    Y=             -4.2249    Z=              0.0000  Tot=              4.6347
 Quadrupole moment (field-independent basis, Debye-Ang):
   XX=             -9.3581   YY=             -9.3963   ZZ=            -14.6705
   XY=             -2.9699   XZ=              0.0000   YZ=              0.0000

 Normal termination of Gaussian 16 at Fri Aug 26 18:44:53 2022.
