 Gaussian 16, Revision A.03,
 Gaussian 16:  ES64L-G16RevA.03 25-Dec-2016

 ------------------
 #p CCSD(T)/cc-pVTZ
 ------------------

 ------------
 H2O_H2O_4913
 ------------
 Symbolic Z-matrix:
 Charge =  0 Multiplicity = 1

                         Standard orientation:
 ---------------------------------------------------------------------
 Center     Atomic      Atomic             Coordinates (Angstroms)
 Number     Number       Type             X           Y           Z
 ---------------------------------------------------------------------
      1          8           0        0.052265    3.066978    0.000000
      2          1           0        0.051106    2.084377    0.000000
      3          1           0       -0.876851    3.386741    0.000000
      4          8           0        0.052265   -2.887049   -0.000000
      5          1           0        0.790259   -3.535794   -0.000000
      6          1           0       -0.800755   -3.374760   -0.000000
 ---------------------------------------------------------------------

 SCF Done:  E(RHF) =  -152.108216837     A.U. after   10 cycles
 E2 =    -0.5258110331D+00 EUMP2 =    -0.15263402786998D+03
 CCSD(T)
 CCSD(T)= -0.15266123092D+03

 The electronic state is 1-A'.
 Alpha  occ. eigenvalues --  -20.56121 -20.55030  -1.33423  -1.32336  -0.70828
 Alpha  occ. eigenvalues --   -0.69738  -0.56908  -0.55803  -0.50540  -0.49457
 Alpha virt. eigenvalues --    0.13522   0.14771   0.19735   0.20895   0.53720
 Alpha virt. eigenvalues --    0.54802   0.56712   0.57761   0.67054   0.68521
 Alpha virt. eigenvalues --    0.78343   0.79404   0.79748   0.80493   0.82245

 Mulliken charges:
               1
     1  O   -0.512972
     2  H    0.259580
     3  H    0.253353
     4  O   -0.513651
     5  H    0.257782
     6  H    0.255908
 Sum of Mulliken charges =  -0.00000

 Dipole moment (field-independent basis, Debye):
    X=             -1.7941    Y=             -3.1488    Z=             -0.0000  Tot=              3.6240
 Quadrupole moment (field-independent basis, Debye-Ang):
   XX=             -9.2249   YY=             -5.9775   ZZ=            -14.7142
   XY=             -5.5784   XZ=             -0.0000   YZ=             -0.0000

 Normal termination of Gaussian 16 at Sun Aug 28 06:51:01 2022.
