 Gaussian 16, Revision A.03,
 Gaussian 16:  ES64L-G16RevA.03 25-Dec-2016

 ------------------
 #p CCSD(T)/cc-pVTZ
 ------------------

 ------------
 H2O_H2O_3512
 ------------
 Symbolic Z-matrix:
 Charge =  0 Multiplicity = 1

                         Standard orientation:
 ---------------------------------------------------------------------
 Center     Atomic      Atomic             Coordinates (Angstroms)
 Number     Number       Type             X           Y           Z
 ---------------------------------------------------------------------
      1          8           0        0.055982    2.508002   -0.000000
      2          1           0        0.054684    1.525401   -0.000000
      3          1           0       -0.873090    2.827895   -0.000000
      4          8           0        0.055982   -2.329084    0.000000
      5          1           0        0.749868   -3.024804    0.000000
      6          1           0       -0.827170   -2.759838    0.000000
 ---------------------------------------------------------------------

 SCF Done:  E(RHF) =  -152.109082123     A.U. after   10 cycles
 E2 =    -0.5258684869D+00 EUMP2 =    -0.15263495060995D+03
 CCSD(T)
 CCSD(T)= -0.15266212030D+03

 The electronic state is 1-A'.
 Alpha  occ. eigenvalues --  -20.56441 -20.54678  -1.33731  -1.31992  -0.71135
 Alpha  occ. eigenvalues --   -0.69386  -0.57246  -0.55470  -0.50855  -0.49120
 Alpha virt. eigenvalues --    0.12739   0.15505   0.19549   0.21776   0.53412
 Alpha virt. eigenvalues --    0.55070   0.56467   0.58043   0.67006   0.69319
 Alpha virt. eigenvalues --    0.78049   0.79000   0.79619   0.79720   0.83017

 Mulliken charges:
               1
     1  O   -0.515941
     2  H    0.262740
     3  H    0.251941
     4  O   -0.515030
     5  H    0.259829
     6  H    0.256461
 Sum of Mulliken charges =  -0.00000

 Dipole moment (field-independent basis, Debye):
    X=             -1.9133    Y=             -3.1837    Z=              0.0000  Tot=              3.7143
 Quadrupole moment (field-independent basis, Debye-Ang):
   XX=             -9.2862   YY=             -6.9197   ZZ=            -14.7172
   XY=             -4.6174   XZ=              0.0000   YZ=             -0.0000

 Normal termination of Gaussian 16 at Fri Aug 26 22:07:39 2022.
