 Gaussian 16, Revision A.03,
 Gaussian 16:  ES64L-G16RevA.03 25-Dec-2016

 ------------------
 #p CCSD(T)/cc-pVTZ
 ------------------

 -----------
 H2O_H2O_886
 -----------
 Symbolic Z-matrix:
 Charge =  0 Multiplicity = 1

                         Standard orientation:
 ---------------------------------------------------------------------
 Center     Atomic      Atomic             Coordinates (Angstroms)
 Number     Number       Type             X           Y           Z
 ---------------------------------------------------------------------
      1          8           0        0.059714    1.460101   -0.000000
      2          1           0        0.057653    0.477501   -0.000000
      3          1           0       -0.869108    1.780717    0.000000
      4          8           0        0.059714   -1.282754   -0.000000
      5          1           0        0.706037   -2.022871   -0.000000
      6          1           0       -0.850009   -1.654118    0.000000
 ---------------------------------------------------------------------

 SCF Done:  E(RHF) =  -152.111539683     A.U. after   10 cycles
 E2 =    -0.5293059044D+00 EUMP2 =    -0.15264084558732D+03
 CCSD(T)
 CCSD(T)= -0.15266762038D+03

 The electronic state is 1-A'.
 Alpha  occ. eigenvalues --  -20.59107 -20.51241  -1.36741  -1.29035  -0.73944
 Alpha  occ. eigenvalues --   -0.68455  -0.59663  -0.53734  -0.51923  -0.46112
 Alpha virt. eigenvalues --    0.11639   0.17572   0.19405   0.32381   0.48098
 Alpha virt. eigenvalues --    0.54436   0.58798   0.60218   0.69997   0.72394
 Alpha virt. eigenvalues --    0.72530   0.77374   0.81898   0.82873   0.84557

 Mulliken charges:
               1
     1  O   -0.572473
     2  H    0.302917
     3  H    0.234293
     4  O   -0.477714
     5  H    0.259385
     6  H    0.253591
 Sum of Mulliken charges =  -0.00000

 Dipole moment (field-independent basis, Debye):
    X=             -1.9560    Y=             -3.8226    Z=              0.0000  Tot=              4.2940
 Quadrupole moment (field-independent basis, Debye-Ang):
   XX=             -9.3728   YY=             -8.8959   ZZ=            -14.7153
   XY=             -3.1898   XZ=             -0.0000   YZ=              0.0000

 Normal termination of Gaussian 16 at Fri Aug 26 21:08:16 2022.
