 Gaussian 16, Revision A.03,
 Gaussian 16:  ES64L-G16RevA.03 25-Dec-2016

 ------------------
 #p CCSD(T)/cc-pVTZ
 ------------------

 -----------
 H2O_H2O_898
 -----------
 Symbolic Z-matrix:
 Charge =  0 Multiplicity = 1

                         Standard orientation:
 ---------------------------------------------------------------------
 Center     Atomic      Atomic             Coordinates (Angstroms)
 Number     Number       Type             X           Y           Z
 ---------------------------------------------------------------------
      1          8           0       -0.016781    1.452496    0.000000
      2          1           0       -0.012057    0.469906    0.000000
      3          1           0        0.911169    1.775628    0.000000
      4          8           0       -0.016781   -1.289170    0.000000
      5          1           0       -0.996958   -1.358148    0.000000
      6          1           0        0.366350   -2.193999    0.000000
 ---------------------------------------------------------------------

 SCF Done:  E(RHF) =  -152.110858102     A.U. after   10 cycles
 E2 =    -0.5291862833D+00 EUMP2 =    -0.15264004438529D+03
 CCSD(T)
 CCSD(T)= -0.15266684011D+03

 The electronic state is 1-A'.
 Alpha  occ. eigenvalues --  -20.58962 -20.51584  -1.36668  -1.29354  -0.74341
 Alpha  occ. eigenvalues --   -0.67941  -0.60004  -0.53622  -0.52216  -0.46457
 Alpha virt. eigenvalues --    0.11917   0.18247   0.18985   0.32615   0.48618
 Alpha virt. eigenvalues --    0.54344   0.56438   0.64515   0.68297   0.72369
 Alpha virt. eigenvalues --    0.74169   0.76486   0.80966   0.82954   0.84176

 Mulliken charges:
               1
     1  O   -0.578996
     2  H    0.292347
     3  H    0.248739
     4  O   -0.461008
     5  H    0.260270
     6  H    0.238648
 Sum of Mulliken charges =  -0.00000

 Dipole moment (field-independent basis, Debye):
    X=              0.5652    Y=             -3.5325    Z=              0.0000  Tot=              3.5774
 Quadrupole moment (field-independent basis, Debye-Ang):
   XX=             -9.5255   YY=             -8.9469   ZZ=            -14.7091
   XY=              3.7851   XZ=              0.0000   YZ=              0.0000

 Normal termination of Gaussian 16 at Fri Aug 26 21:12:45 2022.
