 Gaussian 16, Revision A.03,
 Gaussian 16:  ES64L-G16RevA.03 25-Dec-2016

 ------------------
 #p CCSD(T)/cc-pVTZ
 ------------------

 -----------
 H2O_H2O_628
 -----------
 Symbolic Z-matrix:
 Charge =  0 Multiplicity = 1

                         Standard orientation:
 ---------------------------------------------------------------------
 Center     Atomic      Atomic             Coordinates (Angstroms)
 Number     Number       Type             X           Y           Z
 ---------------------------------------------------------------------
      1          8           0        0.085617   -1.345282    0.000000
      2          1           0        0.085127   -0.362681    0.000000
      3          1           0       -0.843716   -1.664413    0.000000
      4          8           0        0.085617    1.195723    0.000000
      5          1           0        0.276832    2.159539    0.000000
      6          1           0       -0.888119    1.064027    0.000000
 ---------------------------------------------------------------------

 SCF Done:  E(RHF) =  -152.099545928     A.U. after   11 cycles
 E2 =    -0.5318403617D+00 EUMP2 =    -0.15263138628921D+03
 CCSD(T)
 CCSD(T)= -0.15265801732D+03

 The electronic state is 1-A'.
 Alpha  occ. eigenvalues --  -20.59672 -20.51370  -1.37988  -1.29325  -0.76422
 Alpha  occ. eigenvalues --   -0.68376  -0.59560  -0.54570  -0.52072  -0.46321
 Alpha virt. eigenvalues --    0.11285   0.16553   0.20593   0.32401   0.48393
 Alpha virt. eigenvalues --    0.52743   0.58883   0.63507   0.70138   0.71691
 Alpha virt. eigenvalues --    0.74079   0.78303   0.78813   0.83302   0.83478

 Mulliken charges:
               1
     1  O   -0.565983
     2  H    0.292323
     3  H    0.220620
     4  O   -0.412522
     5  H    0.232837
     6  H    0.232725
 Sum of Mulliken charges =  -0.00000

 Dipole moment (field-independent basis, Debye):
    X=             -2.7651    Y=              3.4598    Z=              0.0000  Tot=              4.4290
 Quadrupole moment (field-independent basis, Debye-Ang):
   XX=            -10.4389   YY=             -9.2450   ZZ=            -14.6619
   XY=              2.4450   XZ=              0.0000   YZ=              0.0000

 Normal termination of Gaussian 16 at Fri Aug 26 19:29:50 2022.
