 Gaussian 16, Revision A.03,
 Gaussian 16:  ES64L-G16RevA.03 25-Dec-2016

 ------------------
 #p CCSD(T)/cc-pVTZ
 ------------------

 ------------
 H2O_H2O_3586
 ------------
 Symbolic Z-matrix:
 Charge =  0 Multiplicity = 1

                         Standard orientation:
 ---------------------------------------------------------------------
 Center     Atomic      Atomic             Coordinates (Angstroms)
 Number     Number       Type             X           Y           Z
 ---------------------------------------------------------------------
      1          8           0        0.059632    2.537123   -0.000000
      2          1           0        0.058477    1.554522   -0.000000
      3          1           0       -0.869486    2.856882    0.000000
      4          8           0        0.059632   -2.359667   -0.000000
      5          1           0        0.706639   -3.099186   -0.000000
      6          1           0       -0.849747   -2.731869    0.000000
 ---------------------------------------------------------------------

 SCF Done:  E(RHF) =  -152.108945720     A.U. after   10 cycles
 E2 =    -0.5258656799D+00 EUMP2 =    -0.15263481140018D+03
 CCSD(T)
 CCSD(T)= -0.15266198542D+03

 The electronic state is 1-A'.
 Alpha  occ. eigenvalues --  -20.56417 -20.54724  -1.33709  -1.32036  -0.71114
 Alpha  occ. eigenvalues --   -0.69430  -0.57219  -0.55513  -0.50831  -0.49163
 Alpha virt. eigenvalues --    0.12756   0.15438   0.19543   0.21690   0.53415
 Alpha virt. eigenvalues --    0.55041   0.56478   0.58001   0.66904   0.69286
 Alpha virt. eigenvalues --    0.78072   0.78957   0.79680   0.79781   0.82971

 Mulliken charges:
               1
     1  O   -0.515335
     2  H    0.262403
     3  H    0.251857
     4  O   -0.514848
     5  H    0.259791
     6  H    0.256132
 Sum of Mulliken charges =  -0.00000

 Dipole moment (field-independent basis, Debye):
    X=             -2.0386    Y=             -3.1530    Z=              0.0000  Tot=              3.7546
 Quadrupole moment (field-independent basis, Debye-Ang):
   XX=             -9.3631   YY=             -6.9396   ZZ=            -14.7167
   XY=             -4.4748   XZ=              0.0000   YZ=              0.0000

 CCSD(T)=-152.6619854\RMSD=7.057e-09\PG=CS [SG(H4O2)]\\@
 Normal termination of Gaussian 16 at Fri Aug 26 22:32:16 2022.
