 Gaussian 16, Revision A.03,
 Gaussian 16:  ES64L-G16RevA.03 25-Dec-2016

 ------------------
 #p CCSD(T)/cc-pVTZ
 ------------------

 ------------
 H2O_H2O_4338
 ------------
 Symbolic Z-matrix:
 Charge =  0 Multiplicity = 1

                         Standard orientation:
 ---------------------------------------------------------------------
 Center     Atomic      Atomic             Coordinates (Angstroms)
 Number     Number       Type             X           Y           Z
 ---------------------------------------------------------------------
      1          8           0        0.052274    2.837619   -0.000000
      2          1           0        0.051018    1.855018   -0.000000
      3          1           0       -0.876811    3.157473   -0.000000
      4          8           0        0.052274   -2.657700    0.000000
      5          1           0        0.790204   -3.306517    0.000000
      6          1           0       -0.800794   -3.145328    0.000000
 ---------------------------------------------------------------------

 SCF Done:  E(RHF) =  -152.108475163     A.U. after   10 cycles
 E2 =    -0.5258143024D+00 EUMP2 =    -0.15263428946572D+03
 CCSD(T)
 CCSD(T)= -0.15266148406D+03

 The electronic state is 1-A'.
 Alpha  occ. eigenvalues --  -20.56218 -20.54910  -1.33518  -1.32218  -0.70922
 Alpha  occ. eigenvalues --   -0.69618  -0.57013  -0.55690  -0.50637  -0.49342
 Alpha virt. eigenvalues --    0.13275   0.15004   0.19676   0.21113   0.53621
 Alpha virt. eigenvalues --    0.54866   0.56635   0.57805   0.66758   0.68868
 Alpha virt. eigenvalues --    0.78252   0.79512   0.79606   0.79981   0.82759

 Mulliken charges:
               1
     1  O   -0.514008
     2  H    0.260816
     3  H    0.252991
     4  O   -0.514768
     5  H    0.258625
     6  H    0.256345
 Sum of Mulliken charges =  -0.00000

 Dipole moment (field-independent basis, Debye):
    X=             -1.7919    Y=             -3.1634    Z=              0.0000  Tot=              3.6356
 Quadrupole moment (field-independent basis, Debye-Ang):
   XX=             -9.2250   YY=             -6.3505   ZZ=            -14.7150
   XY=             -5.2553   XZ=              0.0000   YZ=             -0.0000

 Normal termination of Gaussian 16 at Sun Aug 28 01:57:32 2022.
