 Gaussian 16, Revision A.03,
 Gaussian 16:  ES64L-G16RevA.03 25-Dec-2016

 ------------------
 #p CCSD(T)/cc-pVTZ
 ------------------

 ------------
 H2O_H2O_4196
 ------------
 Symbolic Z-matrix:
 Charge =  0 Multiplicity = 1

                         Standard orientation:
 ---------------------------------------------------------------------
 Center     Atomic      Atomic             Coordinates (Angstroms)
 Number     Number       Type             X           Y           Z
 ---------------------------------------------------------------------
      1          8           0       -0.023174    2.772624    0.000000
      2          1           0       -0.020971    1.790025    0.000000
      3          1           0        0.905603    3.093373    0.000000
      4          8           0       -0.023174   -2.602218    0.000000
      5          1           0       -0.986463   -2.796074    0.000000
      6          1           0        0.472609   -3.450574    0.000000
 ---------------------------------------------------------------------

 SCF Done:  E(RHF) =  -152.108642689     A.U. after   10 cycles
 E2 =    -0.5258031720D+00 EUMP2 =    -0.15263444586118D+03
 CCSD(T)
 CCSD(T)= -0.15266163659D+03

 The electronic state is 1-A'.
 Alpha  occ. eigenvalues --  -20.56239 -20.54940  -1.33540  -1.32249  -0.70945
 Alpha  occ. eigenvalues --   -0.69654  -0.57041  -0.55726  -0.50661  -0.49375
 Alpha virt. eigenvalues --    0.13112   0.15077   0.19500   0.21355   0.53417
 Alpha virt. eigenvalues --    0.54991   0.56636   0.57820   0.66710   0.68902
 Alpha virt. eigenvalues --    0.78229   0.79264   0.79477   0.80439   0.82739

 Mulliken charges:
               1
     1  O   -0.515142
     2  H    0.260483
     3  H    0.254395
     4  O   -0.515595
     5  H    0.257794
     6  H    0.258066
 Sum of Mulliken charges =  -0.00000

 Dipole moment (field-independent basis, Debye):
    X=              0.7952    Y=             -2.9993    Z=              0.0000  Tot=              3.1029
 Quadrupole moment (field-independent basis, Debye-Ang):
   XX=             -9.3618   YY=             -6.9458   ZZ=            -14.7155
   XY=              6.8308   XZ=              0.0000   YZ=              0.0000

 Normal termination of Gaussian 16 at Sun Aug 28 00:39:11 2022.
