 Gaussian 16, Revision A.03,
 Gaussian 16:  ES64L-G16RevA.03 25-Dec-2016

 ------------------
 #p CCSD(T)/cc-pVTZ
 ------------------

 ------------
 H2O_H2O_1175
 ------------
 Symbolic Z-matrix:
 Charge =  0 Multiplicity = 1

                         Standard orientation:
 ---------------------------------------------------------------------
 Center     Atomic      Atomic             Coordinates (Angstroms)
 Number     Number       Type             X           Y           Z
 ---------------------------------------------------------------------
      1          8           0        0.092949   -1.555552    0.000000
      2          1           0        0.092949   -0.572951    0.000000
      3          1           0       -0.836544   -1.874219    0.000000
      4          8           0        0.092949    1.422765    0.000000
      5          1           0        0.092950    2.405367    0.000000
      6          1           0       -0.836544    1.104099    0.000000
 ---------------------------------------------------------------------

 SCF Done:  E(RHF) =  -152.107461607     A.U. after   10 cycles
 E2 =    -0.5288061967D+00 EUMP2 =    -0.15263626780324D+03
 CCSD(T)
 CCSD(T)= -0.15266330676D+03

 The electronic state is 1-A'.
 Alpha  occ. eigenvalues --  -20.58355 -20.53993  -1.35878  -1.31428  -0.73993
 Alpha  occ. eigenvalues --   -0.68536  -0.59223  -0.54703  -0.52841  -0.48499
 Alpha virt. eigenvalues --    0.11466   0.16353   0.20693   0.29542   0.48640
 Alpha virt. eigenvalues --    0.53410   0.58012   0.59681   0.67968   0.72170
 Alpha virt. eigenvalues --    0.73932   0.78256   0.80565   0.81299   0.83095

 Mulliken charges:
               1
     1  O   -0.527012
     2  H    0.278578
     3  H    0.234299
     4  O   -0.460137
     5  H    0.240464
     6  H    0.233808
 Sum of Mulliken charges =  -0.00000

 Dipole moment (field-independent basis, Debye):
    X=             -3.0775    Y=              2.7089    Z=              0.0000  Tot=              4.0999
 Quadrupole moment (field-independent basis, Debye-Ang):
   XX=            -10.9035   YY=             -9.1854   ZZ=            -14.6989
   XY=              2.0969   XZ=              0.0000   YZ=              0.0000

 CCSD(T)=-152.6633068\RMSD=7.647e-09\PG=CS [SG(H4O2)]\\@
 Normal termination of Gaussian 16 at Fri Aug 26 22:54:47 2022.
