 Gaussian 16, Revision A.03,
 Gaussian 16:  ES64L-G16RevA.03 25-Dec-2016

 ------------------
 #p CCSD(T)/cc-pVTZ
 ------------------

 ------------
 H2O_H2O_1941
 ------------
 Symbolic Z-matrix:
 Charge =  0 Multiplicity = 1

                         Standard orientation:
 ---------------------------------------------------------------------
 Center     Atomic      Atomic             Coordinates (Angstroms)
 Number     Number       Type             X           Y           Z
 ---------------------------------------------------------------------
      1          8           0        0.041188    1.880299   -0.000000
      2          1           0        0.038731    0.897701   -0.000000
      3          1           0       -0.887506    2.201288    0.000000
      4          8           0        0.041188   -1.700418   -0.000000
      5          1           0        0.890915   -2.193844   -0.000000
      6          1           0       -0.701144   -2.344195    0.000000
 ---------------------------------------------------------------------

 SCF Done:  E(RHF) =  -152.112624087     A.U. after   10 cycles
 E2 =    -0.5264657098D+00 EUMP2 =    -0.15263908979648D+03
 CCSD(T)
 CCSD(T)= -0.15266614549D+03

 The electronic state is 1-A'.
 Alpha  occ. eigenvalues --  -20.57417 -20.53589  -1.34669  -1.30957  -0.72046
 Alpha  occ. eigenvalues --   -0.68404  -0.58386  -0.54408  -0.51809  -0.48111
 Alpha virt. eigenvalues --    0.12222   0.17104   0.19124   0.26581   0.51538
 Alpha virt. eigenvalues --    0.54854   0.56406   0.59021   0.69087   0.72406
 Alpha virt. eigenvalues --    0.76040   0.77422   0.80824   0.83399   0.84441

 Mulliken charges:
               1
     1  O   -0.531530
     2  H    0.270060
     3  H    0.249390
     4  O   -0.508355
     5  H    0.262459
     6  H    0.257976
 Sum of Mulliken charges =   0.00000

 Dipole moment (field-independent basis, Debye):
    X=             -1.3921    Y=             -3.3994    Z=              0.0000  Tot=              3.6734
 Quadrupole moment (field-independent basis, Debye-Ang):
   XX=             -9.1518   YY=             -7.9207   ZZ=            -14.7302
   XY=             -4.1730   XZ=             -0.0000   YZ=              0.0000

 Normal termination of Gaussian 16 at Sun Aug 28 02:56:30 2022.
