 Gaussian 16, Revision A.03,
 Gaussian 16:  ES64L-G16RevA.03 25-Dec-2016

 ------------------
 #p CCSD(T)/cc-pVTZ
 ------------------

 ------------
 H2O_H2O_1366
 ------------
 Symbolic Z-matrix:
 Charge =  0 Multiplicity = 1

                         Standard orientation:
 ---------------------------------------------------------------------
 Center     Atomic      Atomic             Coordinates (Angstroms)
 Number     Number       Type             X           Y           Z
 ---------------------------------------------------------------------
      1          8           0        0.041221    1.650930    0.000000
      2          1           0        0.038404    0.668333    0.000000
      3          1           0       -0.887355    1.972260    0.000000
      4          8           0        0.041221   -1.471079   -0.000000
      5          1           0        0.890767   -1.964818   -0.000000
      6          1           0       -0.701347   -2.114584   -0.000000
 ---------------------------------------------------------------------

 SCF Done:  E(RHF) =  -152.114212496     A.U. after   10 cycles
 E2 =    -0.5274223085D+00 EUMP2 =    -0.15264163480448D+03
 CCSD(T)
 CCSD(T)= -0.15266860285D+03

 The electronic state is 1-A'.
 Alpha  occ. eigenvalues --  -20.58156 -20.52617  -1.35471  -1.30108  -0.72788
 Alpha  occ. eigenvalues --   -0.67927  -0.59295  -0.53388  -0.52593  -0.47256
 Alpha virt. eigenvalues --    0.12042   0.17853   0.18873   0.29870   0.49658
 Alpha virt. eigenvalues --    0.54559   0.55965   0.60207   0.68836   0.71874
 Alpha virt. eigenvalues --    0.73794   0.76978   0.81814   0.82894   0.84907

 Mulliken charges:
               1
     1  O   -0.548515
     2  H    0.282270
     3  H    0.245944
     4  O   -0.504729
     5  H    0.265979
     6  H    0.259050
 Sum of Mulliken charges =  -0.00000

 Dipole moment (field-independent basis, Debye):
    X=             -1.3782    Y=             -3.5839    Z=             -0.0000  Tot=              3.8398
 Quadrupole moment (field-independent basis, Debye-Ang):
   XX=             -9.1507   YY=             -8.3951   ZZ=            -14.7353
   XY=             -3.7508   XZ=             -0.0000   YZ=              0.0000

 Normal termination of Gaussian 16 at Sat Aug 27 00:08:47 2022.
