 Gaussian 16, Revision A.03,
 Gaussian 16:  ES64L-G16RevA.03 25-Dec-2016

 ------------------
 #p CCSD(T)/cc-pVTZ
 ------------------

 ------------
 H2O_H2O_3474
 ------------
 Symbolic Z-matrix:
 Charge =  0 Multiplicity = 1

                         Standard orientation:
 ---------------------------------------------------------------------
 Center     Atomic      Atomic             Coordinates (Angstroms)
 Number     Number       Type             X           Y           Z
 ---------------------------------------------------------------------
      1          8           0       -0.013506    2.477391    0.000000
      2          1           0       -0.010695    1.494793    0.000000
      3          1           0        0.915072    2.798715    0.000000
      4          8           0       -0.013506   -2.318124    0.000000
      5          1           0       -0.996103   -2.320935    0.000000
      6          1           0        0.307819   -3.246703    0.000000
 ---------------------------------------------------------------------

 SCF Done:  E(RHF) =  -152.109130241     A.U. after   10 cycles
 E2 =    -0.5258487854D+00 EUMP2 =    -0.15263497902650D+03
 CCSD(T)
 CCSD(T)= -0.15266215040D+03

 The electronic state is 1-A'.
 Alpha  occ. eigenvalues --  -20.56432 -20.54851  -1.33729  -1.32164  -0.71137
 Alpha  occ. eigenvalues --   -0.69572  -0.57244  -0.55648  -0.50851  -0.49295
 Alpha virt. eigenvalues --    0.12440   0.15517   0.19190   0.22390   0.53342
 Alpha virt. eigenvalues --    0.55387   0.56541   0.57956   0.67010   0.69236
 Alpha virt. eigenvalues --    0.78049   0.78676   0.79549   0.80807   0.82903

 Mulliken charges:
               1
     1  O   -0.517209
     2  H    0.261057
     3  H    0.255059
     4  O   -0.515845
     5  H    0.257771
     6  H    0.259167
 Sum of Mulliken charges =  -0.00000

 Dipole moment (field-independent basis, Debye):
    X=              0.4652    Y=             -2.8316    Z=              0.0000  Tot=              2.8695
 Quadrupole moment (field-independent basis, Debye-Ang):
   XX=             -9.6478   YY=             -7.8244   ZZ=            -14.7172
   XY=              6.7025   XZ=              0.0000   YZ=              0.0000

 Normal termination of Gaussian 16 at Fri Aug 26 21:53:52 2022.
