 Gaussian 16, Revision A.03,
 Gaussian 16:  ES64L-G16RevA.03 25-Dec-2016

 ------------------
 #p CCSD(T)/cc-pVTZ
 ------------------

 -----------
 H2O_H2O_145
 -----------
 Symbolic Z-matrix:
 Charge =  0 Multiplicity = 1

                         Standard orientation:
 ---------------------------------------------------------------------
 Center     Atomic      Atomic             Coordinates (Angstroms)
 Number     Number       Type             X           Y           Z
 ---------------------------------------------------------------------
      1          8           0        0.026900    1.158637    0.000000
      2          1           0        0.021652    0.176049    0.000000
      3          1           0       -0.900878    1.482263    0.000000
      4          8           0        0.026900   -0.985562   -0.000000
      5          1           0        0.974649   -1.244943   -0.000000
      6          1           0       -0.525827   -1.797966   -0.000000
 ---------------------------------------------------------------------

 SCF Done:  E(RHF) =  -152.056727728     A.U. after   11 cycles
 E2 =    -0.5351661859D+00 EUMP2 =    -0.15259189391360D+03
 CCSD(T)
 CCSD(T)= -0.15261758438D+03

 The electronic state is 1-A'.
 Alpha  occ. eigenvalues --  -20.61596 -20.45196  -1.42594  -1.25053  -0.79890
 Alpha  occ. eigenvalues --   -0.74463  -0.57850  -0.55968  -0.45398  -0.41694
 Alpha virt. eigenvalues --    0.10680   0.17014   0.20735   0.33597   0.46982
 Alpha virt. eigenvalues --    0.52188   0.60888   0.68511   0.70660   0.71196
 Alpha virt. eigenvalues --    0.77076   0.78235   0.80490   0.84079   0.86262

 Mulliken charges:
               1
     1  O   -0.668250
     2  H    0.288505
     3  H    0.219219
     4  O   -0.336839
     5  H    0.262986
     6  H    0.234380
 Sum of Mulliken charges =  -0.00000

 Dipole moment (field-independent basis, Debye):
    X=             -0.8233    Y=             -4.7786    Z=             -0.0000  Tot=              4.8490
 Quadrupole moment (field-independent basis, Debye-Ang):
   XX=             -9.1968   YY=            -10.0244   ZZ=            -14.5782
   XY=             -2.8017   XZ=             -0.0000   YZ=              0.0000

 Normal termination of Gaussian 16 at Fri Aug 26 16:10:33 2022.
