 Gaussian 16, Revision A.03,
 Gaussian 16:  ES64L-G16RevA.03 25-Dec-2016

 ------------------
 #p CCSD(T)/cc-pVTZ
 ------------------

 ------------
 H2O_H2O_3598
 ------------
 Symbolic Z-matrix:
 Charge =  0 Multiplicity = 1

                         Standard orientation:
 ---------------------------------------------------------------------
 Center     Atomic      Atomic             Coordinates (Angstroms)
 Number     Number       Type             X           Y           Z
 ---------------------------------------------------------------------
      1          8           0       -0.016609    2.529493    0.000000
      2          1           0       -0.013963    1.546895    0.000000
      3          1           0        0.912023    2.850661    0.000000
      4          8           0       -0.016609   -2.366096    0.000000
      5          1           0       -0.996930   -2.433001    0.000000
      6          1           0        0.364607   -3.271734    0.000000
 ---------------------------------------------------------------------

 SCF Done:  E(RHF) =  -152.109059798     A.U. after   10 cycles
 E2 =    -0.5258355696D+00 EUMP2 =    -0.15263489536738D+03
 CCSD(T)
 CCSD(T)= -0.15266206980D+03

 The electronic state is 1-A'.
 Alpha  occ. eigenvalues --  -20.56394 -20.54845  -1.33691  -1.32157  -0.71097
 Alpha  occ. eigenvalues --   -0.69564  -0.57204  -0.55641  -0.50813  -0.49288
 Alpha virt. eigenvalues --    0.12590   0.15440   0.19269   0.22101   0.53279
 Alpha virt. eigenvalues --    0.55301   0.56563   0.57927   0.66871   0.69210
 Alpha virt. eigenvalues --    0.78086   0.78751   0.79557   0.80644   0.82888

 Mulliken charges:
               1
     1  O   -0.516848
     2  H    0.261154
     3  H    0.254784
     4  O   -0.516021
     5  H    0.257978
     6  H    0.258954
 Sum of Mulliken charges =  -0.00000

 Dipole moment (field-independent basis, Debye):
    X=              0.5706    Y=             -2.8993    Z=              0.0000  Tot=              2.9549
 Quadrupole moment (field-independent basis, Debye-Ang):
   XX=             -9.5428   YY=             -7.5789   ZZ=            -14.7170
   XY=              6.6397   XZ=              0.0000   YZ=              0.0000

 Normal termination of Gaussian 16 at Fri Aug 26 22:36:10 2022.
