 Gaussian 16, Revision A.03,
 Gaussian 16:  ES64L-G16RevA.03 25-Dec-2016

 ------------------
 #p CCSD(T)/cc-pVTZ
 ------------------

 ------------
 H2O_H2O_2643
 ------------
 Symbolic Z-matrix:
 Charge =  0 Multiplicity = 1

                         Standard orientation:
 ---------------------------------------------------------------------
 Center     Atomic      Atomic             Coordinates (Angstroms)
 Number     Number       Type             X           Y           Z
 ---------------------------------------------------------------------
      1          8           0        0.033809    2.158224   -0.000000
      2          1           0        0.031383    1.175625   -0.000000
      3          1           0       -0.894894    2.479185   -0.000000
      4          8           0        0.033809   -1.980715    0.000000
      5          1           0        0.940684   -2.358981    0.000000
      6          1           0       -0.618119   -2.715898    0.000000
 ---------------------------------------------------------------------

 SCF Done:  E(RHF) =  -152.110675242     A.U. after   10 cycles
 E2 =    -0.5260231337D+00 EUMP2 =    -0.15263669837605D+03
 CCSD(T)
 CCSD(T)= -0.15266381491D+03

 The electronic state is 1-A'.
 Alpha  occ. eigenvalues --  -20.56842 -20.54245  -1.34110  -1.31574  -0.71507
 Alpha  occ. eigenvalues --   -0.68974  -0.57692  -0.55065  -0.51245  -0.48717
 Alpha virt. eigenvalues --    0.12381   0.16310   0.19336   0.23731   0.53057
 Alpha virt. eigenvalues --    0.55582   0.56399   0.58773   0.69045   0.70022
 Alpha virt. eigenvalues --    0.77550   0.78965   0.80117   0.80326   0.83527

 Mulliken charges:
               1
     1  O   -0.522964
     2  H    0.265747
     3  H    0.252248
     4  O   -0.512912
     5  H    0.260262
     6  H    0.257619
 Sum of Mulliken charges =  -0.00000

 Dipole moment (field-independent basis, Debye):
    X=             -1.1511    Y=             -3.2354    Z=              0.0000  Tot=              3.4341
 Quadrupole moment (field-independent basis, Debye-Ang):
   XX=             -9.1860   YY=             -7.5033   ZZ=            -14.7224
   XY=             -4.9326   XZ=              0.0000   YZ=             -0.0000

 Normal termination of Gaussian 16 at Fri Aug 26 16:15:19 2022.
