 Gaussian 16, Revision A.03,
 Gaussian 16:  ES64L-G16RevA.03 25-Dec-2016

 ------------------
 #p CCSD(T)/cc-pVTZ
 ------------------

 -----------
 H2O_H2O_353
 -----------
 Symbolic Z-matrix:
 Charge =  0 Multiplicity = 1

                         Standard orientation:
 ---------------------------------------------------------------------
 Center     Atomic      Atomic             Coordinates (Angstroms)
 Number     Number       Type             X           Y           Z
 ---------------------------------------------------------------------
      1          8           0        0.085621   -1.235587    0.000000
      2          1           0        0.085084   -0.252985    0.000000
      3          1           0       -0.843698   -1.554761    0.000000
      4          8           0        0.085621    1.086036    0.000000
      5          1           0        0.276790    2.049861    0.000000
      6          1           0       -0.888109    0.954294    0.000000
 ---------------------------------------------------------------------

 SCF Done:  E(RHF) =  -152.080145030     A.U. after   11 cycles
 E2 =    -0.5346946637D+00 EUMP2 =    -0.15261483969394D+03
 CCSD(T)
 CCSD(T)= -0.15264104731D+03

 The electronic state is 1-A'.
 Alpha  occ. eigenvalues --  -20.60598 -20.49452  -1.40175  -1.27987  -0.79087
 Alpha  occ. eigenvalues --   -0.69589  -0.58390  -0.56047  -0.50152  -0.44885
 Alpha virt. eigenvalues --    0.10994   0.16320   0.21035   0.32508   0.48990
 Alpha virt. eigenvalues --    0.51937   0.59397   0.65322   0.71664   0.72756
 Alpha virt. eigenvalues --    0.75085   0.77006   0.79260   0.83344   0.84955

 Mulliken charges:
               1
     1  O   -0.587560
     2  H    0.283668
     3  H    0.207581
     4  O   -0.365047
     5  H    0.228560
     6  H    0.232799
 Sum of Mulliken charges =  -0.00000

 Dipole moment (field-independent basis, Debye):
    X=             -2.7097    Y=              3.8125    Z=              0.0000  Tot=              4.6773
 Quadrupole moment (field-independent basis, Debye-Ang):
   XX=            -10.4097   YY=             -9.5492   ZZ=            -14.6080
   XY=              2.3612   XZ=              0.0000   YZ=              0.0000

 Normal termination of Gaussian 16 at Fri Aug 26 17:38:40 2022.
